ITEM: TIMESTEP
1
ITEM: NUMBER OF ATOMS
7
ITEM: BOX BOUNDS ss ss ss
-2.9375 3.3464
-2.5770 3.2956
-1.9089 1.9704
ITEM: ATOMS id type xs ys zs
1 1 .503624 .999441 .568651
2 1 .999243 .611357 .495715
3 1 .792339 .000593 .469001
4 1 .182491 .011191 .440829
5 1 .000679 .633477 .475328
6 1 .487870 .428419 .998902
7 1 .501111 .475024 .000799
ITEM: TIMESTEP
50
ITEM: NUMBER OF ATOMS
7
ITEM: BOX BOUNDS ss ss ss
-2.9650 3.3701
-2.6014 3.3159
-1.9331 1.9955
ITEM: ATOMS id type xs ys zs
1 1 .503917 .996764 .565504
2 1 .993961 .610906 .498337
3 1 .791302 .004509 .467791
4 1 .184905 .015905 .442325
5 1 .006630 .633529 .477078
6 1 .488444 .430713 .990087
7 1 .501703 .475921 .005741
ITEM: TIMESTEP
100
ITEM: NUMBER OF ATOMS
7
ITEM: BOX BOUNDS ss ss ss
-2.9719 3.3829
-2.6089 3.3292
-1.9431 2.0002
ITEM: ATOMS id type xs ys zs
1 1 .505272 .993907 .567582
2 1 .990277 .611425 .498628
3 1 .785427 .005219 .465156
4 1 .184576 .019052 .443378
5 1 .007878 .634287 .480675
6 1 .488337 .428909 .990979
7 1 .500758 .474885 .006840
ITEM: TIMESTEP
150
ITEM: NUMBER OF ATOMS
7
ITEM: BOX BOUNDS ss ss ss
-2.9792 3.3877
-2.6170 3.3477
-1.9522 2.0051
ITEM: ATOMS id type xs ys zs
1 1 .506118 .990439 .563276
2 1 .989862 .610342 .498641
3 1 .785679 .005828 .466140
4 1 .186794 .019167 .442394
5 1 .010135 .632138 .482499
6 1 .489478 .428572 .988413
7 1 .501775 .474083 .007401
ITEM: TIMESTEP
200
ITEM: NUMBER OF ATOMS
7
ITEM: BOX BOUNDS ss ss ss
-2.9717 3.3802
-2.6250 3.3407
-1.9595 2.0063
ITEM: ATOMS id type xs ys zs
1 1 .506519 .992665 .563953
2 1 .989737 .611240 .500227
3 1 .786893 .004781 .467392
4 1 .186004 .020580 .442314
5 1 .009781 .634060 .484945
6 1 .489691 .429355 .989600
7 1 .500456 .473638 .008977
ITEM: TIMESTEP
250
ITEM: NUMBER OF ATOMS
7
ITEM: BOX BOUNDS ss ss ss
-2.9783 3.3729
-2.6216 3.3528
-1.9674 2.0060
ITEM: ATOMS id type xs ys zs
1 1 .508247 .990247 .564108
2 1 .992106 .612401 .500730
3 1 .788535 .008233 .465140
4 1 .186615 .020241 .449229
5 1 .012545 .628612 .489715
6 1 .492067 .428198 .989107
7 1 .502704 .472665 .009840
ITEM: TIMESTEP
300
ITEM: NUMBER OF ATOMS
7
ITEM: BOX BOUNDS ss ss ss
-2.9714 3.3680
-2.6326 3.3603
-1.9709 2.0113
ITEM: ATOMS id type xs ys zs
1 1 .507989 .992873 .564093
2 1 .990605 .608732 .503024
3 1 .789341 .007977 .472828
4 1 .186488 .021377 .443653
5 1 .011209 .633642 .485383
6 1 .490121 .430625 .986551
7 1 .501229 .472855 .010055
ITEM: TIMESTEP
350
ITEM: NUMBER OF ATOMS
7
ITEM: BOX BOUNDS ss ss ss
-2.9672 3.3650
-2.6481 3.3594
-1.9847 1.9946
ITEM: ATOMS id type xs ys zs
1 1 .505045 .988262 .568690
2 1 .989417 .609579 .509048
3 1 .791106 .009281 .473658
4 1 .187106 .021533 .444592
5 1 .008211 .632591 .488382
6 1 .490777 .429144 .988821
7 1 .502351 .472814 .009717
ITEM: TIMESTEP
400
ITEM: NUMBER OF ATOMS
7
ITEM: BOX BOUNDS ss ss ss
-2.9665 3.3544
-2.6369 3.3720
-1.9736 2.0050
ITEM: ATOMS id type xs ys zs
1 1 .505130 .988697 .565071
2 1 .991425 .610340 .512755
3 1 .793583 .010272 .478119
4 1 .184155 .020337 .449207
5 1 .008658 .628179 .485017
6 1 .490490 .431863 .986956
7 1 .503650 .468926 .010525
ITEM: TIMESTEP
1
ITEM: NUMBER OF ATOMS
7
ITEM: BOX BOUNDS ss ss ss
-2.9584 3.3539
-2.6270 3.3518
-1.9740 2.0019
ITEM: ATOMS id type xs ys zs
1 1 .504663 .990060 .571210
2 1 .998065 .608863 .500044
3 1 .792092 .008952 .473970
4 1 .184991 .019351 .446478
5 1 .003980 .630603 .480150
6 1 .488986 .429171 .991017
7 1 .502163 .474958 .017162
ITEM: TIMESTEP
50
ITEM: NUMBER OF ATOMS
7
ITEM: BOX BOUNDS ss ss ss
-2.9614 3.3716
-2.6270 3.3518
-1.9740 2.0019
ITEM: ATOMS id type xs ys zs
1 1 .503667 .990155 .569413
2 1 .993176 .607978 .502340
3 1 .789236 .009213 .475583
4 1 .185236 .018677 .445071
5 1 .004971 .629947 .483472
6 1 .488960 .431283 .990638
7 1 .500982 .475652 .015544
ITEM: TIMESTEP
100
ITEM: NUMBER OF ATOMS
7
ITEM: BOX BOUNDS ss ss ss
-2.9707 3.3870
-2.6270 3.3518
-1.9740 2.0019
ITEM: ATOMS id type xs ys zs
1 1 .501668 .989955 .570778
2 1 .989245 .609242 .504601
3 1 .790300 .007788 .473107
4 1 .185071 .019748 .445160
5 1 .007864 .630464 .479091
6 1 .488154 .430244 .989761
7 1 .500616 .473389 .012557
ITEM: TIMESTEP
150
ITEM: NUMBER OF ATOMS
7
ITEM: BOX BOUNDS ss ss ss
-2.9764 3.3807
-2.6270 3.3518
-1.9740 2.0066
ITEM: ATOMS id type xs ys zs
1 1 .505803 .995167 .569463
2 1 .991096 .612094 .504933
3 1 .790525 .009396 .473803
4 1 .185756 .021095 .441985
5 1 .006751 .630816 .481020
6 1 .488223 .431612 .986021
7 1 .500812 .475006 .013066
ITEM: TIMESTEP
200
ITEM: NUMBER OF ATOMS
7
ITEM: BOX BOUNDS ss ss ss
-2.9772 3.3801
-2.6270 3.3518
-1.9740 2.0146
ITEM: ATOMS id type xs ys zs
1 1 .506947 .993225 .569647
2 1 .989441 .608086 .501726
3 1 .787086 .006145 .476297
4 1 .184432 .019526 .443111
5 1 .009667 .631853 .483381
6 1 .487967 .430142 .983921
7 1 .499480 .474462 .012518
ITEM: TIMESTEP
250
ITEM: NUMBER OF ATOMS
7
ITEM: BOX BOUNDS ss ss ss
-2.9771 3.3747
-2.6320 3.3509
-1.9740 2.0051
ITEM: ATOMS id type xs ys zs
1 1 .504866 .994921 .569399
2 1 .988535 .613234 .508017
3 1 .792700 .011783 .475110
4 1 .188035 .023191 .443279
5 1 .008926 .633188 .483424
6 1 .489634 .434370 .988461
7 1 .502117 .476116 .013978
ITEM: TIMESTEP
300
ITEM: NUMBER OF ATOMS
7
ITEM: BOX BOUNDS ss ss ss
-2.9767 3.3704
-2.6327 3.3564
-1.9677 2.0019
ITEM: ATOMS id type xs ys zs
1 1 .507852 .995493 .568170
2 1 .989094 .611937 .510559
3 1 .793458 .012771 .473813
4 1 .187720 .022259 .443213
5 1 .008931 .632728 .482224
6 1 .488508 .433350 .989110
7 1 .500985 .476081 .013458
ITEM: TIMESTEP
350
ITEM: NUMBER OF ATOMS
7
ITEM: BOX BOUNDS ss ss ss
-2.9626 3.3819
-2.6360 3.3560
-1.9687 2.0096
ITEM: ATOMS id type xs ys zs
1 1 .506852 .993069 .567104
2 1 .988509 .607213 .505062
3 1 .786637 .008546 .475381
4 1 .185485 .020190 .441035
5 1 .008829 .631462 .488318
6 1 .486881 .431393 .985128
7 1 .501693 .473192 .009859
ITEM: TIMESTEP
400
ITEM: NUMBER OF ATOMS
7
ITEM: BOX BOUNDS ss ss ss
-2.9595 3.3600
-2.6384 3.3538
-1.9698 2.0026
ITEM: ATOMS id type xs ys zs
1 1 .505370 .996682 .568543
2 1 .991860 .616802 .510708
3 1 .795243 .012314 .474765
4 1 .186936 .022660 .447186
5 1 .009385 .635629 .486458
6 1 .489876 .435118 .987608
7 1 .502240 .477493 .012607
ITEM: TIMESTEP
1
ITEM: NUMBER OF ATOMS
7
ITEM: BOX BOUNDS ss ss ss
-2.9547 3.3535
-2.6364 3.3570
-1.9686 1.9996
ITEM: ATOMS id type xs ys zs
1 1 .504411 .989215 .570948
2 1 .998116 .608947 .499668
3 1 .792026 .010506 .473533
4 1 .184526 .020879 .445991
5 1 .003419 .630614 .479754
6 1 .488720 .429697 .991590
7 1 .501910 .475370 .015823
ITEM: TIMESTEP
50
ITEM: NUMBER OF ATOMS
7
ITEM: BOX BOUNDS ss ss ss
-2.9608 3.3724
-2.6364 3.3570
-1.9686 1.9996
ITEM: ATOMS id type xs ys zs
1 1 .503203 .990372 .570779
2 1 .993319 .608157 .500727
3 1 .788889 .008830 .472271
4 1 .182862 .021591 .447652
5 1 .004393 .631225 .482458
6 1 .488566 .430691 .990708
7 1 .500166 .474970 .015025
ITEM: TIMESTEP
100
ITEM: NUMBER OF ATOMS
7
ITEM: BOX BOUNDS ss ss ss
-2.9714 3.3776
-2.6364 3.3570
-1.9686 1.9996
ITEM: ATOMS id type xs ys zs
1 1 .505346 .990128 .570567
2 1 .992229 .607739 .502654
3 1 .788418 .008186 .472493
4 1 .183224 .020359 .449593
5 1 .007510 .631694 .482433
6 1 .488250 .432044 .989764
7 1 .501061 .474580 .014191
ITEM: TIMESTEP
150
ITEM: NUMBER OF ATOMS
7
ITEM: BOX BOUNDS ss ss ss
-2.9804 3.3806
-2.6364 3.3570
-1.9686 2.0084
ITEM: ATOMS id type xs ys zs
1 1 .508689 .989953 .568097
2 1 .992587 .608457 .502880
3 1 .787417 .009529 .472904
4 1 .186864 .021729 .447786
5 1 .010019 .630850 .483203
6 1 .489382 .431658 .988882
7 1 .501952 .472327 .013057
ITEM: TIMESTEP
200
ITEM: NUMBER OF ATOMS
7
ITEM: BOX BOUNDS ss ss ss
-2.9754 3.3767
-2.6364 3.3570
-1.9686 2.0096
ITEM: ATOMS id type xs ys zs
1 1 .506668 .990637 .570093
2 1 .990010 .609529 .504882
3 1 .791296 .011019 .473207
4 1 .190299 .020446 .445396
5 1 .009603 .629269 .481706
6 1 .486150 .432104 .987840
7 1 .502014 .475305 .009521
ITEM: TIMESTEP
250
ITEM: NUMBER OF ATOMS
7
ITEM: BOX BOUNDS ss ss ss
-2.9742 3.3809
-2.6364 3.3570
-1.9686 2.0065
ITEM: ATOMS id type xs ys zs
1 1 .507078 .991014 .568631
2 1 .991554 .609127 .502963
3 1 .788206 .008875 .471891
4 1 .186638 .019497 .448406
5 1 .010316 .628460 .485673
6 1 .489063 .431185 .988717
7 1 .501243 .473234 .010208
ITEM: TIMESTEP
300
ITEM: NUMBER OF ATOMS
7
ITEM: BOX BOUNDS ss ss ss
-2.9690 3.3723
-2.6288 3.3518
-1.9731 2.0082
ITEM: ATOMS id type xs ys zs
1 1 .509713 .990406 .562004
2 1 .992895 .609137 .501555
3 1 .790786 .010430 .472495
4 1 .188503 .020066 .448657
5 1 .010354 .630994 .485594
6 1 .491291 .431933 .988763
7 1 .501073 .473151 .008618
ITEM: TIMESTEP
350
ITEM: NUMBER OF ATOMS
7
ITEM: BOX BOUNDS ss ss ss
-2.9657 3.3750
-2.6366 3.3518
-1.9786 2.0078
ITEM: ATOMS id type xs ys zs
1 1 .509189 .992664 .563601
2 1 .993051 .608732 .507606
3 1 .788441 .009792 .471268
4 1 .188295 .021754 .450719
5 1 .010138 .630996 .481367
6 1 .490868 .433309 .986694
7 1 .502517 .475067 .009461
ITEM: TIMESTEP
400
ITEM: NUMBER OF ATOMS
7
ITEM: BOX BOUNDS ss ss ss
-2.9803 3.3717
-2.6316 3.3553
-1.9812 2.0094
ITEM: ATOMS id type xs ys zs
1 1 .511019 .991970 .562093
2 1 .992544 .607585 .506315
3 1 .790019 .008576 .474778
4 1 .189498 .021646 .453642
5 1 .012178 .631475 .483956
6 1 .491840 .433226 .986997
7 1 .503407 .472498 .010798
ITEM: TIMESTEP
1
ITEM: NUMBER OF ATOMS
7
ITEM: BOX BOUNDS ss ss ss
-2.9606 3.3720
-2.6346 3.3538
-1.9769 2.0010
ITEM: ATOMS id type xs ys zs
1 1 .503401 .989736 .571675
2 1 .995210 .609157 .500548
3 1 .789899 .010223 .474460
4 1 .184745 .020602 .446994
5 1 .004328 .630846 .480666
6 1 .487766 .429767 .991252
7 1 .500904 .475470 .017848
ITEM: TIMESTEP
50
ITEM: NUMBER OF ATOMS
7
ITEM: BOX BOUNDS ss ss ss
-2.9647 3.3763
-2.6309 3.3538
-1.9769 2.0010
ITEM: ATOMS id type xs ys zs
1 1 .503545 .989751 .572778
2 1 .992287 .610355 .504471
3 1 .789277 .009623 .473567
4 1 .185496 .020456 .447483
5 1 .006064 .631346 .480447
6 1 .487771 .429784 .992673
7 1 .500914 .475234 .016583
ITEM: TIMESTEP
100
ITEM: NUMBER OF ATOMS
7
ITEM: BOX BOUNDS ss ss ss
-2.9747 3.3830
-2.6309 3.3538
-1.9769 2.0017
ITEM: ATOMS id type xs ys zs
1 1 .503728 .989365 .572971
2 1 .988367 .611699 .505287
3 1 .788200 .009799 .473827
4 1 .186633 .022838 .449742
5 1 .007011 .632448 .481892
6 1 .485453 .430494 .990529
7 1 .501422 .476330 .014090
ITEM: TIMESTEP
150
ITEM: NUMBER OF ATOMS
7
ITEM: BOX BOUNDS ss ss ss
-2.9789 3.3821
-2.6309 3.3450
-1.9769 2.0104
ITEM: ATOMS id type xs ys zs
1 1 .503913 .990855 .566299
2 1 .988667 .609641 .505787
3 1 .789915 .010756 .471877
4 1 .188313 .018753 .446300
5 1 .006222 .633048 .477374
6 1 .485851 .429883 .987337
7 1 .500968 .475221 .012737
ITEM: TIMESTEP
200
ITEM: NUMBER OF ATOMS
7
ITEM: BOX BOUNDS ss ss ss
-2.9827 3.3848
-2.6309 3.3450
-1.9769 2.0082
ITEM: ATOMS id type xs ys zs
1 1 .507340 .992237 .571246
2 1 .990620 .611707 .507299
3 1 .785600 .010941 .470377
4 1 .186351 .021121 .448203
5 1 .009949 .632653 .480040
6 1 .488059 .432315 .988436
7 1 .503462 .476875 .012376
ITEM: TIMESTEP
250
ITEM: NUMBER OF ATOMS
7
ITEM: BOX BOUNDS ss ss ss
-2.9804 3.3884
-2.6292 3.3450
-1.9739 2.0075
ITEM: ATOMS id type xs ys zs
1 1 .504351 .992214 .570807
2 1 .988308 .610754 .507993
3 1 .786298 .010510 .466476
4 1 .186026 .018864 .448385
5 1 .009436 .631569 .481213
6 1 .485169 .431261 .987718
7 1 .502478 .477218 .012532
ITEM: TIMESTEP
300
ITEM: NUMBER OF ATOMS
7
ITEM: BOX BOUNDS ss ss ss
-2.9870 3.3816
-2.6278 3.3441
-1.9677 2.0155
ITEM: ATOMS id type xs ys zs
1 1 .507429 .993159 .570528
2 1 .988632 .609907 .505712
3 1 .788921 .010477 .466308
4 1 .185791 .018931 .445677
5 1 .011309 .631202 .481844
6 1 .486816 .430536 .987799
7 1 .503008 .476540 .010154
ITEM: TIMESTEP
350
ITEM: NUMBER OF ATOMS
7
ITEM: BOX BOUNDS ss ss ss
-2.9864 3.3771
-2.6214 3.3453
-1.9737 2.0170
ITEM: ATOMS id type xs ys zs
1 1 .504744 .993325 .571055
2 1 .991543 .609184 .510320
3 1 .788460 .008620 .465205
4 1 .188616 .015034 .447923
5 1 .009947 .628466 .485018
6 1 .488724 .428575 .984995
7 1 .504241 .475951 .013728
ITEM: TIMESTEP
400
ITEM: NUMBER OF ATOMS
7
ITEM: BOX BOUNDS ss ss ss
-2.9821 3.3787
-2.6260 3.3512
-1.9734 2.0196
ITEM: ATOMS id type xs ys zs
1 1 .507244 .993139 .568567
2 1 .989854 .611290 .508339
3 1 .788507 .009205 .467952
4 1 .183557 .018931 .440260
5 1 .009941 .631455 .478885
6 1 .487632 .429676 .981256
7 1 .503614 .475950 .007684
ITEM: TIMESTEP
1
ITEM: NUMBER OF ATOMS
7
ITEM: BOX BOUNDS ss ss ss
-2.9659 3.3561
-2.6116 3.3515
-1.9709 2.0174
ITEM: ATOMS id type xs ys zs
1 1 .505087 .990072 .568667
2 1 .997725 .607889 .497720
3 1 .792082 .006417 .471719
4 1 .185901 .016839 .444302
5 1 .005179 .629674 .477875
6 1 .489427 .427731 .987147
7 1 .502580 .473624 .016309
ITEM: TIMESTEP
50
ITEM: NUMBER OF ATOMS
7
ITEM: BOX BOUNDS ss ss ss
-2.9659 3.3723
-2.6116 3.3515
-1.9709 2.0174
ITEM: ATOMS id type xs ys zs
1 1 .504870 .991324 .568321
2 1 .992753 .607956 .499656
3 1 .790666 .005903 .469467
4 1 .185419 .018712 .445786
5 1 .004940 .629512 .480769
6 1 .488777 .427742 .988237
7 1 .501210 .472028 .014068
ITEM: TIMESTEP
100
ITEM: NUMBER OF ATOMS
7
ITEM: BOX BOUNDS ss ss ss
-2.9813 3.3810
-2.6116 3.3515
-1.9709 2.0174
ITEM: ATOMS id type xs ys zs
1 1 .505805 .992231 .566090
2 1 .991784 .609047 .503448
3 1 .789210 .004811 .468765
4 1 .188598 .017862 .446281
5 1 .007513 .628950 .483212
6 1 .489105 .427243 .988334
7 1 .502369 .472235 .012997
ITEM: TIMESTEP
150
ITEM: NUMBER OF ATOMS
7
ITEM: BOX BOUNDS ss ss ss
-2.9828 3.3902
-2.6160 3.3515
-1.9709 2.0174
ITEM: ATOMS id type xs ys zs
1 1 .505661 .992074 .566106
2 1 .990858 .608863 .507713
3 1 .788285 .006337 .465975
4 1 .189647 .018863 .444759
5 1 .008242 .630627 .484408
6 1 .490019 .429174 .988056
7 1 .501848 .474391 .016594
ITEM: TIMESTEP
200
ITEM: NUMBER OF ATOMS
7
ITEM: BOX BOUNDS ss ss ss
-2.9857 3.3852
-2.6188 3.3515
-1.9709 2.0174
ITEM: ATOMS id type xs ys zs
1 1 .504640 .993234 .565862
2 1 .991103 .607868 .508982
3 1 .789204 .005163 .463560
4 1 .190481 .019575 .447462
5 1 .007587 .630910 .484820
6 1 .491180 .429178 .984807
7 1 .501654 .475813 .013931
ITEM: TIMESTEP
250
ITEM: NUMBER OF ATOMS
7
ITEM: BOX BOUNDS ss ss ss
-2.9781 3.3732
-2.6312 3.3515
-1.9709 2.0174
ITEM: ATOMS id type xs ys zs
1 1 .507087 .993746 .568397
2 1 .992521 .607905 .508754
3 1 .789595 .006613 .464534
4 1 .188356 .022109 .448405
5 1 .007594 .630838 .486350
6 1 .493250 .430759 .984511
7 1 .501783 .477592 .012440
ITEM: TIMESTEP
300
ITEM: NUMBER OF ATOMS
7
ITEM: BOX BOUNDS ss ss ss
-2.9801 3.3773
-2.6267 3.3515
-1.9709 2.0128
ITEM: ATOMS id type xs ys zs
1 1 .505087 .993082 .567575
2 1 .990408 .607157 .508522
3 1 .789061 .006704 .465967
4 1 .189493 .021535 .451238
5 1 .008255 .630753 .487362
6 1 .491262 .430630 .985069
7 1 .501067 .476848 .010317
ITEM: TIMESTEP
350
ITEM: NUMBER OF ATOMS
7
ITEM: BOX BOUNDS ss ss ss
-2.9765 3.3688
-2.6417 3.3615
-1.9709 2.0189
ITEM: ATOMS id type xs ys zs
1 1 .503754 .989328 .566082
2 1 .987392 .607183 .505955
3 1 .790440 .011818 .462844
4 1 .188546 .022501 .447383
5 1 .008592 .629164 .481787
6 1 .490072 .430925 .986186
7 1 .500997 .475518 .006234
ITEM: TIMESTEP
400
ITEM: NUMBER OF ATOMS
7
ITEM: BOX BOUNDS ss ss ss
-2.9852 3.3650
-2.6406 3.3521
-1.9734 2.0123
ITEM: ATOMS id type xs ys zs
1 1 .509445 .993701 .563928
2 1 .993802 .606014 .514549
3 1 .790488 .007578 .468951
4 1 .188208 .022180 .445423
5 1 .010137 .629520 .483920
6 1 .493330 .432610 .985187
7 1 .503040 .474864 .012276
ITEM: TIMESTEP
1
ITEM: NUMBER OF ATOMS
7
ITEM: BOX BOUNDS ss ss ss
-2.9663 3.3591
-2.6267 3.3515
-1.9775 2.0090
ITEM: ATOMS id type xs ys zs
1 1 .504874 .990098 .570575
2 1 .997245 .608872 .499610
3 1 .791698 .008916 .473589
4 1 .185861 .019314 .446160
5 1 .005224 .630603 .479755
6 1 .489229 .429167 .989264
7 1 .502370 .474952 .017977
ITEM: TIMESTEP
50
ITEM: NUMBER OF ATOMS
7
ITEM: BOX BOUNDS ss ss ss
-2.9663 3.3767
-2.6267 3.3515
-1.9775 2.0090
ITEM: ATOMS id type xs ys zs
1 1 .503451 .989687 .568612
2 1 .993104 .608611 .499811
3 1 .789941 .008769 .472771
4 1 .186059 .019944 .444273
5 1 .005847 .630234 .481912
6 1 .488286 .429551 .989112
7 1 .501446 .474915 .017140
ITEM: TIMESTEP
100
ITEM: NUMBER OF ATOMS
7
ITEM: BOX BOUNDS ss ss ss
-2.9756 3.3868
-2.6267 3.3515
-1.9775 2.0090
ITEM: ATOMS id type xs ys zs
1 1 .504052 .991163 .568034
2 1 .991926 .607951 .498996
3 1 .789140 .007791 .470425
4 1 .187143 .018269 .442033
5 1 .007488 .630634 .478805
6 1 .488497 .429866 .986151
7 1 .501590 .472671 .014236
ITEM: TIMESTEP
150
ITEM: NUMBER OF ATOMS
7
ITEM: BOX BOUNDS ss ss ss
-2.9821 3.3879
-2.6267 3.3515
-1.9775 2.0138
ITEM: ATOMS id type xs ys zs
1 1 .505607 .992064 .567634
2 1 .990775 .607819 .498725
3 1 .789350 .008286 .471979
4 1 .189205 .018815 .441127
5 1 .008863 .629346 .478622
6 1 .489402 .430148 .984300
7 1 .503182 .473343 .013658
ITEM: TIMESTEP
200
ITEM: NUMBER OF ATOMS
7
ITEM: BOX BOUNDS ss ss ss
-2.9866 3.3908
-2.6267 3.3515
-1.9775 2.0120
ITEM: ATOMS id type xs ys zs
1 1 .505724 .988977 .569130
2 1 .989440 .606842 .501002
3 1 .788640 .006840 .472339
4 1 .189684 .019166 .443535
5 1 .008681 .631154 .478374
6 1 .489264 .427932 .983576
7 1 .500381 .472469 .012003
ITEM: TIMESTEP
250
ITEM: NUMBER OF ATOMS
7
ITEM: BOX BOUNDS ss ss ss
-2.9832 3.3837
-2.6267 3.3515
-1.9775 2.0187
ITEM: ATOMS id type xs ys zs
1 1 .507285 .987593 .568983
2 1 .991942 .606268 .500094
3 1 .789949 .005155 .469480
4 1 .189153 .019011 .440723
5 1 .009614 .630903 .479063
6 1 .490036 .428407 .980459
7 1 .503087 .471099 .012020
ITEM: TIMESTEP
300
ITEM: NUMBER OF ATOMS
7
ITEM: BOX BOUNDS ss ss ss
-2.9695 3.3809
-2.6293 3.3515
-1.9775 2.0211
ITEM: ATOMS id type xs ys zs
1 1 .507571 .989326 .568783
2 1 .992828 .605010 .498410
3 1 .788894 .005687 .469323
4 1 .185574 .019100 .441057
5 1 .008880 .629780 .478974
6 1 .491686 .428007 .979210
7 1 .501827 .472304 .011327
ITEM: TIMESTEP
350
ITEM: NUMBER OF ATOMS
7
ITEM: BOX BOUNDS ss ss ss
-2.9881 3.3792
-2.6320 3.3515
-1.9775 2.0180
ITEM: ATOMS id type xs ys zs
1 1 .504926 .993178 .572355
2 1 .989630 .611692 .499127
3 1 .790313 .007408 .466968
4 1 .188180 .020803 .449682
5 1 .008463 .630191 .486011
6 1 .491250 .430800 .983371
7 1 .501226 .477145 .017107
ITEM: TIMESTEP
400
ITEM: NUMBER OF ATOMS
7
ITEM: BOX BOUNDS ss ss ss
-2.9758 3.3836
-2.6340 3.3515
-1.9775 2.0109
ITEM: ATOMS id type xs ys zs
1 1 .503245 .994489 .576166
2 1 .990617 .609869 .503506
3 1 .790376 .009360 .465194
4 1 .189191 .020495 .453736
5 1 .007891 .631889 .488642
6 1 .489230 .431254 .979840
7 1 .501252 .476779 .014550
ITEM: TIMESTEP
1
ITEM: NUMBER OF ATOMS
7
ITEM: BOX BOUNDS ss ss ss
-2.9745 3.3805
-2.6372 3.3515
-1.9800 2.0022
ITEM: ATOMS id type xs ys zs
1 1 .503830 .990111 .571799
2 1 .993885 .609549 .500785
3 1 .789316 .010647 .474739
4 1 .186293 .021026 .447299
5 1 .006504 .631242 .480944
6 1 .488233 .430162 .990936
7 1 .501329 .475863 .018622
ITEM: TIMESTEP
50
ITEM: NUMBER OF ATOMS
7
ITEM: BOX BOUNDS ss ss ss
-2.9745 3.3805
-2.6372 3.3515
-1.9800 2.0022
ITEM: ATOMS id type xs ys zs
1 1 .505479 .990621 .572720
2 1 .993337 .609446 .503671
3 1 .788278 .010612 .474360
4 1 .186614 .022222 .448296
5 1 .006049 .632572 .482067
6 1 .488455 .430839 .989957
7 1 .501304 .476636 .016416
ITEM: TIMESTEP
100
ITEM: NUMBER OF ATOMS
7
ITEM: BOX BOUNDS ss ss ss
-2.9783 3.3875
-2.6372 3.3515
-1.9800 2.0093
ITEM: ATOMS id type xs ys zs
1 1 .506540 .990273 .568349
2 1 .990666 .610187 .501971
3 1 .788951 .010736 .471201
4 1 .185892 .022344 .447209
5 1 .008667 .631893 .479177
6 1 .489267 .430315 .990042
7 1 .501887 .473992 .015405
ITEM: TIMESTEP
150
ITEM: NUMBER OF ATOMS
7
ITEM: BOX BOUNDS ss ss ss
-2.9879 3.3864
-2.6372 3.3515
-1.9800 2.0164
ITEM: ATOMS id type xs ys zs
1 1 .506309 .990867 .572406
2 1 .990539 .611807 .503920
3 1 .789067 .014100 .473384
4 1 .187564 .020032 .447664
5 1 .011899 .629207 .478972
6 1 .486667 .429903 .985064
7 1 .500882 .476562 .012097
ITEM: TIMESTEP
200
ITEM: NUMBER OF ATOMS
7
ITEM: BOX BOUNDS ss ss ss
-2.9862 3.3855
-2.6359 3.3515
-1.9753 2.0103
ITEM: ATOMS id type xs ys zs
1 1 .505067 .991849 .573708
2 1 .990480 .613590 .506826
3 1 .789178 .012347 .476143
4 1 .188043 .020001 .448164
5 1 .011861 .629199 .480124
6 1 .486279 .431924 .986620
7 1 .500332 .476123 .010014
ITEM: TIMESTEP
250
ITEM: NUMBER OF ATOMS
7
ITEM: BOX BOUNDS ss ss ss
-2.9779 3.3826
-2.6359 3.3515
-1.9753 2.0081
ITEM: ATOMS id type xs ys zs
1 1 .504932 .990123 .574149
2 1 .990542 .613423 .511087
3 1 .789892 .010229 .475418
4 1 .187630 .020183 .446516
5 1 .011182 .629143 .479733
6 1 .487143 .433073 .986255
7 1 .500521 .476109 .009474
ITEM: TIMESTEP
300
ITEM: NUMBER OF ATOMS
7
ITEM: BOX BOUNDS ss ss ss
-2.9729 3.3795
-2.6359 3.3515
-1.9830 2.0233
ITEM: ATOMS id type xs ys zs
1 1 .504632 .991117 .574245
2 1 .988688 .612272 .505411
3 1 .790299 .012053 .470572
4 1 .187478 .019630 .451000
5 1 .009290 .626036 .479673
6 1 .487680 .430943 .985426
7 1 .502886 .475229 .014582
ITEM: TIMESTEP
350
ITEM: NUMBER OF ATOMS
7
ITEM: BOX BOUNDS ss ss ss
-2.9710 3.3849
-2.6346 3.3515
-1.9868 2.0186
ITEM: ATOMS id type xs ys zs
1 1 .506104 .990236 .575451
2 1 .987404 .610892 .506004
3 1 .787977 .011095 .472790
4 1 .187518 .019228 .447539
5 1 .008262 .626532 .482901
6 1 .487426 .428413 .985513
7 1 .500219 .475676 .012590
ITEM: TIMESTEP
400
ITEM: NUMBER OF ATOMS
7
ITEM: BOX BOUNDS ss ss ss
-2.9690 3.3739
-2.6346 3.3515
-2.0018 2.0190
ITEM: ATOMS id type xs ys zs
1 1 .504913 .991552 .574357
2 1 .986979 .613531 .511985
3 1 .790669 .013279 .471878
4 1 .187960 .019340 .455636
5 1 .007854 .626433 .483086
6 1 .485865 .429445 .986128
7 1 .502548 .477029 .015598
ITEM: TIMESTEP
1
ITEM: NUMBER OF ATOMS
7
ITEM: BOX BOUNDS ss ss ss
-2.9548 3.3650
-2.6346 3.3515
-2.0071 2.0085
ITEM: ATOMS id type xs ys zs
1 1 .503505 .990123 .573791
2 1 .996288 .609398 .503377
3 1 .790602 .010225 .477530
4 1 .184202 .020620 .450306
5 1 .003431 .631094 .483663
6 1 .487843 .429922 .989453
7 1 .501002 .475647 .025217
ITEM: TIMESTEP
50
ITEM: NUMBER OF ATOMS
7
ITEM: BOX BOUNDS ss ss ss
-2.9698 3.3768
-2.6346 3.3515
-2.0071 2.0085
ITEM: ATOMS id type xs ys zs
1 1 .503440 .992236 .574623
2 1 .993531 .611259 .506905
3 1 .789236 .012254 .475810
4 1 .185838 .020344 .450616
5 1 .004859 .630441 .485952
6 1 .489156 .430841 .990827
7 1 .501572 .476067 .021941
ITEM: TIMESTEP
100
ITEM: NUMBER OF ATOMS
7
ITEM: BOX BOUNDS ss ss ss
-2.9776 3.3900
-2.6346 3.3515
-2.0071 2.0085
ITEM: ATOMS id type xs ys zs
1 1 .503923 .991745 .576856
2 1 .992384 .611064 .511031
3 1 .789572 .009438 .476990
4 1 .186441 .021474 .449911
5 1 .007569 .633238 .485954
6 1 .489216 .431779 .989550
7 1 .502215 .475847 .025997
ITEM: TIMESTEP
150
ITEM: NUMBER OF ATOMS
7
ITEM: BOX BOUNDS ss ss ss
-2.9916 3.3906
-2.6346 3.3515
-2.0037 2.0183
ITEM: ATOMS id type xs ys zs
1 1 .505301 .992718 .571910
2 1 .992258 .612536 .507133
3 1 .789462 .010208 .475001
4 1 .188611 .019303 .450142
5 1 .011843 .632740 .483553
6 1 .490699 .432213 .986941
7 1 .502292 .476215 .025330
ITEM: TIMESTEP
200
ITEM: NUMBER OF ATOMS
7
ITEM: BOX BOUNDS ss ss ss
-2.9864 3.4039
-2.6346 3.3515
-2.0037 2.0170
ITEM: ATOMS id type xs ys zs
1 1 .503110 .993424 .572015
2 1 .987809 .612531 .506124
3 1 .788758 .011337 .475539
4 1 .188892 .019301 .453421
5 1 .010355 .632790 .482880
6 1 .488232 .432890 .987231
7 1 .501032 .475761 .022228
ITEM: TIMESTEP
250
ITEM: NUMBER OF ATOMS
7
ITEM: BOX BOUNDS ss ss ss
-2.9852 3.3908
-2.6346 3.3515
-1.9960 2.0139
ITEM: ATOMS id type xs ys zs
1 1 .502507 .995671 .572287
2 1 .986815 .612080 .508164
3 1 .791329 .010417 .474096
4 1 .189418 .020786 .449409
5 1 .009942 .632966 .481309
6 1 .487959 .435100 .987814
7 1 .503186 .476020 .023748
ITEM: TIMESTEP
300
ITEM: NUMBER OF ATOMS
7
ITEM: BOX BOUNDS ss ss ss
-2.9819 3.4000
-2.6373 3.3524
-1.9960 2.0197
ITEM: ATOMS id type xs ys zs
1 1 .504495 .992381 .575042
2 1 .988557 .613337 .511712
3 1 .790163 .011736 .472378
4 1 .189262 .022643 .451646
5 1 .008903 .632142 .481427
6 1 .488734 .434054 .988060
7 1 .501653 .474393 .019561
ITEM: TIMESTEP
350
ITEM: NUMBER OF ATOMS
7
ITEM: BOX BOUNDS ss ss ss
-2.9781 3.3891
-2.6346 3.3529
-1.9960 2.0250
ITEM: ATOMS id type xs ys zs
1 1 .506213 .992637 .574701
2 1 .989741 .614279 .509908
3 1 .791462 .013084 .471756
4 1 .190598 .022156 .452520
5 1 .009258 .633599 .482209
6 1 .489327 .431762 .985094
7 1 .502309 .476483 .019908
ITEM: TIMESTEP
400
ITEM: NUMBER OF ATOMS
7
ITEM: BOX BOUNDS ss ss ss
-2.9764 3.3778
-2.6346 3.3526
-1.9753 2.0122
ITEM: ATOMS id type xs ys zs
1 1 .502266 .992098 .569698
2 1 .991554 .612927 .508730
3 1 .794646 .012270 .467719
4 1 .192497 .021723 .447817
5 1 .009460 .628512 .479827
6 1 .491434 .434351 .989220
7 1 .503469 .476844 .012970
ITEM: TIMESTEP
1
ITEM: NUMBER OF ATOMS
7
ITEM: BOX BOUNDS ss ss ss
-2.9675 3.3737
-2.6086 3.3467
-1.9609 2.0112
ITEM: ATOMS id type xs ys zs
1 1 .503804 .990870 .568448
2 1 .994949 .608192 .497220
3 1 .789921 .005909 .471123
4 1 .185584 .016358 .443598
5 1 .005417 .629994 .477320
6 1 .488209 .427785 .988660
7 1 .501318 .473757 .013865
ITEM: TIMESTEP
50
ITEM: NUMBER OF ATOMS
7
ITEM: BOX BOUNDS ss ss ss
-2.9675 3.3762
-2.6086 3.3467
-1.9609 2.0112
ITEM: ATOMS id type xs ys zs
1 1 .504148 .991853 .567603
2 1 .993471 .607379 .497923
3 1 .790512 .005238 .469389
4 1 .186050 .017054 .442950
5 1 .006373 .630212 .477778
6 1 .488439 .427289 .985859
7 1 .502749 .473596 .012213
ITEM: TIMESTEP
100
ITEM: NUMBER OF ATOMS
7
ITEM: BOX BOUNDS ss ss ss
-2.9761 3.3872
-2.6140 3.3467
-1.9609 2.0112
ITEM: ATOMS id type xs ys zs
1 1 .503302 .988639 .567396
2 1 .992109 .609198 .501480
3 1 .788414 .005030 .468575
4 1 .185712 .017775 .443342
5 1 .007919 .629514 .475958
6 1 .488660 .426299 .984861
7 1 .503912 .474353 .008796
ITEM: TIMESTEP
150
ITEM: NUMBER OF ATOMS
7
ITEM: BOX BOUNDS ss ss ss
-2.9872 3.4074
-2.6226 3.3467
-1.9609 2.0112
ITEM: ATOMS id type xs ys zs
1 1 .501199 .990245 .567376
2 1 .987747 .609011 .500264
3 1 .786546 .006677 .469495
4 1 .187168 .018136 .440559
5 1 .009038 .629105 .477725
6 1 .487636 .428983 .983686
7 1 .501032 .473219 .007857
ITEM: TIMESTEP
200
ITEM: NUMBER OF ATOMS
7
ITEM: BOX BOUNDS ss ss ss
-2.9893 3.3950
-2.6209 3.3467
-1.9637 2.0196
ITEM: ATOMS id type xs ys zs
1 1 .502598 .991130 .567977
2 1 .988107 .612076 .502923
3 1 .788367 .006977 .470902
4 1 .187188 .019785 .443460
5 1 .011802 .629828 .476538
6 1 .487029 .427898 .982935
7 1 .503783 .473149 .008973
ITEM: TIMESTEP
250
ITEM: NUMBER OF ATOMS
7
ITEM: BOX BOUNDS ss ss ss
-2.9802 3.3868
-2.6197 3.3457
-1.9674 2.0112
ITEM: ATOMS id type xs ys zs
1 1 .502309 .990431 .564381
2 1 .987212 .613243 .503674
3 1 .788805 .008040 .470256
4 1 .186072 .020126 .445365
5 1 .010877 .629957 .478804
6 1 .488522 .427026 .982920
7 1 .503160 .472808 .008369
ITEM: TIMESTEP
300
ITEM: NUMBER OF ATOMS
7
ITEM: BOX BOUNDS ss ss ss
-2.9743 3.3760
-2.6238 3.3457
-1.9713 2.0028
ITEM: ATOMS id type xs ys zs
1 1 .504000 .991515 .564742
2 1 .987582 .612414 .505014
3 1 .790313 .007610 .471730
4 1 .186528 .020628 .444949
5 1 .010147 .628726 .480655
6 1 .489112 .427627 .986176
7 1 .503950 .471453 .010358
ITEM: TIMESTEP
350
ITEM: NUMBER OF ATOMS
7
ITEM: BOX BOUNDS ss ss ss
-2.9680 3.3719
-2.6308 3.3457
-1.9825 2.0028
ITEM: ATOMS id type xs ys zs
1 1 .502807 .991015 .568639
2 1 .987153 .612792 .509577
3 1 .789512 .008330 .476673
4 1 .185083 .022321 .446428
5 1 .008586 .630526 .480885
6 1 .488431 .429154 .987801
7 1 .504021 .474311 .013009
ITEM: TIMESTEP
400
ITEM: NUMBER OF ATOMS
7
ITEM: BOX BOUNDS ss ss ss
-2.9791 3.3664
-2.6300 3.3457
-1.9890 1.9984
ITEM: ATOMS id type xs ys zs
1 1 .503949 .993115 .572134
2 1 .990658 .610570 .513278
3 1 .790561 .006592 .477288
4 1 .188096 .021199 .448663
5 1 .009685 .632102 .481027
6 1 .489790 .431800 .990623
7 1 .505193 .473091 .011209
ITEM: TIMESTEP
1
ITEM: NUMBER OF ATOMS
7
ITEM: BOX BOUNDS ss ss ss
-2.9607 3.3679
-2.6276 3.3490
-1.9910 1.9996
ITEM: ATOMS id type xs ys zs
1 1 .503742 .990529 .573360
2 1 .995844 .609212 .502462
3 1 .790420 .009057 .476463
4 1 .184888 .019467 .449085
5 1 .004356 .630912 .482640
6 1 .488092 .429436 .991601
7 1 .501237 .475233 .021312
ITEM: TIMESTEP
50
ITEM: NUMBER OF ATOMS
7
ITEM: BOX BOUNDS ss ss ss
-2.9651 3.3756
-2.6276 3.3490
-1.9910 1.9996
ITEM: ATOMS id type xs ys zs
1 1 .505053 .990941 .572893
2 1 .994942 .608535 .504948
3 1 .789890 .007948 .477001
4 1 .185509 .018699 .448866
5 1 .005056 .629679 .484964
6 1 .488894 .429536 .992439
7 1 .500686 .475142 .020809
ITEM: TIMESTEP
100
ITEM: NUMBER OF ATOMS
7
ITEM: BOX BOUNDS ss ss ss
-2.9802 3.3873
-2.6276 3.3418
-1.9910 2.0071
ITEM: ATOMS id type xs ys zs
1 1 .504432 .994023 .573117
2 1 .991856 .611753 .503848
3 1 .788900 .007513 .474339
4 1 .187178 .019255 .448547
5 1 .007867 .631372 .482312
6 1 .490088 .432289 .987055
7 1 .502085 .473707 .019690
ITEM: TIMESTEP
150
ITEM: NUMBER OF ATOMS
7
ITEM: BOX BOUNDS ss ss ss
-2.9894 3.3928
-2.6276 3.3418
-1.9910 2.0132
ITEM: ATOMS id type xs ys zs
1 1 .508126 .990697 .571449
2 1 .989929 .611433 .502959
3 1 .787377 .008123 .477597
4 1 .189601 .020326 .449900
5 1 .009973 .633819 .483558
6 1 .485933 .432324 .988799
7 1 .502740 .475536 .015368
ITEM: TIMESTEP
200
ITEM: NUMBER OF ATOMS
7
ITEM: BOX BOUNDS ss ss ss
-2.9959 3.3975
-2.6276 3.3551
-1.9910 2.0157
ITEM: ATOMS id type xs ys zs
1 1 .508019 .989502 .571448
2 1 .989327 .610358 .502170
3 1 .787109 .009895 .476480
4 1 .189779 .020324 .449774
5 1 .011843 .632018 .482228
6 1 .485124 .431048 .986599
7 1 .501393 .475496 .015308
ITEM: TIMESTEP
250
ITEM: NUMBER OF ATOMS
7
ITEM: BOX BOUNDS ss ss ss
-2.9866 3.3980
-2.6381 3.3466
-1.9910 2.0226
ITEM: ATOMS id type xs ys zs
1 1 .505177 .994342 .567288
2 1 .990711 .614515 .504734
3 1 .788523 .012025 .472918
4 1 .185970 .021679 .448044
5 1 .009443 .632778 .477135
6 1 .489103 .434087 .983185
7 1 .503840 .475033 .020221
ITEM: TIMESTEP
300
ITEM: NUMBER OF ATOMS
7
ITEM: BOX BOUNDS ss ss ss
-2.9892 3.3905
-2.6338 3.3500
-1.9805 2.0202
ITEM: ATOMS id type xs ys zs
1 1 .506700 .990831 .568167
2 1 .992220 .612455 .507962
3 1 .785664 .008155 .474397
4 1 .184400 .023171 .441291
5 1 .009815 .634270 .479593
6 1 .485262 .431784 .986129
7 1 .502984 .474408 .016901
ITEM: TIMESTEP
350
ITEM: NUMBER OF ATOMS
7
ITEM: BOX BOUNDS ss ss ss
-2.9929 3.3952
-2.6239 3.3549
-1.9776 2.0270
ITEM: ATOMS id type xs ys zs
1 1 .508655 .989835 .566340