ITEM: TIMESTEP
1
ITEM: NUMBER OF ATOMS
7
ITEM: BOX BOUNDS ss ss ss
-2.9375 3.3464
-2.5770 3.2956
-1.9089 1.9704
ITEM: ATOMS id type xs ys zs
1 1 .503586 .999398 .568721
2 1 .999365 .611337 .495535
3 1 .792347 .000634 .469048
4 1 .182491 .011184 .440818
5 1 .000616 .633497 .475188
6 1 .487855 .428390 .998994
7 1 .501099 .475068 .000938
ITEM: TIMESTEP
50
ITEM: NUMBER OF ATOMS
7
ITEM: BOX BOUNDS ss ss ss
-2.9650 3.3701
-2.6014 3.3159
-1.9331 1.9955
ITEM: ATOMS id type xs ys zs
1 1 .503876 .995887 .568217
2 1 .995803 .610848 .494916
3 1 .790308 .004811 .469431
4 1 .185337 .015275 .441469
5 1 .004767 .632839 .475048
6 1 .488227 .429307 .992685
7 1 .501435 .475611 .007205
ITEM: TIMESTEP
100
ITEM: NUMBER OF ATOMS
7
ITEM: BOX BOUNDS ss ss ss
-2.9719 3.3829
-2.6089 3.3292
-1.9431 2.0002
ITEM: ATOMS id type xs ys zs
1 1 .503718 .993762 .569215
2 1 .993468 .610189 .495576
3 1 .789014 .005890 .470304
4 1 .185859 .016612 .442467
5 1 .005918 .631757 .475919
6 1 .487690 .429262 .991095
7 1 .501026 .474995 .009101
ITEM: TIMESTEP
150
ITEM: NUMBER OF ATOMS
7
ITEM: BOX BOUNDS ss ss ss
-2.9792 3.3877
-2.6170 3.3477
-1.9522 2.0051
ITEM: ATOMS id type xs ys zs
1 1 .504577 .991086 .569998
2 1 .991733 .609178 .496538
3 1 .788721 .006968 .470849
4 1 .186404 .017921 .443385
5 1 .007459 .630454 .476717
6 1 .487687 .428822 .989143
7 1 .501081 .473848 .010324
ITEM: TIMESTEP
200
ITEM: NUMBER OF ATOMS
7
ITEM: BOX BOUNDS ss ss ss
-2.9717 3.3802
-2.6250 3.3407
-1.9595 2.0063
ITEM: ATOMS id type xs ys zs
1 1 .505361 .993099 .571536
2 1 .991256 .610986 .498504
3 1 .789321 .007740 .472106
4 1 .185245 .018837 .444400
5 1 .007092 .632335 .477727
6 1 .487186 .430029 .987258
7 1 .500867 .474865 .010675
ITEM: TIMESTEP
250
ITEM: NUMBER OF ATOMS
7
ITEM: BOX BOUNDS ss ss ss
-2.9783 3.3729
-2.6216 3.3528
-1.9674 2.0060
ITEM: ATOMS id type xs ys zs
1 1 .507042 .991947 .573872
2 1 .990945 .609845 .500853
3 1 .790000 .006610 .474237
4 1 .186070 .017815 .445007
5 1 .009086 .631441 .478727
6 1 .487740 .428776 .985775
7 1 .501887 .473508 .011178
ITEM: TIMESTEP
300
ITEM: NUMBER OF ATOMS
7
ITEM: BOX BOUNDS ss ss ss
-2.9714 3.3680
-2.6326 3.3603
-1.9709 2.0113
ITEM: ATOMS id type xs ys zs
1 1 .507260 .991071 .573926
2 1 .990891 .609813 .501523
3 1 .790094 .008217 .474721
4 1 .185318 .019585 .444358
5 1 .008569 .631402 .478633
6 1 .487346 .429328 .984173
7 1 .501766 .473757 .011152
ITEM: TIMESTEP
350
ITEM: NUMBER OF ATOMS
7
ITEM: BOX BOUNDS ss ss ss
-2.9672 3.3650
-2.6481 3.3594
-1.9847 1.9946
ITEM: ATOMS id type xs ys zs
1 1 .507437 .991355 .577384
2 1 .990836 .610839 .506112
3 1 .790172 .010671 .478596
4 1 .185028 .022209 .447548
5 1 .008426 .632449 .483270
6 1 .487316 .430915 .988548
7 1 .501713 .474933 .013987
ITEM: TIMESTEP
400
ITEM: NUMBER OF ATOMS
7
ITEM: BOX BOUNDS ss ss ss
-2.9665 3.3544
-2.6369 3.3720
-1.9736 2.0050
ITEM: ATOMS id type xs ys zs
1 1 .508284 .989134 .573763
2 1 .992201 .608756 .503661
3 1 .791506 .008740 .475626
4 1 .185458 .020466 .444369
5 1 .008911 .630368 .481902
6 1 .488522 .428903 .986290
7 1 .502587 .472648 .010556
ITEM: TIMESTEP
1
ITEM: NUMBER OF ATOMS
7
ITEM: BOX BOUNDS ss ss ss
-2.9584 3.3539
-2.6270 3.3518
-1.9740 2.0019
ITEM: ATOMS id type xs ys zs
1 1 .504631 .990021 .571277
2 1 .998182 .608849 .499864
3 1 .792093 .008987 .474024
4 1 .184984 .019349 .446476
5 1 .003926 .630612 .480012
6 1 .488970 .429143 .991093
7 1 .502157 .474995 .017297
ITEM: TIMESTEP
50
ITEM: NUMBER OF ATOMS
7
ITEM: BOX BOUNDS ss ss ss
-2.9614 3.3716
-2.6270 3.3518
-1.9740 2.0019
ITEM: ATOMS id type xs ys zs
1 1 .503455 .989907 .571773
2 1 .995710 .608848 .499171
3 1 .790016 .009079 .474187
4 1 .184801 .019374 .446513
5 1 .004183 .630622 .479546
6 1 .487792 .429145 .991221
7 1 .501044 .475013 .017552
ITEM: TIMESTEP
100
ITEM: NUMBER OF ATOMS
7
ITEM: BOX BOUNDS ss ss ss
-2.9707 3.3870
-2.6270 3.3518
-1.9740 2.0019
ITEM: ATOMS id type xs ys zs
1 1 .503282 .989911 .572520
2 1 .993045 .609000 .499051
3 1 .788446 .009017 .474431
4 1 .185510 .019515 .446540
5 1 .005594 .630483 .479436
6 1 .487271 .429342 .990891
7 1 .500633 .474781 .016930
ITEM: TIMESTEP
150
ITEM: NUMBER OF ATOMS
7
ITEM: BOX BOUNDS ss ss ss
-2.9764 3.3807
-2.6270 3.3518
-1.9740 2.0066
ITEM: ATOMS id type xs ys zs
1 1 .504647 .989985 .572566
2 1 .993447 .609105 .498827
3 1 .789361 .008786 .474257
4 1 .186379 .019652 .446143
5 1 .006773 .630362 .479014
6 1 .488232 .429501 .989270
7 1 .501553 .474604 .015954
ITEM: TIMESTEP
200
ITEM: NUMBER OF ATOMS
7
ITEM: BOX BOUNDS ss ss ss
-2.9772 3.3801
-2.6270 3.3518
-1.9740 2.0146
ITEM: ATOMS id type xs ys zs
1 1 .505156 .990276 .571962
2 1 .992857 .609220 .498552
3 1 .789371 .008453 .473480
4 1 .186345 .019805 .445049
5 1 .007252 .630368 .478342
6 1 .488436 .429444 .986871
7 1 .501691 .474545 .015068
ITEM: TIMESTEP
250
ITEM: NUMBER OF ATOMS
7
ITEM: BOX BOUNDS ss ss ss
-2.9771 3.3747
-2.6320 3.3509
-1.9740 2.0051
ITEM: ATOMS id type xs ys zs
1 1 .505993 .991290 .573702
2 1 .992548 .609970 .500816
3 1 .789768 .008645 .475064
4 1 .186206 .020883 .444830
5 1 .007921 .631273 .481323
6 1 .488888 .430195 .988420
7 1 .502001 .475004 .014369
ITEM: TIMESTEP
300
ITEM: NUMBER OF ATOMS
7
ITEM: BOX BOUNDS ss ss ss
-2.9767 3.3704
-2.6327 3.3564
-1.9677 2.0019
ITEM: ATOMS id type xs ys zs
1 1 .506935 .991378 .573729
2 1 .992087 .609173 .500946
3 1 .789548 .008035 .475333
4 1 .185775 .021035 .443395
5 1 .008830 .631479 .482900
6 1 .488951 .430152 .988350
7 1 .501998 .474551 .012051
ITEM: TIMESTEP
350
ITEM: NUMBER OF ATOMS
7
ITEM: BOX BOUNDS ss ss ss
-2.9626 3.3819
-2.6360 3.3560
-1.9687 2.0096
ITEM: ATOMS id type xs ys zs
1 1 .505383 .991812 .572490
2 1 .989478 .608948 .500395
3 1 .787126 .008205 .475103
4 1 .183333 .021455 .442728
5 1 .007154 .632146 .482961
6 1 .486635 .430548 .986013
7 1 .499592 .474665 .011603
ITEM: TIMESTEP
400
ITEM: NUMBER OF ATOMS
7
ITEM: BOX BOUNDS ss ss ss
-2.9595 3.3600
-2.6384 3.3538
-1.9698 2.0026
ITEM: ATOMS id type xs ys zs
1 1 .507239 .992358 .573184
2 1 .992240 .609272 .501592
3 1 .789567 .008437 .476292
4 1 .183390 .021895 .443149
5 1 .007139 .632819 .484405
6 1 .487885 .431002 .987381
7 1 .500974 .474784 .011010
ITEM: TIMESTEP
1
ITEM: NUMBER OF ATOMS
7
ITEM: BOX BOUNDS ss ss ss
-2.9547 3.3535
-2.6364 3.3570
-1.9686 1.9996
ITEM: ATOMS id type xs ys zs
1 1 .504374 .989175 .571025
2 1 .998239 .608932 .499472
3 1 .792022 .010536 .473581
4 1 .184521 .020871 .445989
5 1 .003350 .630647 .479581
6 1 .488706 .429670 .991667
7 1 .501900 .475411 .015963
ITEM: TIMESTEP
50
ITEM: NUMBER OF ATOMS
7
ITEM: BOX BOUNDS ss ss ss
-2.9608 3.3724
-2.6364 3.3570
-1.9686 1.9996
ITEM: ATOMS id type xs ys zs
1 1 .503319 .989016 .571550
2 1 .995632 .608905 .498704
3 1 .789885 .010636 .473815
4 1 .184718 .020914 .445993
5 1 .003991 .630671 .479032
6 1 .487664 .429640 .991879
7 1 .500915 .475482 .016291
ITEM: TIMESTEP
100
ITEM: NUMBER OF ATOMS
7
ITEM: BOX BOUNDS ss ss ss
-2.9714 3.3776
-2.6364 3.3570
-1.9686 1.9996
ITEM: ATOMS id type xs ys zs
1 1 .504036 .989021 .572200
2 1 .994634 .609092 .498403
3 1 .789620 .010553 .474101
4 1 .185813 .021141 .446122
5 1 .005489 .630618 .479033
6 1 .487993 .429787 .991600
7 1 .501409 .475269 .015778
ITEM: TIMESTEP
150
ITEM: NUMBER OF ATOMS
7
ITEM: BOX BOUNDS ss ss ss
-2.9804 3.3806
-2.6364 3.3570
-1.9686 2.0084
ITEM: ATOMS id type xs ys zs
1 1 .505130 .989143 .571310
2 1 .993318 .609661 .497411
3 1 .789465 .010496 .473548
4 1 .186763 .021453 .445314
5 1 .007072 .630453 .478435
6 1 .488480 .430166 .988810
7 1 .501745 .474910 .014401
ITEM: TIMESTEP
200
ITEM: NUMBER OF ATOMS
7
ITEM: BOX BOUNDS ss ss ss
-2.9754 3.3767
-2.6364 3.3570
-1.9686 2.0096
ITEM: ATOMS id type xs ys zs
1 1 .505631 .989408 .571187
2 1 .993083 .610061 .497686
3 1 .789811 .010483 .474058
4 1 .186354 .021539 .445377
5 1 .006860 .630189 .479035
6 1 .488423 .430412 .988405
7 1 .501685 .474512 .013398
ITEM: TIMESTEP
250
ITEM: NUMBER OF ATOMS
7
ITEM: BOX BOUNDS ss ss ss
-2.9742 3.3809
-2.6364 3.3570
-1.9686 2.0065
ITEM: ATOMS id type xs ys zs
1 1 .506017 .989824 .571258
2 1 .991734 .609885 .498914
3 1 .789178 .010303 .474973
4 1 .186625 .021134 .446127
5 1 .007891 .630115 .480746
6 1 .487924 .430842 .989292
7 1 .501418 .474326 .012443
ITEM: TIMESTEP
300
ITEM: NUMBER OF ATOMS
7
ITEM: BOX BOUNDS ss ss ss
-2.9690 3.3723
-2.6288 3.3518
-1.9731 2.0082
ITEM: ATOMS id type xs ys zs
1 1 .506918 .991272 .571503
2 1 .992429 .609758 .500276
3 1 .789729 .008869 .475618
4 1 .186752 .019400 .447198
5 1 .008156 .629790 .482228
6 1 .488195 .431051 .988558
7 1 .501953 .474170 .012279
ITEM: TIMESTEP
350
ITEM: NUMBER OF ATOMS
7
ITEM: BOX BOUNDS ss ss ss
-2.9657 3.3750
-2.6366 3.3518
-1.9786 2.0078
ITEM: ATOMS id type xs ys zs
1 1 .506584 .991858 .572431
2 1 .991357 .610332 .501833
3 1 .789381 .010261 .476857
4 1 .186722 .020535 .447933
5 1 .008118 .630048 .483066
6 1 .487748 .432028 .988173
7 1 .501561 .475166 .012649
ITEM: TIMESTEP
400
ITEM: NUMBER OF ATOMS
7
ITEM: BOX BOUNDS ss ss ss
-2.9803 3.3717
-2.6316 3.3553
-1.9812 2.0094
ITEM: ATOMS id type xs ys zs
1 1 .507993 .991762 .572568
2 1 .991134 .609701 .503009
3 1 .790424 .009487 .477142
4 1 .189207 .019587 .448090
5 1 .010703 .629358 .483469
6 1 .489237 .431494 .987460
7 1 .502810 .474633 .012469
ITEM: TIMESTEP
1
ITEM: NUMBER OF ATOMS
7
ITEM: BOX BOUNDS ss ss ss
-2.9606 3.3720
-2.6346 3.3538
-1.9769 2.0010
ITEM: ATOMS id type xs ys zs
1 1 .503365 .989699 .571730
2 1 .995341 .609145 .500343
3 1 .789907 .010253 .474520
4 1 .184737 .020596 .446983
5 1 .004261 .630870 .480503
6 1 .487754 .429730 .991342
7 1 .500901 .475508 .018014
ITEM: TIMESTEP
50
ITEM: NUMBER OF ATOMS
7
ITEM: BOX BOUNDS ss ss ss
-2.9647 3.3763
-2.6309 3.3538
-1.9769 2.0010
ITEM: ATOMS id type xs ys zs
1 1 .503309 .989536 .572268
2 1 .995120 .608895 .499445
3 1 .789544 .009743 .474806
4 1 .185075 .020007 .447020
5 1 .004608 .630651 .479830
6 1 .487669 .429291 .991591
7 1 .500930 .475236 .018440
ITEM: TIMESTEP
100
ITEM: NUMBER OF ATOMS
7
ITEM: BOX BOUNDS ss ss ss
-2.9747 3.3830
-2.6309 3.3538
-1.9769 2.0017
ITEM: ATOMS id type xs ys zs
1 1 .503746 .989468 .572821
2 1 .993922 .609015 .499031
3 1 .789090 .009685 .474984
4 1 .186060 .020234 .447121
5 1 .006010 .630494 .479581
6 1 .487821 .429435 .991284
7 1 .501276 .475107 .017935
ITEM: TIMESTEP
150
ITEM: NUMBER OF ATOMS
7
ITEM: BOX BOUNDS ss ss ss
-2.9789 3.3821
-2.6309 3.3450
-1.9769 2.0104
ITEM: ATOMS id type xs ys zs
1 1 .504456 .991048 .572108
2 1 .993289 .610359 .498355
3 1 .789254 .009571 .474224
4 1 .186423 .020600 .446426
5 1 .006783 .631416 .478743
6 1 .488177 .430235 .988644
7 1 .501721 .475595 .016957
ITEM: TIMESTEP
200
ITEM: NUMBER OF ATOMS
7
ITEM: BOX BOUNDS ss ss ss
-2.9827 3.3848
-2.6309 3.3450
-1.9769 2.0082
ITEM: ATOMS id type xs ys zs
1 1 .504896 .991293 .573003
2 1 .991771 .611028 .499857
3 1 .788897 .009739 .474550
4 1 .186778 .020894 .447402
5 1 .007610 .631760 .479336
6 1 .488006 .430414 .988859
7 1 .501822 .475474 .015920
ITEM: TIMESTEP
250
ITEM: NUMBER OF ATOMS
7
ITEM: BOX BOUNDS ss ss ss
-2.9804 3.3884
-2.6292 3.3450
-1.9739 2.0075
ITEM: ATOMS id type xs ys zs
1 1 .504903 .991565 .573630
2 1 .990211 .611490 .501388
3 1 .787901 .009866 .473711
4 1 .186124 .021024 .447759
5 1 .007878 .632532 .479251
6 1 .486448 .430365 .988756
7 1 .501484 .475463 .013854
ITEM: TIMESTEP
300
ITEM: NUMBER OF ATOMS
7
ITEM: BOX BOUNDS ss ss ss
-2.9870 3.3816
-2.6278 3.3441
-1.9677 2.0155
ITEM: ATOMS id type xs ys zs
1 1 .506441 .992159 .572828
2 1 .990332 .611963 .500659
3 1 .788526 .009980 .471627
4 1 .186833 .020896 .446400
5 1 .009320 .633097 .477028
6 1 .486750 .430615 .986670
7 1 .502340 .475705 .011390
ITEM: TIMESTEP
350
ITEM: NUMBER OF ATOMS
7
ITEM: BOX BOUNDS ss ss ss
-2.9864 3.3771
-2.6214 3.3453
-1.9737 2.0170
ITEM: ATOMS id type xs ys zs
1 1 .506935 .992463 .574016
2 1 .990172 .611714 .501444
3 1 .788976 .009165 .472505
4 1 .186784 .019752 .447160
5 1 .009593 .632738 .477441
6 1 .486726 .430040 .986088
7 1 .502298 .475189 .012245
ITEM: TIMESTEP
400
ITEM: NUMBER OF ATOMS
7
ITEM: BOX BOUNDS ss ss ss
-2.9821 3.3787
-2.6260 3.3512
-1.9734 2.0196
ITEM: ATOMS id type xs ys zs
1 1 .506551 .991974 .573835
2 1 .989223 .611604 .501336
3 1 .788625 .010099 .472499
4 1 .186115 .020390 .446615
5 1 .009276 .632316 .477167
6 1 .486217 .430296 .985339
7 1 .501605 .475223 .011543
ITEM: TIMESTEP
1
ITEM: NUMBER OF ATOMS
7
ITEM: BOX BOUNDS ss ss ss
-2.9659 3.3561
-2.6116 3.3515
-1.9709 2.0174
ITEM: ATOMS id type xs ys zs
1 1 .505052 .990037 .568720
2 1 .997849 .607866 .497518
3 1 .792077 .006441 .471767
4 1 .185891 .016826 .444306
5 1 .005112 .629691 .477729
6 1 .489414 .427698 .987240
7 1 .502579 .473668 .016458
ITEM: TIMESTEP
50
ITEM: NUMBER OF ATOMS
7
ITEM: BOX BOUNDS ss ss ss
-2.9659 3.3723
-2.6116 3.3515
-1.9709 2.0174
ITEM: ATOMS id type xs ys zs
1 1 .503654 .989844 .569304
2 1 .995825 .607830 .496459
3 1 .790063 .006595 .472052
4 1 .185385 .016856 .444332
5 1 .004732 .629728 .477015
6 1 .488067 .427625 .987534
7 1 .501333 .473755 .016955
ITEM: TIMESTEP
100
ITEM: NUMBER OF ATOMS
7
ITEM: BOX BOUNDS ss ss ss
-2.9813 3.3810
-2.6116 3.3515
-1.9709 2.0174
ITEM: ATOMS id type xs ys zs
1 1 .504361 .989859 .570209
2 1 .994443 .607911 .495966
3 1 .789576 .006526 .472330
4 1 .187052 .017072 .444489
5 1 .006908 .629668 .476686
6 1 .488652 .427755 .987423
7 1 .501916 .473579 .016595
ITEM: TIMESTEP
150
ITEM: NUMBER OF ATOMS
7
ITEM: BOX BOUNDS ss ss ss
-2.9828 3.3902
-2.6160 3.3515
-1.9709 2.0174
ITEM: ATOMS id type xs ys zs
1 1 .504265 .990130 .570714
2 1 .992335 .608387 .496347
3 1 .788584 .007015 .472383
4 1 .187041 .018133 .444855
5 1 .007142 .629919 .477098
6 1 .488136 .428496 .987261
7 1 .501278 .473638 .015450
ITEM: TIMESTEP
200
ITEM: NUMBER OF ATOMS
7
ITEM: BOX BOUNDS ss ss ss
-2.9857 3.3852
-2.6188 3.3515
-1.9709 2.0174
ITEM: ATOMS id type xs ys zs
1 1 .505294 .990327 .570097
2 1 .991966 .608690 .498026
3 1 .789279 .007138 .471669
4 1 .187987 .019162 .445845
5 1 .007643 .630063 .478660
6 1 .489051 .429002 .987178
7 1 .501732 .473754 .014163
ITEM: TIMESTEP
250
ITEM: NUMBER OF ATOMS
7
ITEM: BOX BOUNDS ss ss ss
-2.9781 3.3732
-2.6312 3.3515
-1.9709 2.0174
ITEM: ATOMS id type xs ys zs
1 1 .505889 .990754 .569789
2 1 .993264 .609048 .499603
3 1 .790568 .008766 .470851
4 1 .187763 .021079 .447581
5 1 .006772 .630562 .479857
6 1 .489789 .430560 .986821
7 1 .501834 .474929 .013736
ITEM: TIMESTEP
300
ITEM: NUMBER OF ATOMS
7
ITEM: BOX BOUNDS ss ss ss
-2.9801 3.3773
-2.6267 3.3515
-1.9709 2.0128
ITEM: ATOMS id type xs ys zs
1 1 .505662 .991782 .570403
2 1 .991807 .607578 .502089
3 1 .789616 .007638 .470561
4 1 .188004 .019761 .450532
5 1 .007977 .630106 .481496
6 1 .490044 .430596 .987489
7 1 .501155 .474642 .013415
ITEM: TIMESTEP
350
ITEM: NUMBER OF ATOMS
7
ITEM: BOX BOUNDS ss ss ss
-2.9765 3.3688
-2.6417 3.3615
-1.9709 2.0189
ITEM: ATOMS id type xs ys zs
1 1 .505804 .991004 .569524
2 1 .992237 .607067 .502301
3 1 .789956 .009886 .468938
4 1 .187863 .021996 .451172
5 1 .007971 .629826 .481671
6 1 .490589 .431837 .985494
7 1 .501367 .475459 .012851
ITEM: TIMESTEP
400
ITEM: NUMBER OF ATOMS
7
ITEM: BOX BOUNDS ss ss ss
-2.9852 3.3650
-2.6406 3.3521
-1.9734 2.0123
ITEM: ATOMS id type xs ys zs
1 1 .506745 .992757 .571023
2 1 .992076 .608106 .503613
3 1 .790601 .009505 .470012
4 1 .189230 .021778 .452766
5 1 .009550 .630541 .482819
6 1 .491695 .432681 .986813
7 1 .502163 .476031 .012634
ITEM: TIMESTEP
1
ITEM: NUMBER OF ATOMS
7
ITEM: BOX BOUNDS ss ss ss
-2.9663 3.3591
-2.6267 3.3515
-1.9775 2.0090
ITEM: ATOMS id type xs ys zs
1 1 .504841 .990060 .570639
2 1 .997372 .608858 .499402
3 1 .791706 .008949 .473645
4 1 .185853 .019307 .446165
5 1 .005167 .630625 .479610
6 1 .489210 .429139 .989349
7 1 .502375 .474995 .018125
ITEM: TIMESTEP
50
ITEM: NUMBER OF ATOMS
7
ITEM: BOX BOUNDS ss ss ss
-2.9663 3.3767
-2.6267 3.3515
-1.9775 2.0090
ITEM: ATOMS id type xs ys zs
1 1 .503327 .989849 .571226
2 1 .995165 .608800 .498274
3 1 .789560 .009108 .473952
4 1 .185281 .019362 .446150
5 1 .004811 .630660 .478833
6 1 .487741 .429073 .989670
7 1 .501008 .475098 .018738
ITEM: TIMESTEP
100
ITEM: NUMBER OF ATOMS
7
ITEM: BOX BOUNDS ss ss ss
-2.9756 3.3868
-2.6267 3.3515
-1.9775 2.0090
ITEM: ATOMS id type xs ys zs
1 1 .503400 .989755 .572180
2 1 .993591 .608997 .497538
3 1 .788807 .009037 .474229
4 1 .186203 .019549 .446278
5 1 .006022 .630613 .478434
6 1 .487632 .429193 .989537
7 1 .501062 .474928 .018567
ITEM: TIMESTEP
150
ITEM: NUMBER OF ATOMS
7
ITEM: BOX BOUNDS ss ss ss
-2.9821 3.3879
-2.6267 3.3515
-1.9775 2.0138
ITEM: ATOMS id type xs ys zs
1 1 .504347 .989915 .572169
2 1 .993146 .609330 .496344
3 1 .789023 .008802 .473970
4 1 .187173 .019516 .445804
5 1 .007161 .630585 .477458
6 1 .488113 .429320 .987726
7 1 .501536 .474624 .017800
ITEM: TIMESTEP
200
ITEM: NUMBER OF ATOMS
7
ITEM: BOX BOUNDS ss ss ss
-2.9866 3.3908
-2.6267 3.3515
-1.9775 2.0120
ITEM: ATOMS id type xs ys zs
1 1 .505310 .990327 .572560
2 1 .992155 .609418 .496021
3 1 .789055 .008463 .474234
4 1 .188135 .019067 .445560
5 1 .008701 .630476 .477188
6 1 .488423 .429524 .987229
7 1 .501884 .474061 .016643
ITEM: TIMESTEP
250
ITEM: NUMBER OF ATOMS
7
ITEM: BOX BOUNDS ss ss ss
-2.9832 3.3837
-2.6267 3.3515
-1.9775 2.0187
ITEM: ATOMS id type xs ys zs
1 1 .506518 .990839 .571996
2 1 .992580 .609153 .494594
3 1 .789644 .008008 .472760
4 1 .188593 .018589 .444630
5 1 .008940 .630096 .476430
6 1 .488742 .429951 .984725
7 1 .502153 .473845 .015386
ITEM: TIMESTEP
300
ITEM: NUMBER OF ATOMS
7
ITEM: BOX BOUNDS ss ss ss
-2.9695 3.3809
-2.6293 3.3515
-1.9775 2.0211
ITEM: ATOMS id type xs ys zs
1 1 .506002 .990800 .572061
2 1 .992399 .609049 .494053
3 1 .789552 .008049 .472412
4 1 .187100 .018784 .444168
5 1 .006916 .629986 .476483
6 1 .487723 .430161 .983553
7 1 .501106 .473787 .014585
ITEM: TIMESTEP
350
ITEM: NUMBER OF ATOMS
7
ITEM: BOX BOUNDS ss ss ss
-2.9881 3.3792
-2.6320 3.3515
-1.9775 2.0180
ITEM: ATOMS id type xs ys zs
1 1 .507963 .990561 .572914
2 1 .992489 .609028 .494684
3 1 .790305 .008093 .472855
4 1 .189236 .019175 .444714
5 1 .009920 .630042 .477051
6 1 .489497 .430034 .983560
7 1 .502737 .473791 .013821
ITEM: TIMESTEP
400
ITEM: NUMBER OF ATOMS
7
ITEM: BOX BOUNDS ss ss ss
-2.9758 3.3836
-2.6340 3.3515
-1.9775 2.0109
ITEM: ATOMS id type xs ys zs
1 1 .506931 .990376 .573982
2 1 .991713 .609087 .495823
3 1 .789303 .007872 .473769
4 1 .187001 .019628 .445469
5 1 .008229 .630170 .478040
6 1 .488544 .429786 .984506
7 1 .501506 .473750 .013041
ITEM: TIMESTEP
1
ITEM: NUMBER OF ATOMS
7
ITEM: BOX BOUNDS ss ss ss
-2.9745 3.3805
-2.6372 3.3515
-1.9800 2.0022
ITEM: ATOMS id type xs ys zs
1 1 .503781 .990075 .571885
2 1 .994019 .609540 .500570
3 1 .789314 .010683 .474784
4 1 .186280 .021024 .447283
5 1 .006441 .631270 .480757
6 1 .488224 .430136 .991038
7 1 .501326 .475914 .018782
ITEM: TIMESTEP
50
ITEM: NUMBER OF ATOMS
7
ITEM: BOX BOUNDS ss ss ss
-2.9745 3.3805
-2.6372 3.3515
-1.9800 2.0022
ITEM: ATOMS id type xs ys zs
1 1 .503669 .989849 .572564
2 1 .994654 .609462 .499411
3 1 .789328 .010840 .475144
4 1 .186221 .021038 .447287
5 1 .006038 .631314 .479954
6 1 .488113 .430032 .991410
7 1 .501339 .476054 .019440
ITEM: TIMESTEP
100
ITEM: NUMBER OF ATOMS
7
ITEM: BOX BOUNDS ss ss ss
-2.9783 3.3875
-2.6372 3.3515
-1.9800 2.0093
ITEM: ATOMS id type xs ys zs
1 1 .503742 .989732 .572601
2 1 .993596 .609596 .497788
3 1 .788638 .010759 .474702
4 1 .186465 .021097 .446662
5 1 .006421 .631204 .478635
6 1 .487795 .430206 .989674
7 1 .501202 .475889 .019053
ITEM: TIMESTEP
150
ITEM: NUMBER OF ATOMS
7
ITEM: BOX BOUNDS ss ss ss
-2.9879 3.3864
-2.6372 3.3515
-1.9800 2.0164
ITEM: ATOMS id type xs ys zs
1 1 .505502 .989632 .572728
2 1 .992947 .609908 .496818
3 1 .789146 .010610 .474035
4 1 .187751 .021198 .446110
5 1 .008254 .631089 .477278
6 1 .488586 .430329 .987578
7 1 .502102 .475515 .017864
ITEM: TIMESTEP
200
ITEM: NUMBER OF ATOMS
7
ITEM: BOX BOUNDS ss ss ss
-2.9862 3.3855
-2.6359 3.3515
-1.9753 2.0103
ITEM: ATOMS id type xs ys zs
1 1 .506271 .989525 .574091
2 1 .992458 .610432 .497161
3 1 .789442 .010813 .474445
4 1 .187668 .020763 .446577
5 1 .008653 .630925 .477180
6 1 .488136 .430040 .988672
7 1 .502044 .475055 .015454
ITEM: TIMESTEP
250
ITEM: NUMBER OF ATOMS
7
ITEM: BOX BOUNDS ss ss ss
-2.9779 3.3826
-2.6359 3.3515
-1.9753 2.0081
ITEM: ATOMS id type xs ys zs
1 1 .505975 .989682 .575352
2 1 .992318 .611197 .498072
3 1 .789576 .011760 .475117
4 1 .186740 .020436 .447282
5 1 .008184 .630698 .477714
6 1 .486805 .429968 .989083
7 1 .501528 .475090 .013843
ITEM: TIMESTEP
300
ITEM: NUMBER OF ATOMS
7
ITEM: BOX BOUNDS ss ss ss
-2.9729 3.3795
-2.6359 3.3515
-1.9830 2.0233
ITEM: ATOMS id type xs ys zs
1 1 .506120 .989926 .574676
2 1 .991787 .611807 .497951
3 1 .789306 .012816 .474346
4 1 .186329 .020290 .447381
5 1 .008219 .629879 .477172
6 1 .486049 .430407 .985657
7 1 .501338 .475625 .013555
ITEM: TIMESTEP
350
ITEM: NUMBER OF ATOMS
7
ITEM: BOX BOUNDS ss ss ss
-2.9710 3.3849
-2.6346 3.3515
-1.9868 2.0186
ITEM: ATOMS id type xs ys zs
1 1 .505589 .990269 .576434
2 1 .989801 .611795 .499775
3 1 .788011 .012993 .475188
4 1 .186436 .019897 .449303
5 1 .008462 .628565 .478767
6 1 .485414 .430787 .987292
7 1 .500987 .476044 .012918
ITEM: TIMESTEP
400
ITEM: NUMBER OF ATOMS
7
ITEM: BOX BOUNDS ss ss ss
-2.9690 3.3739
-2.6346 3.3515
-2.0018 2.0190
ITEM: ATOMS id type xs ys zs
1 1 .505889 .990250 .578889
2 1 .990262 .611571 .502541
3 1 .789123 .012320 .477419
4 1 .187056 .019893 .450997
5 1 .008469 .627584 .481372
6 1 .486363 .430356 .987439
7 1 .501801 .476052 .015427
ITEM: TIMESTEP
1
ITEM: NUMBER OF ATOMS
7
ITEM: BOX BOUNDS ss ss ss
-2.9548 3.3650
-2.6346 3.3515
-2.0071 2.0085
ITEM: ATOMS id type xs ys zs
1 1 .503470 .990075 .573881
2 1 .996438 .609374 .503154
3 1 .790594 .010259 .477583
4 1 .184203 .020608 .450310
5 1 .003360 .631114 .483501
6 1 .487825 .429895 .989556
7 1 .501002 .475693 .025364
ITEM: TIMESTEP
50
ITEM: NUMBER OF ATOMS
7
ITEM: BOX BOUNDS ss ss ss
-2.9698 3.3768
-2.6346 3.3515
-2.0071 2.0085
ITEM: ATOMS id type xs ys zs
1 1 .503577 .989803 .574515
2 1 .995276 .609305 .501880
3 1 .789627 .010449 .477978
4 1 .185699 .020639 .450332
5 1 .005272 .631151 .482606
6 1 .487992 .429754 .989940
7 1 .501300 .475860 .026060
ITEM: TIMESTEP
100
ITEM: NUMBER OF ATOMS
7
ITEM: BOX BOUNDS ss ss ss
-2.9776 3.3900
-2.6346 3.3515
-2.0071 2.0085
ITEM: ATOMS id type xs ys zs
1 1 .503338 .989644 .575488
2 1 .993338 .609413 .501061
3 1 .788413 .010353 .478454
4 1 .186241 .020774 .450508
5 1 .006172 .630917 .482265
6 1 .487419 .429784 .989863
7 1 .500948 .475714 .025938
ITEM: TIMESTEP
150
ITEM: NUMBER OF ATOMS
7
ITEM: BOX BOUNDS ss ss ss
-2.9916 3.3906
-2.6346 3.3515
-2.0037 2.0183
ITEM: ATOMS id type xs ys zs
1 1 .504908 .989730 .574513
2 1 .992999 .609748 .499226
3 1 .789058 .010071 .477215
4 1 .188128 .020858 .449185
5 1 .008427 .630763 .480531
6 1 .488541 .429846 .986987
7 1 .502162 .475457 .024518
ITEM: TIMESTEP
200
ITEM: NUMBER OF ATOMS
7
ITEM: BOX BOUNDS ss ss ss
-2.9864 3.4039
-2.6346 3.3515
-2.0037 2.0170
ITEM: ATOMS id type xs ys zs
1 1 .504015 .990233 .575672
2 1 .990809 .610108 .500152
3 1 .787776 .009563 .477364
4 1 .187433 .020998 .449854
5 1 .008024 .630705 .480955
6 1 .487807 .430059 .986804
7 1 .501056 .475465 .024505
ITEM: TIMESTEP
250
ITEM: NUMBER OF ATOMS
7
ITEM: BOX BOUNDS ss ss ss
-2.9852 3.3908
-2.6346 3.3515
-1.9960 2.0139
ITEM: ATOMS id type xs ys zs
1 1 .505293 .990813 .576231
2 1 .992533 .610395 .500265
3 1 .789924 .009538 .476547
4 1 .187927 .021018 .449874
5 1 .008246 .631039 .480771
6 1 .489098 .430437 .987727
7 1 .502175 .475619 .023072
ITEM: TIMESTEP
300
ITEM: NUMBER OF ATOMS
7
ITEM: BOX BOUNDS ss ss ss
-2.9819 3.4000
-2.6373 3.3524
-1.9960 2.0197
ITEM: ATOMS id type xs ys zs
1 1 .504437 .991189 .575977
2 1 .990300 .610814 .499872
3 1 .789074 .010368 .475615
4 1 .187686 .021356 .450535
5 1 .008471 .631693 .479780
6 1 .487959 .431174 .986661
7 1 .501176 .475811 .022536
ITEM: TIMESTEP
350
ITEM: NUMBER OF ATOMS
7
ITEM: BOX BOUNDS ss ss ss
-2.9781 3.3891
-2.6346 3.3529
-1.9960 2.0250
ITEM: ATOMS id type xs ys zs
1 1 .505219 .991437 .575669
2 1 .991176 .611465 .500277
3 1 .790767 .010762 .474696
4 1 .188318 .020953 .450992
5 1 .008282 .631703 .478613
6 1 .488441 .431422 .985480
7 1 .501730 .475275 .021424
ITEM: TIMESTEP
400
ITEM: NUMBER OF ATOMS
7
ITEM: BOX BOUNDS ss ss ss
-2.9764 3.3778
-2.6346 3.3526
-1.9753 2.0122
ITEM: ATOMS id type xs ys zs
1 1 .506537 .991848 .575279
2 1 .992306 .612704 .501675
3 1 .792829 .011758 .472758
4 1 .189619 .021333 .450364
5 1 .007995 .631963 .476947
6 1 .489380 .432115 .988698
7 1 .502450 .475210 .015501
ITEM: TIMESTEP
1
ITEM: NUMBER OF ATOMS
7
ITEM: BOX BOUNDS ss ss ss
-2.9675 3.3737
-2.6086 3.3467
-1.9609 2.0112
ITEM: ATOMS id type xs ys zs
1 1 .503775 .990829 .568527
2 1 .995085 .608163 .497021
3 1 .789928 .005950 .471176
4 1 .185580 .016347 .443599
5 1 .005350 .630015 .477159
6 1 .488185 .427756 .988749
7 1 .501313 .473789 .014008
ITEM: TIMESTEP
50
ITEM: NUMBER OF ATOMS
7
ITEM: BOX BOUNDS ss ss ss
-2.9675 3.3762
-2.6086 3.3467
-1.9609 2.0112
ITEM: ATOMS id type xs ys zs
1 1 .503418 .990586 .569232
2 1 .995424 .608075 .495645
3 1 .789638 .006149 .471515
4 1 .185422 .016392 .443573
5 1 .004923 .630102 .476207
6 1 .487852 .427646 .989179
7 1 .501154 .473955 .014790
ITEM: TIMESTEP
100
ITEM: NUMBER OF ATOMS
7
ITEM: BOX BOUNDS ss ss ss
-2.9761 3.3872
-2.6140 3.3467
-1.9609 2.0112
ITEM: ATOMS id type xs ys zs
1 1 .503379 .990481 .570237
2 1 .993952 .608459 .494738
3 1 .788682 .006964 .471844
4 1 .186070 .017388 .443648
5 1 .005902 .630288 .475672
6 1 .487559 .428247 .989099
7 1 .501091 .474322 .014755
ITEM: TIMESTEP
150
ITEM: NUMBER OF ATOMS
7
ITEM: BOX BOUNDS ss ss ss
-2.9872 3.4074
-2.6226 3.3467
-1.9609 2.0112
ITEM: ATOMS id type xs ys zs
1 1 .502781 .990522 .571028
2 1 .990384 .609154 .494884
3 1 .786584 .008142 .471804
4 1 .186822 .019110 .443515
5 1 .007581 .630517 .475051
6 1 .486798 .429005 .988432
7 1 .500703 .474936 .013702
ITEM: TIMESTEP
200
ITEM: NUMBER OF ATOMS
7
ITEM: BOX BOUNDS ss ss ss
-2.9893 3.3950
-2.6209 3.3467
-1.9637 2.0196
ITEM: ATOMS id type xs ys zs
1 1 .503470 .990360 .569742
2 1 .991525 .609629 .495895
3 1 .788568 .007475 .470858
4 1 .187016 .018957 .442615
5 1 .008963 .629989 .473034
6 1 .487512 .428453 .984658
7 1 .502997 .474190 .012239
ITEM: TIMESTEP
250
ITEM: NUMBER OF ATOMS
7
ITEM: BOX BOUNDS ss ss ss
-2.9802 3.3868
-2.6197 3.3457
-1.9674 2.0112
ITEM: ATOMS id type xs ys zs
1 1 .502942 .990646 .570574
2 1 .991789 .610776 .499512
3 1 .789417 .007177 .472761
4 1 .185506 .019035 .444403
5 1 .008969 .629600 .474463
6 1 .487032 .428093 .985550
7 1 .503760 .473280 .011193
ITEM: TIMESTEP
300
ITEM: NUMBER OF ATOMS
7
ITEM: BOX BOUNDS ss ss ss
-2.9743 3.3760
-2.6238 3.3457
-1.9713 2.0028
ITEM: ATOMS id type xs ys zs
1 1 .503546 .990947 .572619
2 1 .992031 .611575 .502265
3 1 .790650 .007820 .475040
4 1 .184930 .019862 .446581
5 1 .008792 .629891 .476282
6 1 .487415 .428545 .986987
7 1 .504221 .473056 .010291
ITEM: TIMESTEP
350
ITEM: NUMBER OF ATOMS
7
ITEM: BOX BOUNDS ss ss ss
-2.9680 3.3719
-2.6308 3.3457
-1.9825 2.0028
ITEM: ATOMS id type xs ys zs
1 1 .503373 .991047 .574569
2 1 .991745 .612113 .503816
3 1 .790972 .008615 .477201
4 1 .184421 .021118 .448266
5 1 .008020 .630885 .477436
6 1 .487424 .429316 .986682
7 1 .503830 .473262 .011973
ITEM: TIMESTEP
400
ITEM: NUMBER OF ATOMS
7
ITEM: BOX BOUNDS ss ss ss
-2.9791 3.3664
-2.6300 3.3457
-1.9890 1.9984
ITEM: ATOMS id type xs ys zs
1 1 .504794 .991187 .576086
2 1 .991874 .612258 .505089
3 1 .791896 .008141 .479324
4 1 .186130 .020908 .449190
5 1 .009905 .631223 .478387
6 1 .488937 .429435 .987695
7 1 .504878 .472995 .013258
ITEM: TIMESTEP
1
ITEM: NUMBER OF ATOMS
7
ITEM: BOX BOUNDS ss ss ss
-2.9607 3.3679
-2.6276 3.3490
-1.9910 1.9996
ITEM: ATOMS id type xs ys zs
1 1 .503697 .990481 .573436
2 1 .995979 .609173 .502259
3 1 .790415 .009099 .476532
4 1 .184877 .019459 .449083
5 1 .004286 .630944 .482487
6 1 .488078 .429406 .991712
7 1 .501229 .475277 .021485
ITEM: TIMESTEP
50
ITEM: NUMBER OF ATOMS
7
ITEM: BOX BOUNDS ss ss ss
-2.9651 3.3756
-2.6276 3.3490
-1.9910 1.9996
ITEM: ATOMS id type xs ys zs
1 1 .503280 .990205 .574128
2 1 .995560 .609069 .500863
3 1 .789650 .009334 .476923
4 1 .185124 .019483 .449031
5 1 .004493 .631031 .481495
6 1 .487686 .429278 .992160
7 1 .501000 .475439 .022293
ITEM: TIMESTEP
100
ITEM: NUMBER OF ATOMS
7
ITEM: BOX BOUNDS ss ss ss
-2.9802 3.3873
-2.6276 3.3418
-1.9910 2.0071
ITEM: ATOMS id type xs ys zs
1 1 .503672 .991248 .574027
2 1 .993910 .609955 .498891
3 1 .788859 .009342 .476507
4 1 .186642 .019711 .448173
5 1 .006458 .631711 .480025
6 1 .487907 .429864 .990239
7 1 .501378 .475843 .022038
ITEM: TIMESTEP
150
ITEM: NUMBER OF ATOMS
7
ITEM: BOX BOUNDS ss ss ss
-2.9894 3.3928
-2.6276 3.3418
-1.9910 2.0132
ITEM: ATOMS id type xs ys zs
1 1 .504334 .991185 .574144
2 1 .992700 .610365 .497714
3 1 .788622 .009176 .476362
4 1 .187611 .020185 .447504
5 1 .007716 .631666 .479037
6 1 .488277 .430133 .988414
7 1 .501688 .475543 .021190
ITEM: TIMESTEP
200
ITEM: NUMBER OF ATOMS
7
ITEM: BOX BOUNDS ss ss ss
-2.9959 3.3975
-2.6276 3.3551
-1.9910 2.0157
ITEM: ATOMS id type xs ys zs
1 1 .505172 .989211 .574707
2 1 .991483 .609764 .497392
3 1 .788184 .009013 .476269
4 1 .188034 .020378 .447020
5 1 .009123 .630567 .478099
6 1 .488372 .429466 .987218
7 1 .501962 .474296 .020379
ITEM: TIMESTEP
250
ITEM: NUMBER OF ATOMS
7
ITEM: BOX BOUNDS ss ss ss
-2.9866 3.3980
-2.6381 3.3466
-1.9910 2.0226
ITEM: ATOMS id type xs ys zs
1 1 .504738 .991283 .574700
2 1 .991034 .612168 .496924
3 1 .787800 .010723 .475758
4 1 .186416 .022071 .446381
5 1 .008262 .632159 .476756
6 1 .487394 .431194 .984660
7 1 .501568 .475758 .020028
ITEM: TIMESTEP
300
ITEM: NUMBER OF ATOMS
7
ITEM: BOX BOUNDS ss ss ss
-2.9892 3.3905
-2.6338 3.3500
-1.9805 2.0202
ITEM: ATOMS id type xs ys zs
1 1 .505578 .991230 .574687
2 1 .992147 .612385 .496541
3 1 .788538 .010070 .475075
4 1 .186341 .021559 .444934
5 1 .008957 .631540 .474840
6 1 .488103 .430670 .984829
7 1 .502726 .474907 .017722
ITEM: TIMESTEP
350
ITEM: NUMBER OF ATOMS
7
ITEM: BOX BOUNDS ss ss ss
-2.9929 3.3952
-2.6239 3.3549
-1.9776 2.0270
ITEM: ATOMS id type xs ys zs
1 1 .505638 .990496 .573586