ITEM: TIMESTEP
1
ITEM: NUMBER OF ATOMS
7
ITEM: BOX BOUNDS ss ss ss
-2.9375 3.3464
-2.5770 3.2956
-1.9089 1.9704
ITEM: ATOMS id type xs ys zs
1 1 .503687 .999571 .568528
2 1 .999333 .611460 .495793
3 1 .792148 .000302 .469452
4 1 .182362 .011163 .440871
5 1 .000700 .633490 .475107
6 1 .487770 .428276 .999758
7 1 .500871 .475141 .000883
ITEM: TIMESTEP
50
ITEM: NUMBER OF ATOMS
7
ITEM: BOX BOUNDS ss ss ss
-2.9650 3.3701
-2.6014 3.3159
-1.9331 1.9955
ITEM: ATOMS id type xs ys zs
1 1 .505018 .997048 .568048
2 1 .996360 .611960 .497840
3 1 .791115 .004219 .467679
4 1 .185838 .013753 .439544
5 1 .003524 .632623 .475879
6 1 .487336 .429150 .990180
7 1 .500643 .475727 .007399
ITEM: TIMESTEP
100
ITEM: NUMBER OF ATOMS
7
ITEM: BOX BOUNDS ss ss ss
-2.9719 3.3829
-2.6089 3.3292
-1.9431 2.0002
ITEM: ATOMS id type xs ys zs
1 1 .504432 .993996 .569537
2 1 .995054 .610488 .499445
3 1 .790701 .005129 .467305
4 1 .186700 .014592 .442124
5 1 .004695 .632454 .474638
6 1 .486407 .428029 .990112
7 1 .499896 .475029 .008493
ITEM: TIMESTEP
150
ITEM: NUMBER OF ATOMS
7
ITEM: BOX BOUNDS ss ss ss
-2.9792 3.3877
-2.6170 3.3477
-1.9522 2.0051
ITEM: ATOMS id type xs ys zs
1 1 .503795 .989206 .568969
2 1 .992030 .611986 .494896
3 1 .793057 .006637 .467356
4 1 .186192 .017980 .445850
5 1 .007081 .631966 .480067
6 1 .490125 .426446 .990018
7 1 .499191 .471482 .011472
ITEM: TIMESTEP
200
ITEM: NUMBER OF ATOMS
7
ITEM: BOX BOUNDS ss ss ss
-2.9717 3.3802
-2.6250 3.3407
-1.9595 2.0063
ITEM: ATOMS id type xs ys zs
1 1 .503703 .991056 .568529
2 1 .993959 .614157 .491727
3 1 .792881 .008472 .470908
4 1 .185175 .020158 .446073
5 1 .004817 .632745 .481739
6 1 .489347 .428099 .990121
7 1 .501190 .473894 .011069
ITEM: TIMESTEP
250
ITEM: NUMBER OF ATOMS
7
ITEM: BOX BOUNDS ss ss ss
-2.9783 3.3729
-2.6216 3.3528
-1.9674 2.0060
ITEM: ATOMS id type xs ys zs
1 1 .506659 .994893 .581581
2 1 .988128 .612682 .499177
3 1 .788603 .006226 .477995
4 1 .188139 .016850 .442248
5 1 .010011 .631734 .479594
6 1 .488158 .426814 .983473
7 1 .500638 .473980 .007920
ITEM: TIMESTEP
300
ITEM: NUMBER OF ATOMS
7
ITEM: BOX BOUNDS ss ss ss
-2.9714 3.3680
-2.6326 3.3603
-1.9709 2.0113
ITEM: ATOMS id type xs ys zs
1 1 .509545 .991052 .572259
2 1 .992257 .608643 .500114
3 1 .788222 .007924 .467238
4 1 .185293 .020856 .444302
5 1 .010222 .629429 .487854
6 1 .490246 .427328 .988050
7 1 .499380 .473313 .009518
ITEM: TIMESTEP
350
ITEM: NUMBER OF ATOMS
7
ITEM: BOX BOUNDS ss ss ss
-2.9672 3.3650
-2.6481 3.3594
-1.9847 1.9946
ITEM: ATOMS id type xs ys zs
1 1 .507327 .991113 .574408
2 1 .991280 .609764 .502517
3 1 .788070 .007149 .472232
4 1 .185146 .023370 .446368
5 1 .008939 .630231 .489215
6 1 .489573 .428466 .993376
7 1 .499709 .473532 .015439
ITEM: TIMESTEP
400
ITEM: NUMBER OF ATOMS
7
ITEM: BOX BOUNDS ss ss ss
-2.9665 3.3544
-2.6369 3.3720
-1.9736 2.0050
ITEM: ATOMS id type xs ys zs
1 1 .507455 .987193 .577597
2 1 .992288 .608804 .500033
3 1 .789622 .004942 .469358
4 1 .186824 .020859 .444883
5 1 .007409 .630000 .486174
6 1 .489858 .426024 .987301
7 1 .500585 .472356 .012954
ITEM: TIMESTEP
1
ITEM: NUMBER OF ATOMS
7
ITEM: BOX BOUNDS ss ss ss
-2.9584 3.3539
-2.6270 3.3518
-1.9740 2.0019
ITEM: ATOMS id type xs ys zs
1 1 .504510 .990126 .571381
2 1 .998064 .608840 .499685
3 1 .792149 .009283 .473957
4 1 .184875 .019436 .446903
5 1 .003981 .630635 .480061
6 1 .488975 .429424 .990765
7 1 .502237 .475232 .017692
ITEM: TIMESTEP
50
ITEM: NUMBER OF ATOMS
7
ITEM: BOX BOUNDS ss ss ss
-2.9614 3.3716
-2.6270 3.3518
-1.9740 2.0019
ITEM: ATOMS id type xs ys zs
1 1 .503051 .988629 .572874
2 1 .995052 .609554 .500008
3 1 .791362 .008554 .475798
4 1 .185426 .017875 .445846
5 1 .006528 .631677 .478131
6 1 .487451 .430079 .990011
7 1 .501044 .475950 .017694
ITEM: TIMESTEP
100
ITEM: NUMBER OF ATOMS
7
ITEM: BOX BOUNDS ss ss ss
-2.9707 3.3870
-2.6270 3.3518
-1.9740 2.0019
ITEM: ATOMS id type xs ys zs
1 1 .504988 .989196 .571694
2 1 .993559 .610526 .497086
3 1 .789747 .008483 .474269
4 1 .189102 .018631 .443201
5 1 .004585 .625964 .478546
6 1 .487339 .429647 .988948
7 1 .497344 .474141 .015198
ITEM: TIMESTEP
150
ITEM: NUMBER OF ATOMS
7
ITEM: BOX BOUNDS ss ss ss
-2.9764 3.3807
-2.6270 3.3518
-1.9740 2.0066
ITEM: ATOMS id type xs ys zs
1 1 .506472 .988942 .569970
2 1 .994767 .610127 .494598
3 1 .791203 .007567 .471479
4 1 .189420 .019933 .443157
5 1 .004893 .625376 .477976
6 1 .489729 .428287 .987893
7 1 .496817 .473590 .015384
ITEM: TIMESTEP
200
ITEM: NUMBER OF ATOMS
7
ITEM: BOX BOUNDS ss ss ss
-2.9772 3.3801
-2.6270 3.3518
-1.9740 2.0146
ITEM: ATOMS id type xs ys zs
1 1 .504078 .990475 .576693
2 1 .991065 .611704 .497147
3 1 .790353 .008757 .474479
4 1 .186364 .021442 .449393
5 1 .004774 .633397 .476006
6 1 .487118 .428723 .986637
7 1 .498960 .473327 .020085
ITEM: TIMESTEP
250
ITEM: NUMBER OF ATOMS
7
ITEM: BOX BOUNDS ss ss ss
-2.9771 3.3747
-2.6320 3.3509
-1.9740 2.0051
ITEM: ATOMS id type xs ys zs
1 1 .504969 .990872 .582906
2 1 .992560 .612857 .499099
3 1 .792427 .011962 .479083
4 1 .186670 .021856 .451651
5 1 .004396 .634358 .480064
6 1 .485499 .427587 .988365
7 1 .500328 .472824 .017759
ITEM: TIMESTEP
300
ITEM: NUMBER OF ATOMS
7
ITEM: BOX BOUNDS ss ss ss
-2.9767 3.3704
-2.6327 3.3564
-1.9677 2.0019
ITEM: ATOMS id type xs ys zs
1 1 .507554 .991494 .573163
2 1 .990184 .605902 .500326
3 1 .786851 .006491 .476921
4 1 .182920 .018691 .442115
5 1 .010715 .631253 .484281
6 1 .490386 .429066 .989397
7 1 .500617 .478226 .009816
ITEM: TIMESTEP
350
ITEM: NUMBER OF ATOMS
7
ITEM: BOX BOUNDS ss ss ss
-2.9626 3.3819
-2.6360 3.3560
-1.9687 2.0096
ITEM: ATOMS id type xs ys zs
1 1 .505520 .991909 .570105
2 1 .987894 .608449 .499613
3 1 .786205 .006669 .474824
4 1 .183325 .021030 .443393
5 1 .008841 .634411 .485106
6 1 .484887 .432599 .983824
7 1 .499673 .472382 .008604
ITEM: TIMESTEP
400
ITEM: NUMBER OF ATOMS
7
ITEM: BOX BOUNDS ss ss ss
-2.9595 3.3600
-2.6384 3.3538
-1.9698 2.0026
ITEM: ATOMS id type xs ys zs
1 1 .506816 .990028 .569404
2 1 .991788 .608980 .500074
3 1 .788576 .007524 .475308
4 1 .182874 .019461 .444625
5 1 .009751 .634901 .485007
6 1 .486768 .432964 .986036
7 1 .500981 .474090 .006387
ITEM: TIMESTEP
1
ITEM: NUMBER OF ATOMS
7
ITEM: BOX BOUNDS ss ss ss
-2.9547 3.3535
-2.6364 3.3570
-1.9686 1.9996
ITEM: ATOMS id type xs ys zs
1 1 .504450 .989637 .571089
2 1 .998261 .608804 .499523
3 1 .791794 .010510 .473198
4 1 .184524 .021027 .446496
5 1 .003375 .630785 .479268
6 1 .488868 .429668 .991737
7 1 .502144 .475554 .015868
ITEM: TIMESTEP
50
ITEM: NUMBER OF ATOMS
7
ITEM: BOX BOUNDS ss ss ss
-2.9608 3.3724
-2.6364 3.3570
-1.9686 1.9996
ITEM: ATOMS id type xs ys zs
1 1 .502960 .988735 .571057
2 1 .996013 .610528 .498948
3 1 .788962 .010056 .473996
4 1 .184572 .023256 .447560
5 1 .003647 .628784 .475895
6 1 .486547 .429240 .995737
7 1 .500824 .475142 .018703
ITEM: TIMESTEP
100
ITEM: NUMBER OF ATOMS
7
ITEM: BOX BOUNDS ss ss ss
-2.9714 3.3776
-2.6364 3.3570
-1.9686 1.9996
ITEM: ATOMS id type xs ys zs
1 1 .507542 .987886 .570042
2 1 .994988 .609919 .497271
3 1 .788814 .011943 .473293
4 1 .186994 .019897 .447031
5 1 .006441 .630899 .476407
6 1 .488041 .428274 .992301
7 1 .498666 .476880 .010836
ITEM: TIMESTEP
150
ITEM: NUMBER OF ATOMS
7
ITEM: BOX BOUNDS ss ss ss
-2.9804 3.3806
-2.6364 3.3570
-1.9686 2.0084
ITEM: ATOMS id type xs ys zs
1 1 .501813 .990340 .571295
2 1 .994944 .612383 .501347
3 1 .788545 .010090 .474430
4 1 .185624 .019936 .443635
5 1 .006238 .631488 .484330
6 1 .490110 .427900 .988506
7 1 .498599 .474316 .012291
ITEM: TIMESTEP
200
ITEM: NUMBER OF ATOMS
7
ITEM: BOX BOUNDS ss ss ss
-2.9754 3.3767
-2.6364 3.3570
-1.9686 2.0096
ITEM: ATOMS id type xs ys zs
1 1 .511134 .989761 .570459
2 1 .994706 .611330 .494787
3 1 .793191 .011264 .473251
4 1 .185880 .021831 .445565
5 1 .001990 .630158 .480723
6 1 .486612 .427876 .985657
7 1 .498784 .474376 .015813
ITEM: TIMESTEP
250
ITEM: NUMBER OF ATOMS
7
ITEM: BOX BOUNDS ss ss ss
-2.9742 3.3809
-2.6364 3.3570
-1.9686 2.0065
ITEM: ATOMS id type xs ys zs
1 1 .508503 .988179 .567875
2 1 .994695 .606973 .495688
3 1 .788628 .010278 .473593
4 1 .186032 .020736 .446108
5 1 .010349 .629152 .483691
6 1 .490971 .433560 .986685
7 1 .498950 .472361 .009376
ITEM: TIMESTEP
300
ITEM: NUMBER OF ATOMS
7
ITEM: BOX BOUNDS ss ss ss
-2.9690 3.3723
-2.6288 3.3518
-1.9731 2.0082
ITEM: ATOMS id type xs ys zs
1 1 .507763 .988803 .567341
2 1 .995213 .607849 .494459
3 1 .787788 .010183 .473691
4 1 .186305 .018748 .448835
5 1 .009427 .629079 .486712
6 1 .489832 .433236 .988708
7 1 .498498 .470695 .011687
ITEM: TIMESTEP
350
ITEM: NUMBER OF ATOMS
7
ITEM: BOX BOUNDS ss ss ss
-2.9657 3.3750
-2.6366 3.3518
-1.9786 2.0078
ITEM: ATOMS id type xs ys zs
1 1 .500558 .992735 .572816
2 1 .988888 .611052 .496540
3 1 .791331 .007190 .475083
4 1 .184729 .020004 .444520
5 1 .006806 .626892 .481755
6 1 .489007 .431669 .987954
7 1 .501148 .473678 .010701
ITEM: TIMESTEP
400
ITEM: NUMBER OF ATOMS
7
ITEM: BOX BOUNDS ss ss ss
-2.9803 3.3717
-2.6316 3.3553
-1.9812 2.0094
ITEM: ATOMS id type xs ys zs
1 1 .499847 .991798 .572403
2 1 .990671 .610124 .496173
3 1 .789732 .007599 .475819
4 1 .186008 .018134 .448433
5 1 .008474 .625780 .480948
6 1 .490505 .430409 .989912
7 1 .503007 .475250 .008904
ITEM: TIMESTEP
1
ITEM: NUMBER OF ATOMS
7
ITEM: BOX BOUNDS ss ss ss
-2.9606 3.3720
-2.6346 3.3538
-1.9769 2.0010
ITEM: ATOMS id type xs ys zs
1 1 .503076 .990062 .571946
2 1 .995119 .608952 .499792
3 1 .790044 .010222 .474580
4 1 .184825 .020774 .446795
5 1 .004315 .630792 .480722
6 1 .487682 .429589 .991567
7 1 .500923 .475439 .018040
ITEM: TIMESTEP
50
ITEM: NUMBER OF ATOMS
7
ITEM: BOX BOUNDS ss ss ss
-2.9647 3.3763
-2.6309 3.3538
-1.9769 2.0010
ITEM: ATOMS id type xs ys zs
1 1 .504529 .990644 .569906
2 1 .996291 .609936 .498213
3 1 .789900 .010760 .475111
4 1 .186032 .019418 .444503
5 1 .006108 .631263 .481996
6 1 .487723 .429358 .991820
7 1 .501023 .476714 .019642
ITEM: TIMESTEP
100
ITEM: NUMBER OF ATOMS
7
ITEM: BOX BOUNDS ss ss ss
-2.9747 3.3830
-2.6309 3.3538
-1.9769 2.0017
ITEM: ATOMS id type xs ys zs
1 1 .503852 .989391 .569697
2 1 .994887 .609893 .498262
3 1 .789145 .009866 .471908
4 1 .185435 .018961 .445852
5 1 .009215 .630537 .479362
6 1 .486045 .428235 .992103
7 1 .503635 .480613 .018714
ITEM: TIMESTEP
150
ITEM: NUMBER OF ATOMS
7
ITEM: BOX BOUNDS ss ss ss
-2.9789 3.3821
-2.6309 3.3450
-1.9769 2.0104
ITEM: ATOMS id type xs ys zs
1 1 .503156 .992851 .568016
2 1 .995317 .608400 .499366
3 1 .788368 .010521 .477865
4 1 .186006 .019394 .446200
5 1 .005254 .629806 .478520
6 1 .486813 .431640 .987619
7 1 .501737 .473713 .021587
ITEM: TIMESTEP
200
ITEM: NUMBER OF ATOMS
7
ITEM: BOX BOUNDS ss ss ss
-2.9827 3.3848
-2.6309 3.3450
-1.9769 2.0082
ITEM: ATOMS id type xs ys zs
1 1 .505708 .991786 .577572
2 1 .994349 .610352 .499276
3 1 .787591 .002669 .475290
4 1 .186618 .020740 .450214
5 1 .007316 .630258 .475917
6 1 .487738 .430948 .982399
7 1 .500481 .475427 .014050
ITEM: TIMESTEP
250
ITEM: NUMBER OF ATOMS
7
ITEM: BOX BOUNDS ss ss ss
-2.9804 3.3884
-2.6292 3.3450
-1.9739 2.0075
ITEM: ATOMS id type xs ys zs
1 1 .504338 .992182 .578559
2 1 .988505 .613562 .500890
3 1 .785721 .011496 .470110
4 1 .186921 .022120 .450080
5 1 .008086 .633554 .481594
6 1 .482861 .432166 .989345
7 1 .502074 .476666 .010573
ITEM: TIMESTEP
300
ITEM: NUMBER OF ATOMS
7
ITEM: BOX BOUNDS ss ss ss
-2.9870 3.3816
-2.6278 3.3441
-1.9677 2.0155
ITEM: ATOMS id type xs ys zs
1 1 .505909 .991222 .574073
2 1 .990900 .612438 .497652
3 1 .786121 .010547 .467360
4 1 .187912 .019902 .446227
5 1 .011133 .633067 .477422
6 1 .483206 .431177 .985186
7 1 .505068 .477914 .010303
ITEM: TIMESTEP
350
ITEM: NUMBER OF ATOMS
7
ITEM: BOX BOUNDS ss ss ss
-2.9864 3.3771
-2.6214 3.3453
-1.9737 2.0170
ITEM: ATOMS id type xs ys zs
1 1 .501899 .996071 .577558
2 1 .992161 .609487 .498353
3 1 .788381 .002600 .474830
4 1 .187216 .018629 .453417
5 1 .011190 .629184 .478485
6 1 .491243 .431513 .983519
7 1 .503728 .475508 .014521
ITEM: TIMESTEP
400
ITEM: NUMBER OF ATOMS
7
ITEM: BOX BOUNDS ss ss ss
-2.9821 3.3787
-2.6260 3.3512
-1.9734 2.0196
ITEM: ATOMS id type xs ys zs
1 1 .505764 .992715 .574952
2 1 .990195 .614166 .510557
3 1 .789522 .009923 .469543
4 1 .184964 .019571 .444174
5 1 .009007 .633932 .473007
6 1 .483481 .430280 .983747
7 1 .501847 .477161 .010860
ITEM: TIMESTEP
1
ITEM: NUMBER OF ATOMS
7
ITEM: BOX BOUNDS ss ss ss
-2.9659 3.3561
-2.6116 3.3515
-1.9709 2.0174
ITEM: ATOMS id type xs ys zs
1 1 .504939 .989840 .568722
2 1 .998031 .607816 .497593
3 1 .792215 .006500 .472058
4 1 .185769 .016866 .444097
5 1 .005199 .629798 .477721
6 1 .489272 .427492 .987144
7 1 .502776 .473679 .016441
ITEM: TIMESTEP
50
ITEM: NUMBER OF ATOMS
7
ITEM: BOX BOUNDS ss ss ss
-2.9659 3.3723
-2.6116 3.3515
-1.9709 2.0174
ITEM: ATOMS id type xs ys zs
1 1 .503983 .990131 .571186
2 1 .995122 .606086 .498200
3 1 .788473 .004846 .473270
4 1 .186329 .016966 .448088
5 1 .005461 .629916 .478460
6 1 .488168 .427220 .986722
7 1 .503007 .475113 .012315
ITEM: TIMESTEP
100
ITEM: NUMBER OF ATOMS
7
ITEM: BOX BOUNDS ss ss ss
-2.9813 3.3810
-2.6116 3.3515
-1.9709 2.0174
ITEM: ATOMS id type xs ys zs
1 1 .504745 .989333 .567691
2 1 .993204 .607118 .500711
3 1 .787564 .008476 .472289
4 1 .184846 .018704 .446027
5 1 .005356 .629304 .478661
6 1 .487286 .430392 .988225
7 1 .500487 .475211 .015323
ITEM: TIMESTEP
150
ITEM: NUMBER OF ATOMS
7
ITEM: BOX BOUNDS ss ss ss
-2.9828 3.3902
-2.6160 3.3515
-1.9709 2.0174
ITEM: ATOMS id type xs ys zs
1 1 .501965 .989063 .565235
2 1 .989616 .610052 .498383
3 1 .787924 .005529 .472448
4 1 .189082 .019700 .444612
5 1 .006158 .628062 .480193
6 1 .489697 .426904 .986670
7 1 .501666 .473445 .015029
ITEM: TIMESTEP
200
ITEM: NUMBER OF ATOMS
7
ITEM: BOX BOUNDS ss ss ss
-2.9857 3.3852
-2.6188 3.3515
-1.9709 2.0174
ITEM: ATOMS id type xs ys zs
1 1 .502595 .988655 .574474
2 1 .991074 .609665 .505326
3 1 .790642 .007371 .472717
4 1 .188295 .019813 .441405
5 1 .008661 .628361 .473194
6 1 .491238 .428776 .985022
7 1 .502663 .470623 .013932
ITEM: TIMESTEP
250
ITEM: NUMBER OF ATOMS
7
ITEM: BOX BOUNDS ss ss ss
-2.9781 3.3732
-2.6312 3.3515
-1.9709 2.0174
ITEM: ATOMS id type xs ys zs
1 1 .502986 .988771 .576644
2 1 .993918 .612751 .506217
3 1 .791169 .008938 .473721
4 1 .190599 .019860 .442065
5 1 .008624 .630077 .474219
6 1 .491672 .433038 .981120
7 1 .501029 .472292 .010993
ITEM: TIMESTEP
300
ITEM: NUMBER OF ATOMS
7
ITEM: BOX BOUNDS ss ss ss
-2.9801 3.3773
-2.6267 3.3515
-1.9709 2.0128
ITEM: ATOMS id type xs ys zs
1 1 .505265 .993506 .576283
2 1 .991329 .609094 .506213
3 1 .789220 .009580 .468269
4 1 .188089 .019591 .454584
5 1 .011486 .629382 .482409
6 1 .489775 .434015 .986885
7 1 .502167 .475613 .012438
ITEM: TIMESTEP
350
ITEM: NUMBER OF ATOMS
7
ITEM: BOX BOUNDS ss ss ss
-2.9765 3.3688
-2.6417 3.3615
-1.9709 2.0189
ITEM: ATOMS id type xs ys zs
1 1 .505526 .994753 .579228
2 1 .992265 .608596 .504054
3 1 .791301 .012191 .466437
4 1 .187837 .022414 .453359
5 1 .010187 .630737 .480603
6 1 .491655 .434184 .985202
7 1 .503262 .475181 .010686
ITEM: TIMESTEP
400
ITEM: NUMBER OF ATOMS
7
ITEM: BOX BOUNDS ss ss ss
-2.9852 3.3650
-2.6406 3.3521
-1.9734 2.0123
ITEM: ATOMS id type xs ys zs
1 1 .505996 .995773 .580034
2 1 .992313 .608080 .502236
3 1 .792675 .012004 .472381
4 1 .188145 .019838 .452180
5 1 .010585 .630639 .481757
6 1 .495466 .435111 .986168
7 1 .502527 .474894 .012431
ITEM: TIMESTEP
1
ITEM: NUMBER OF ATOMS
7
ITEM: BOX BOUNDS ss ss ss
-2.9663 3.3591
-2.6267 3.3515
-1.9775 2.0090
ITEM: ATOMS id type xs ys zs
1 1 .505072 .990242 .570486
2 1 .997540 .608674 .499379
3 1 .791744 .009000 .473899
4 1 .185859 .019115 .446158
5 1 .005312 .630531 .479283
6 1 .489052 .429121 .989408
7 1 .502368 .474579 .017866
ITEM: TIMESTEP
50
ITEM: NUMBER OF ATOMS
7
ITEM: BOX BOUNDS ss ss ss
-2.9663 3.3767
-2.6267 3.3515
-1.9775 2.0090
ITEM: ATOMS id type xs ys zs
1 1 .505524 .991647 .571146
2 1 .995402 .607162 .497198
3 1 .790348 .008910 .477270
4 1 .185428 .018560 .441864
5 1 .005322 .629893 .479302
6 1 .484875 .427793 .990334
7 1 .500216 .475194 .018152
ITEM: TIMESTEP
100
ITEM: NUMBER OF ATOMS
7
ITEM: BOX BOUNDS ss ss ss
-2.9756 3.3868
-2.6267 3.3515
-1.9775 2.0090
ITEM: ATOMS id type xs ys zs
1 1 .506181 .993610 .571674
2 1 .995423 .608202 .499038
3 1 .788792 .008787 .479363
4 1 .185683 .017404 .438729
5 1 .006952 .628846 .476484
6 1 .485551 .427153 .989069
7 1 .499127 .477289 .015814
ITEM: TIMESTEP
150
ITEM: NUMBER OF ATOMS
7
ITEM: BOX BOUNDS ss ss ss
-2.9821 3.3879
-2.6267 3.3515
-1.9775 2.0138
ITEM: ATOMS id type xs ys zs
1 1 .506434 .991898 .567853
2 1 .992050 .609155 .499444
3 1 .786733 .009281 .474272
4 1 .186931 .016497 .447551
5 1 .002813 .629426 .478706
6 1 .485233 .430924 .988775
7 1 .501176 .473371 .018269
ITEM: TIMESTEP
200
ITEM: NUMBER OF ATOMS
7
ITEM: BOX BOUNDS ss ss ss
-2.9866 3.3908
-2.6267 3.3515
-1.9775 2.0120
ITEM: ATOMS id type xs ys zs
1 1 .506844 .990669 .566941
2 1 .992356 .608025 .500735
3 1 .784481 .010389 .474907
4 1 .186390 .015792 .445722
5 1 .002386 .630107 .476480
6 1 .485444 .431595 .987384
7 1 .501110 .472816 .020281
ITEM: TIMESTEP
250
ITEM: NUMBER OF ATOMS
7
ITEM: BOX BOUNDS ss ss ss
-2.9832 3.3837
-2.6267 3.3515
-1.9775 2.0187
ITEM: ATOMS id type xs ys zs
1 1 .508658 .994621 .573478
2 1 .990025 .609516 .494753
3 1 .785573 .011241 .471893
4 1 .186353 .017043 .452028
5 1 .010462 .630715 .473997
6 1 .486821 .432966 .987348
7 1 .500630 .477166 .017864
ITEM: TIMESTEP
300
ITEM: NUMBER OF ATOMS
7
ITEM: BOX BOUNDS ss ss ss
-2.9695 3.3809
-2.6293 3.3515
-1.9775 2.0211
ITEM: ATOMS id type xs ys zs
1 1 .507251 .992505 .581863
2 1 .987934 .608259 .496342
3 1 .786887 .006773 .469885
4 1 .187828 .018324 .441377
5 1 .005572 .629841 .478681
6 1 .487886 .431497 .984434
7 1 .503682 .475630 .016287
ITEM: TIMESTEP
350
ITEM: NUMBER OF ATOMS
7
ITEM: BOX BOUNDS ss ss ss
-2.9881 3.3792
-2.6320 3.3515
-1.9775 2.0180
ITEM: ATOMS id type xs ys zs
1 1 .507046 .991699 .572322
2 1 .989472 .606256 .495753
3 1 .789955 .008905 .475179
4 1 .187286 .020033 .446834
5 1 .008880 .630164 .478523
6 1 .491975 .424764 .980357
7 1 .501437 .473511 .011749
ITEM: TIMESTEP
400
ITEM: NUMBER OF ATOMS
7
ITEM: BOX BOUNDS ss ss ss
-2.9758 3.3836
-2.6340 3.3515
-1.9775 2.0109
ITEM: ATOMS id type xs ys zs
1 1 .507133 .992145 .567715
2 1 .991499 .611145 .499031
3 1 .792575 .010327 .481398
4 1 .187808 .018524 .442055
5 1 .007162 .629322 .478883
6 1 .486859 .430931 .980063
7 1 .505253 .474103 .018012
ITEM: TIMESTEP
1
ITEM: NUMBER OF ATOMS
7
ITEM: BOX BOUNDS ss ss ss
-2.9745 3.3805
-2.6372 3.3515
-1.9800 2.0022
ITEM: ATOMS id type xs ys zs
1 1 .503751 .990152 .571900
2 1 .993681 .609718 .500283
3 1 .789269 .010401 .474725
4 1 .186311 .021128 .447127
5 1 .006679 .631274 .480304
6 1 .488189 .430209 .991298
7 1 .501528 .475940 .018813
ITEM: TIMESTEP
50
ITEM: NUMBER OF ATOMS
7
ITEM: BOX BOUNDS ss ss ss
-2.9745 3.3805
-2.6372 3.3515
-1.9800 2.0022
ITEM: ATOMS id type xs ys zs
1 1 .505485 .989671 .572381
2 1 .994089 .612418 .498955
3 1 .792762 .009908 .476167
4 1 .185222 .019199 .445120
5 1 .007293 .632468 .478218
6 1 .485920 .429818 .992197
7 1 .499211 .477524 .020607
ITEM: TIMESTEP
100
ITEM: NUMBER OF ATOMS
7
ITEM: BOX BOUNDS ss ss ss
-2.9783 3.3875
-2.6372 3.3515
-1.9800 2.0093
ITEM: ATOMS id type xs ys zs
1 1 .502148 .991994 .572855
2 1 .996125 .610936 .499211
3 1 .785191 .012783 .474146
4 1 .185228 .020910 .444842
5 1 .005889 .632522 .479010
6 1 .488258 .427534 .991790
7 1 .503421 .476024 .015509
ITEM: TIMESTEP
150
ITEM: NUMBER OF ATOMS
7
ITEM: BOX BOUNDS ss ss ss
-2.9879 3.3864
-2.6372 3.3515
-1.9800 2.0164
ITEM: ATOMS id type xs ys zs
1 1 .506188 .992634 .571856
2 1 .994431 .607896 .488458
3 1 .787639 .008893 .473362
4 1 .190568 .022419 .445231
5 1 .006928 .633146 .479989
6 1 .489193 .433610 .985254
7 1 .496478 .474124 .017992
ITEM: TIMESTEP
200
ITEM: NUMBER OF ATOMS
7
ITEM: BOX BOUNDS ss ss ss
-2.9862 3.3855
-2.6359 3.3515
-1.9753 2.0103
ITEM: ATOMS id type xs ys zs
1 1 .509792 .987152 .574714
2 1 .994267 .611638 .500627
3 1 .791432 .011319 .473543
4 1 .190622 .021466 .448554
5 1 .009651 .631628 .473178
6 1 .486128 .427733 .991860
7 1 .503543 .473352 .010754
ITEM: TIMESTEP
250
ITEM: NUMBER OF ATOMS
7
ITEM: BOX BOUNDS ss ss ss
-2.9779 3.3826
-2.6359 3.3515
-1.9753 2.0081
ITEM: ATOMS id type xs ys zs
1 1 .510510 .985403 .577729
2 1 .997870 .611403 .499965
3 1 .790748 .011174 .475303
4 1 .187685 .022921 .450705
5 1 .007751 .631537 .473241
6 1 .485229 .425209 .989688
7 1 .503360 .473981 .012229
ITEM: TIMESTEP
300
ITEM: NUMBER OF ATOMS
7
ITEM: BOX BOUNDS ss ss ss
-2.9729 3.3795
-2.6359 3.3515
-1.9830 2.0233
ITEM: ATOMS id type xs ys zs
1 1 .506896 .988059 .574653
2 1 .991211 .612300 .498726
3 1 .788294 .014894 .469594
4 1 .186984 .017047 .443692
5 1 .011027 .627844 .473637
6 1 .489379 .430095 .986050
7 1 .499626 .474480 .010617
ITEM: TIMESTEP
350
ITEM: NUMBER OF ATOMS
7
ITEM: BOX BOUNDS ss ss ss
-2.9710 3.3849
-2.6346 3.3515
-1.9868 2.0186
ITEM: ATOMS id type xs ys zs
1 1 .504975 .991588 .566267
2 1 .991308 .612323 .490453
3 1 .791601 .013827 .477931
4 1 .187256 .023320 .458301
5 1 .011527 .632199 .482030
6 1 .486820 .431771 .977512
7 1 .502127 .471152 .014420
ITEM: TIMESTEP
400
ITEM: NUMBER OF ATOMS
7
ITEM: BOX BOUNDS ss ss ss
-2.9690 3.3739
-2.6346 3.3515
-2.0018 2.0190
ITEM: ATOMS id type xs ys zs
1 1 .504071 .991551 .575091
2 1 .987090 .607318 .505371
3 1 .785390 .012358 .480246
4 1 .188778 .020008 .447774
5 1 .009495 .628809 .483291
6 1 .485553 .428382 .988904
7 1 .497381 .479442 .010396
ITEM: TIMESTEP
1
ITEM: NUMBER OF ATOMS
7
ITEM: BOX BOUNDS ss ss ss
-2.9548 3.3650
-2.6346 3.3515
-2.0071 2.0085
ITEM: ATOMS id type xs ys zs
1 1 .503415 .990367 .573766
2 1 .996516 .609349 .503040
3 1 .790865 .010181 .477595
4 1 .184138 .020829 .449977
5 1 .003297 .631261 .483717
6 1 .487606 .430154 .989540
7 1 .500910 .475773 .025410
ITEM: TIMESTEP
50
ITEM: NUMBER OF ATOMS
7
ITEM: BOX BOUNDS ss ss ss
-2.9698 3.3768
-2.6346 3.3515
-2.0071 2.0085
ITEM: ATOMS id type xs ys zs
1 1 .502990 .991230 .573779
2 1 .996782 .609067 .499328
3 1 .788617 .009205 .478356
4 1 .185579 .023822 .451045
5 1 .004823 .632753 .478354
6 1 .488423 .430930 .993148
7 1 .502928 .476009 .026054
ITEM: TIMESTEP
100
ITEM: NUMBER OF ATOMS
7
ITEM: BOX BOUNDS ss ss ss
-2.9776 3.3900
-2.6346 3.3515
-2.0071 2.0085
ITEM: ATOMS id type xs ys zs
1 1 .505772 .991284 .575330
2 1 .992023 .611780 .500403
3 1 .789674 .010198 .476232
4 1 .185811 .020909 .450731
5 1 .007452 .631087 .482140
6 1 .487870 .428421 .989175
7 1 .501627 .479037 .025776
ITEM: TIMESTEP
150
ITEM: NUMBER OF ATOMS
7
ITEM: BOX BOUNDS ss ss ss
-2.9916 3.3906
-2.6346 3.3515
-2.0037 2.0183
ITEM: ATOMS id type xs ys zs
1 1 .508360 .989255 .572895
2 1 .995375 .605498 .497572
3 1 .790528 .009597 .482661
4 1 .188266 .023954 .453066
5 1 .011940 .633903 .478198
6 1 .486882 .431514 .985634
7 1 .502709 .474627 .021477
ITEM: TIMESTEP
200
ITEM: NUMBER OF ATOMS
7
ITEM: BOX BOUNDS ss ss ss
-2.9864 3.4039
-2.6346 3.3515
-2.0037 2.0170
ITEM: ATOMS id type xs ys zs
1 1 .507518 .990078 .577079
2 1 .994040 .603419 .493426
3 1 .788243 .011477 .481904
4 1 .185433 .023082 .453169
5 1 .009407 .637745 .476313
6 1 .485780 .431948 .987438
7 1 .499762 .474970 .022088
ITEM: TIMESTEP
250
ITEM: NUMBER OF ATOMS
7
ITEM: BOX BOUNDS ss ss ss
-2.9852 3.3908
-2.6346 3.3515
-1.9960 2.0139
ITEM: ATOMS id type xs ys zs
1 1 .510733 .989869 .579898
2 1 .989718 .609662 .500462
3 1 .790216 .010575 .476942
4 1 .189928 .020979 .451932
5 1 .011202 .636010 .478603
6 1 .487618 .431083 .986579
7 1 .504920 .474852 .021738
ITEM: TIMESTEP
300
ITEM: NUMBER OF ATOMS
7
ITEM: BOX BOUNDS ss ss ss
-2.9819 3.4000
-2.6373 3.3524
-1.9960 2.0197
ITEM: ATOMS id type xs ys zs
1 1 .506462 .987625 .574152
2 1 .987696 .609037 .495571
3 1 .792548 .007759 .474853
4 1 .192274 .023095 .447152
5 1 .010050 .628029 .479354
6 1 .490209 .431095 .989463
7 1 .502992 .472881 .021204
ITEM: TIMESTEP
350
ITEM: NUMBER OF ATOMS
7
ITEM: BOX BOUNDS ss ss ss
-2.9781 3.3891
-2.6346 3.3529
-1.9960 2.0250
ITEM: ATOMS id type xs ys zs
1 1 .505346 .991702 .586083
2 1 .989666 .612809 .500855
3 1 .790334 .008309 .483507
4 1 .190470 .022531 .449831
5 1 .009582 .636090 .471869
6 1 .487447 .432322 .982457
7 1 .503314 .479006 .018520
ITEM: TIMESTEP
400
ITEM: NUMBER OF ATOMS
7
ITEM: BOX BOUNDS ss ss ss
-2.9764 3.3778
-2.6346 3.3526
-1.9753 2.0122
ITEM: ATOMS id type xs ys zs
1 1 .506048 .991516 .588344
2 1 .992064 .611062 .498357
3 1 .792986 .008780 .482828
4 1 .191733 .022026 .449698
5 1 .008103 .636828 .471236
6 1 .489000 .432862 .984401
7 1 .503826 .480266 .014039
ITEM: TIMESTEP
1
ITEM: NUMBER OF ATOMS
7
ITEM: BOX BOUNDS ss ss ss
-2.9675 3.3737
-2.6086 3.3467
-1.9609 2.0112
ITEM: ATOMS id type xs ys zs
1 1 .503494 .991163 .568647
2 1 .994912 .608335 .496792
3 1 .789959 .005982 .471585
4 1 .185399 .016221 .443576
5 1 .005246 .629829 .477160
6 1 .487975 .427825 .988865
7 1 .501249 .473988 .014493
ITEM: TIMESTEP
50
ITEM: NUMBER OF ATOMS
7
ITEM: BOX BOUNDS ss ss ss
-2.9675 3.3762
-2.6086 3.3467
-1.9609 2.0112
ITEM: ATOMS id type xs ys zs
1 1 .503032 .990158 .568518
2 1 .995528 .608000 .494628
3 1 .789448 .008786 .469551
4 1 .185362 .016201 .444022
5 1 .005619 .629401 .476610
6 1 .488135 .428022 .989260
7 1 .502014 .473405 .014036
ITEM: TIMESTEP
100
ITEM: NUMBER OF ATOMS
7
ITEM: BOX BOUNDS ss ss ss
-2.9761 3.3872
-2.6140 3.3467
-1.9609 2.0112
ITEM: ATOMS id type xs ys zs
1 1 .502424 .989422 .569099
2 1 .991163 .608252 .495539
3 1 .787654 .007346 .472355
4 1 .187560 .017839 .447283
5 1 .005265 .626550 .479528
6 1 .485394 .427668 .991455
7 1 .503596 .472245 .015372
ITEM: TIMESTEP
150
ITEM: NUMBER OF ATOMS
7
ITEM: BOX BOUNDS ss ss ss
-2.9872 3.4074
-2.6226 3.3467
-1.9609 2.0112
ITEM: ATOMS id type xs ys zs
1 1 .502086 .988155 .574492
2 1 .989140 .611193 .499261
3 1 .786582 .006318 .467911
4 1 .184763 .020824 .437199
5 1 .007791 .628639 .478135
6 1 .492077 .428717 .980890
7 1 .499687 .474781 .016021
ITEM: TIMESTEP
200
ITEM: NUMBER OF ATOMS
7
ITEM: BOX BOUNDS ss ss ss
-2.9893 3.3950
-2.6209 3.3467
-1.9637 2.0196
ITEM: ATOMS id type xs ys zs
1 1 .506606 .988682 .570726
2 1 .987781 .608997 .497820
3 1 .788997 .007708 .467419
4 1 .189931 .019094 .440861
5 1 .008678 .632327 .472904
6 1 .484279 .428579 .990298
7 1 .505702 .477614 .011703
ITEM: TIMESTEP
250
ITEM: NUMBER OF ATOMS
7
ITEM: BOX BOUNDS ss ss ss
-2.9802 3.3868
-2.6197 3.3457
-1.9674 2.0112
ITEM: ATOMS id type xs ys zs
1 1 .504829 .993702 .572873
2 1 .994845 .610114 .498982
3 1 .791396 .008686 .470993
4 1 .185622 .019530 .440238
5 1 .004631 .630453 .469013
6 1 .488272 .426949 .982167
7 1 .502564 .479826 .014168
ITEM: TIMESTEP
300
ITEM: NUMBER OF ATOMS
7
ITEM: BOX BOUNDS ss ss ss
-2.9743 3.3760
-2.6238 3.3457
-1.9713 2.0028
ITEM: ATOMS id type xs ys zs
1 1 .500862 .991271 .568120
2 1 .990825 .611487 .509601
3 1 .791873 .007307 .470079
4 1 .183377 .018989 .450073
5 1 .008271 .628761 .477670
6 1 .486517 .427773 .987238
7 1 .504434 .476218 .011362
ITEM: TIMESTEP
350
ITEM: NUMBER OF ATOMS
7
ITEM: BOX BOUNDS ss ss ss
-2.9680 3.3719
-2.6308 3.3457
-1.9825 2.0028
ITEM: ATOMS id type xs ys zs
1 1 .502810 .992237 .572758
2 1 .988324 .611195 .507181
3 1 .790724 .009169 .479989
4 1 .184993 .020311 .447880
5 1 .008691 .633286 .473685
6 1 .483805 .427125 .985769
7 1 .501062 .471280 .013868
ITEM: TIMESTEP
400
ITEM: NUMBER OF ATOMS
7
ITEM: BOX BOUNDS ss ss ss
-2.9791 3.3664
-2.6300 3.3457
-1.9890 1.9984
ITEM: ATOMS id type xs ys zs
1 1 .503190 .990176 .570542
2 1 .990589 .615640 .505675
3 1 .790221 .012216 .476330
4 1 .185834 .023697 .450155
5 1 .007090 .632240 .477916
6 1 .489257 .434327 .985622
7 1 .506122 .474850 .007181
ITEM: TIMESTEP
1
ITEM: NUMBER OF ATOMS
7
ITEM: BOX BOUNDS ss ss ss
-2.9607 3.3679
-2.6276 3.3490
-1.9910 1.9996
ITEM: ATOMS id type xs ys zs
1 1 .503812 .990574 .573572
2 1 .996256 .609205 .502531
3 1 .790330 .009412 .476482
4 1 .184858 .019417 .448670
5 1 .004100 .630716 .482201
6 1 .488015 .429534 .991527
7 1 .501391 .475415 .021493
ITEM: TIMESTEP
50
ITEM: NUMBER OF ATOMS
7
ITEM: BOX BOUNDS ss ss ss
-2.9651 3.3756
-2.6276 3.3490
-1.9910 1.9996
ITEM: ATOMS id type xs ys zs
1 1 .500954 .989979 .573542
2 1 .995308 .608657 .499509
3 1 .789770 .010514 .477569
4 1 .183194 .015086 .446777
5 1 .004113 .630154 .481377
6 1 .488445 .428436 .990097
7 1 .502674 .475053 .025327
ITEM: TIMESTEP
100
ITEM: NUMBER OF ATOMS
7
ITEM: BOX BOUNDS ss ss ss
-2.9802 3.3873
-2.6276 3.3418
-1.9910 2.0071
ITEM: ATOMS id type xs ys zs
1 1 .504774 .991804 .577243
2 1 .991433 .610052 .500395
3 1 .787237 .007756 .473708
4 1 .186096 .020397 .449462
5 1 .006671 .631707 .484102
6 1 .483561 .426521 .993267
7 1 .498921 .474548 .022964
ITEM: TIMESTEP
150
ITEM: NUMBER OF ATOMS
7
ITEM: BOX BOUNDS ss ss ss
-2.9894 3.3928
-2.6276 3.3418
-1.9910 2.0132
ITEM: ATOMS id type xs ys zs
1 1 .505991 .994129 .576443
2 1 .990343 .607706 .497409
3 1 .788766 .007815 .474333
4 1 .187665 .021497 .446373
5 1 .007725 .634079 .480682
6 1 .483960 .424087 .992137
7 1 .496871 .476146 .022781
ITEM: TIMESTEP
200
ITEM: NUMBER OF ATOMS
7
ITEM: BOX BOUNDS ss ss ss
-2.9959 3.3975
-2.6276 3.3551
-1.9910 2.0157
ITEM: ATOMS id type xs ys zs
1 1 .505196 .989868 .579905
2 1 .990425 .612527 .491652
3 1 .786613 .006394 .476092
4 1 .188123 .019570 .447985
5 1 .014295 .634200 .475430
6 1 .487196 .426609 .992193
7 1 .504483 .473405 .021756
ITEM: TIMESTEP
250
ITEM: NUMBER OF ATOMS
7
ITEM: BOX BOUNDS ss ss ss
-2.9866 3.3980
-2.6381 3.3466
-1.9910 2.0226
ITEM: ATOMS id type xs ys zs
1 1 .503573 .989764 .580376
2 1 .991084 .616096 .487375
3 1 .785389 .005334 .476569
4 1 .187858 .021792 .448631
5 1 .012659 .635419 .475723
6 1 .487661 .429841 .989937
7 1 .502093 .474140 .022682
ITEM: TIMESTEP
300
ITEM: NUMBER OF ATOMS
7
ITEM: BOX BOUNDS ss ss ss
-2.9892 3.3905
-2.6338 3.3500
-1.9805 2.0202
ITEM: ATOMS id type xs ys zs
1 1 .509264 .987455 .576576
2 1 .992413 .611329 .493696
3 1 .790569 .009683 .480671
4 1 .186046 .025096 .449964
5 1 .009952 .630582 .470940
6 1 .489424 .428136 .987002
7 1 .504873 .474558 .011417
ITEM: TIMESTEP
350
ITEM: NUMBER OF ATOMS
7
ITEM: BOX BOUNDS ss ss ss
-2.9929 3.3952
-2.6239 3.3549
-1.9776 2.0270
ITEM: ATOMS id type xs ys zs
1 1 .507375 .992010 .570674