ITEM: TIMESTEP
1
ITEM: NUMBER OF ATOMS
7
ITEM: BOX BOUNDS ss ss ss
-3.0426 3.1185
-2.7676 3.1520
-1.9358 2.0242
ITEM: ATOMS id type xs ys zs
1 1 .496012 .999348 .415587
2 1 .999391 .625566 .435883
3 1 .801435 .019973 .555025
4 1 .190004 .000650 .601327
5 1 .000654 .609536 .493658
6 1 .506143 .492646 .998982
7 1 .489030 .421653 .001217
ITEM: TIMESTEP
50
ITEM: NUMBER OF ATOMS
7
ITEM: BOX BOUNDS ss ss ss
-3.0690 3.1431
-2.7911 3.1746
-1.9605 2.0506
ITEM: ATOMS id type xs ys zs
1 1 .496309 .995588 .416664
2 1 .995443 .624656 .436406
3 1 .798892 .023972 .554138
4 1 .192585 .004495 .600059
5 1 .005014 .608481 .493378
6 1 .506297 .492772 .992528
7 1 .489299 .422438 .007123
ITEM: TIMESTEP
100
ITEM: NUMBER OF ATOMS
7
ITEM: BOX BOUNDS ss ss ss
-3.0744 3.1495
-2.7975 3.1854
-1.9715 2.0558
ITEM: ATOMS id type xs ys zs
1 1 .496204 .993945 .418354
2 1 .994173 .623877 .437922
3 1 .798761 .024850 .554688
4 1 .193072 .006322 .600294
5 1 .005485 .607671 .493603
6 1 .506594 .492330 .990641
7 1 .488863 .421968 .010135
ITEM: TIMESTEP
150
ITEM: NUMBER OF ATOMS
7
ITEM: BOX BOUNDS ss ss ss
-3.0779 3.1477
-2.7976 3.1906
-1.9677 2.0575
ITEM: ATOMS id type xs ys zs
1 1 .496282 .993899 .418873
2 1 .993458 .623257 .438901
3 1 .800421 .024266 .553892
4 1 .194498 .007661 .598496
5 1 .005042 .607862 .491794
6 1 .507034 .491847 .989070
7 1 .488468 .421638 .010486
ITEM: TIMESTEP
200
ITEM: NUMBER OF ATOMS
7
ITEM: BOX BOUNDS ss ss ss
-3.0936 3.1547
-2.7978 3.2045
-1.9712 2.0554
ITEM: ATOMS id type xs ys zs
1 1 .496594 .992052 .420505
2 1 .991787 .621785 .441655
3 1 .801058 .023665 .555042
4 1 .197021 .008699 .598965
5 1 .006547 .606617 .492264
6 1 .507623 .490954 .988815
7 1 .489015 .420238 .012712
ITEM: TIMESTEP
250
ITEM: NUMBER OF ATOMS
7
ITEM: BOX BOUNDS ss ss ss
-3.0986 3.1488
-2.7880 3.1982
-1.9595 2.0521
ITEM: ATOMS id type xs ys zs
1 1 .496976 .992954 .419671
2 1 .992709 .621507 .441964
3 1 .802615 .021261 .554386
4 1 .198273 .008087 .599171
5 1 .006624 .606938 .490887
6 1 .508651 .490681 .988965
7 1 .490018 .419078 .010882
ITEM: TIMESTEP
300
ITEM: NUMBER OF ATOMS
7
ITEM: BOX BOUNDS ss ss ss
-3.1017 3.1578
-2.7794 3.2058
-1.9537 2.0467
ITEM: ATOMS id type xs ys zs
1 1 .496028 .991523 .419666
2 1 .991262 .619895 .442640
3 1 .802145 .019035 .554374
4 1 .198669 .007582 .600219
5 1 .006619 .606148 .490585
6 1 .508578 .489144 .989721
7 1 .489522 .417239 .010004
ITEM: TIMESTEP
350
ITEM: NUMBER OF ATOMS
7
ITEM: BOX BOUNDS ss ss ss
-3.1091 3.1499
-2.7850 3.1999
-1.9579 2.0589
ITEM: ATOMS id type xs ys zs
1 1 .496867 .992390 .419202
2 1 .992363 .620837 .442110
3 1 .803964 .019434 .553091
4 1 .200012 .009204 .598917
5 1 .007385 .607574 .489349
6 1 .510033 .489812 .986196
7 1 .490557 .417927 .011306
ITEM: TIMESTEP
400
ITEM: NUMBER OF ATOMS
7
ITEM: BOX BOUNDS ss ss ss
-3.1126 3.1533
-2.7787 3.2070
-1.9590 2.0517
ITEM: ATOMS id type xs ys zs
1 1 .496618 .991176 .420549
2 1 .991737 .619704 .442539
3 1 .804291 .018137 .554280
4 1 .200372 .008729 .598863
5 1 .007346 .607272 .489891
6 1 .510010 .488382 .987242
7 1 .490167 .416702 .012201
ITEM: TIMESTEP
1
ITEM: NUMBER OF ATOMS
7
ITEM: BOX BOUNDS ss ss ss
-3.1033 3.1256
-2.7680 3.1810
-1.9351 2.0246
ITEM: ATOMS id type xs ys zs
1 1 .500349 .994472 .415455
2 1 .998248 .622539 .435756
3 1 .802446 .019942 .554910
4 1 .197679 .000713 .601209
5 1 .010390 .606587 .493534
6 1 .510369 .490276 .998890
7 1 .493445 .419633 .001063
ITEM: TIMESTEP
50
ITEM: NUMBER OF ATOMS
7
ITEM: BOX BOUNDS ss ss ss
-3.1033 3.1424
-2.7989 3.1810
-1.9619 2.0518
ITEM: ATOMS id type xs ys zs
1 1 .499199 .994559 .416714
2 1 .995628 .624529 .436401
3 1 .799998 .025283 .554101
4 1 .197015 .005657 .600062
5 1 .010540 .608250 .493405
6 1 .508983 .492970 .992371
7 1 .492193 .422779 .007336
ITEM: TIMESTEP
100
ITEM: NUMBER OF ATOMS
7
ITEM: BOX BOUNDS ss ss ss
-3.1033 3.1507
-2.7997 3.1863
-1.9724 2.0584
ITEM: ATOMS id type xs ys zs
1 1 .498614 .993718 .417967
2 1 .994093 .623905 .437726
3 1 .799333 .025447 .554434
4 1 .196689 .006454 .599928
5 1 .010349 .607561 .493711
6 1 .508801 .492491 .989974
7 1 .491306 .422193 .009716
ITEM: TIMESTEP
150
ITEM: NUMBER OF ATOMS
7
ITEM: BOX BOUNDS ss ss ss
-3.1033 3.1573
-2.8034 3.1849
-1.9687 2.0573
ITEM: ATOMS id type xs ys zs
1 1 .496937 .993364 .418840
2 1 .992521 .624085 .438686
3 1 .799448 .025160 .554568
4 1 .196862 .008778 .598442
5 1 .009663 .608530 .492995
6 1 .509374 .491841 .988721
7 1 .490634 .422221 .009252
ITEM: TIMESTEP
200
ITEM: NUMBER OF ATOMS
7
ITEM: BOX BOUNDS ss ss ss
-3.1033 3.1515
-2.7808 3.1853
-1.9706 2.0621
ITEM: ATOMS id type xs ys zs
1 1 .495661 .992776 .420215
2 1 .992831 .622905 .439451
3 1 .801153 .020076 .553906
4 1 .197440 .006699 .595789
5 1 .008761 .607695 .492824
6 1 .510278 .488613 .986097
7 1 .490845 .419640 .010360
ITEM: TIMESTEP
250
ITEM: NUMBER OF ATOMS
7
ITEM: BOX BOUNDS ss ss ss
-3.1033 3.1554
-2.7802 3.1832
-1.9744 2.0593
ITEM: ATOMS id type xs ys zs
1 1 .494966 .993136 .421959
2 1 .991962 .623162 .440832
3 1 .801582 .019549 .554303
4 1 .197465 .007610 .595758
5 1 .008034 .608657 .493288
6 1 .509812 .488652 .986404
7 1 .490209 .419142 .011513
ITEM: TIMESTEP
300
ITEM: NUMBER OF ATOMS
7
ITEM: BOX BOUNDS ss ss ss
-3.1033 3.1492
-2.7765 3.1838
-1.9737 2.0480
ITEM: ATOMS id type xs ys zs
1 1 .494797 .993362 .423950
2 1 .992531 .623571 .442896
3 1 .803594 .018712 .555917
4 1 .197991 .007907 .596660
5 1 .007175 .608762 .493995
6 1 .510261 .488381 .988915
7 1 .490834 .418300 .012209
ITEM: TIMESTEP
350
ITEM: NUMBER OF ATOMS
7
ITEM: BOX BOUNDS ss ss ss
-3.1102 3.1492
-2.7768 3.1946
-1.9700 2.0544
ITEM: ATOMS id type xs ys zs
1 1 .495062 .991953 .423577
2 1 .992534 .622850 .442188
3 1 .804926 .018737 .554599
4 1 .199387 .008816 .594908
5 1 .007640 .608053 .492499
6 1 .511010 .487544 .987345
7 1 .491362 .417559 .012386
ITEM: TIMESTEP
400
ITEM: NUMBER OF ATOMS
7
ITEM: BOX BOUNDS ss ss ss
-3.1161 3.1479
-2.7758 3.1945
-1.9800 2.0494
ITEM: ATOMS id type xs ys zs
1 1 .495500 .992098 .425875
2 1 .992957 .622952 .444486
3 1 .806206 .018497 .556348
4 1 .200633 .009311 .596320
5 1 .008097 .608294 .493700
6 1 .511688 .487431 .988534
7 1 .491917 .417503 .015936
ITEM: TIMESTEP
1
ITEM: NUMBER OF ATOMS
7
ITEM: BOX BOUNDS ss ss ss
-3.1056 3.1286
-2.7674 3.1772
-1.9347 2.0241
ITEM: ATOMS id type xs ys zs
1 1 .500297 .995118 .415441
2 1 .997780 .622912 .435738
3 1 .802138 .019868 .554932
4 1 .197874 .000619 .601238
5 1 .010743 .606949 .493540
6 1 .510307 .490552 .999023
7 1 .493398 .419856 .000931
ITEM: TIMESTEP
50
ITEM: NUMBER OF ATOMS
7
ITEM: BOX BOUNDS ss ss ss
-3.1056 3.1424
-2.7930 3.1772
-1.9597 2.0494
ITEM: ATOMS id type xs ys zs
1 1 .499389 .995167 .416631
2 1 .995643 .624579 .436295
3 1 .799955 .024392 .554202
4 1 .197286 .004585 .600257
5 1 .010951 .608236 .493425
6 1 .509118 .492812 .993070
7 1 .492411 .422528 .006729
ITEM: TIMESTEP
100
ITEM: NUMBER OF ATOMS
7
ITEM: BOX BOUNDS ss ss ss
-3.1056 3.1489
-2.8055 3.1845
-1.9761 2.0578
ITEM: ATOMS id type xs ys zs
1 1 .499080 .993970 .418589
2 1 .994520 .624612 .438049
3 1 .799359 .026557 .554995
4 1 .196920 .007139 .600522
5 1 .010792 .608041 .493970
6 1 .508913 .493212 .990596
7 1 .491617 .422935 .010454
ITEM: TIMESTEP
150
ITEM: NUMBER OF ATOMS
7
ITEM: BOX BOUNDS ss ss ss
-3.1056 3.1570
-2.8021 3.1887
-1.9801 2.0570
ITEM: ATOMS id type xs ys zs
1 1 .498477 .993301 .420046
2 1 .992959 .624107 .439185
3 1 .799269 .025876 .555997
4 1 .196847 .007306 .600738
5 1 .010457 .607470 .493825
6 1 .508773 .492450 .990006
7 1 .490740 .421714 .011315
ITEM: TIMESTEP
200
ITEM: NUMBER OF ATOMS
7
ITEM: BOX BOUNDS ss ss ss
-3.1056 3.1663
-2.8049 3.1997
-1.9828 2.0553
ITEM: ATOMS id type xs ys zs
1 1 .497473 .991227 .421711
2 1 .991344 .623334 .441076
3 1 .798747 .025606 .557541
4 1 .196536 .008647 .601309
5 1 .009644 .606103 .492180
6 1 .508222 .491776 .988742
7 1 .490258 .420145 .012437
ITEM: TIMESTEP
250
ITEM: NUMBER OF ATOMS
7
ITEM: BOX BOUNDS ss ss ss
-3.1056 3.1575
-2.7902 3.2005
-1.9748 2.0552
ITEM: ATOMS id type xs ys zs
1 1 .497755 .990752 .421259
2 1 .993124 .622221 .441373
3 1 .800155 .022535 .556965
4 1 .196577 .007088 .600636
5 1 .008631 .604242 .489270
6 1 .508971 .490465 .987174
7 1 .491042 .417556 .011431
ITEM: TIMESTEP
300
ITEM: NUMBER OF ATOMS
7
ITEM: BOX BOUNDS ss ss ss
-3.1056 3.1625
-2.7905 3.1985
-1.9752 2.0542
ITEM: ATOMS id type xs ys zs
1 1 .496872 .990982 .420977
2 1 .992521 .622016 .442193
3 1 .800514 .021861 .556857
4 1 .196480 .007721 .601193
5 1 .007951 .604337 .488536
6 1 .508578 .490573 .986113
7 1 .490741 .416893 .012571
ITEM: TIMESTEP
350
ITEM: NUMBER OF ATOMS
7
ITEM: BOX BOUNDS ss ss ss
-3.1056 3.1640
-2.7921 3.1915
-1.9804 2.0481
ITEM: ATOMS id type xs ys zs
1 1 .496532 .992516 .420837
2 1 .992382 .622680 .444856
3 1 .801493 .021525 .558147
4 1 .196830 .008303 .603147
5 1 .007458 .605638 .489232
6 1 .508571 .491270 .985992
7 1 .490365 .416662 .014851
ITEM: TIMESTEP
400
ITEM: NUMBER OF ATOMS
7
ITEM: BOX BOUNDS ss ss ss
-3.1133 3.1599
-2.7856 3.1953
-1.9792 2.0522
ITEM: ATOMS id type xs ys zs
1 1 .497049 .991873 .419199
2 1 .992802 .622051 .445734
3 1 .802901 .020147 .557830
4 1 .198536 .007606 .603054
5 1 .007759 .605302 .488543
6 1 .509253 .490507 .984033
7 1 .490765 .415086 .015599
ITEM: TIMESTEP
1
ITEM: NUMBER OF ATOMS
7
ITEM: BOX BOUNDS ss ss ss
-3.1056 3.1460
-2.7698 3.1775
-1.9346 2.0240
ITEM: ATOMS id type xs ys zs
1 1 .498899 .995064 .415442
2 1 .994993 .623027 .435743
3 1 .799894 .020266 .554933
4 1 .197322 .001024 .601250
5 1 .010718 .607071 .493543
6 1 .508880 .490730 .999045
7 1 .492021 .420070 .000928
ITEM: TIMESTEP
50
ITEM: NUMBER OF ATOMS
7
ITEM: BOX BOUNDS ss ss ss
-3.1056 3.1478
-2.7992 3.1775
-1.9639 2.0519
ITEM: ATOMS id type xs ys zs
1 1 .498966 .995159 .416970
2 1 .994799 .624905 .436588
3 1 .799208 .025438 .554279
4 1 .197071 .005543 .600407
5 1 .011020 .608559 .493640
6 1 .508640 .493297 .992561
7 1 .492034 .423171 .007647
ITEM: TIMESTEP
100
ITEM: NUMBER OF ATOMS
7
ITEM: BOX BOUNDS ss ss ss
-3.1056 3.1535
-2.8015 3.1862
-1.9732 2.0687
ITEM: ATOMS id type xs ys zs
1 1 .498692 .993714 .416930
2 1 .993792 .624216 .436451
3 1 .798547 .025934 .553043
4 1 .196767 .006380 .598847
5 1 .010914 .607352 .492463
6 1 .508525 .492770 .988265
7 1 .491461 .422633 .009578
ITEM: TIMESTEP
150
ITEM: NUMBER OF ATOMS
7
ITEM: BOX BOUNDS ss ss ss
-3.1056 3.1586
-2.8022 3.1895
-1.9818 2.0608
ITEM: ATOMS id type xs ys zs
1 1 .498115 .993025 .419538
2 1 .992785 .623883 .439047
3 1 .798154 .025692 .554754
4 1 .196466 .007398 .600644
5 1 .010475 .606748 .493668
6 1 .508561 .492549 .989627
7 1 .490962 .422331 .011639
ITEM: TIMESTEP
200
ITEM: NUMBER OF ATOMS
7
ITEM: BOX BOUNDS ss ss ss
-3.1056 3.1656
-2.8017 3.1919
-1.9830 2.0675
ITEM: ATOMS id type xs ys zs
1 1 .497629 .992217 .419610
2 1 .991742 .623045 .438382
3 1 .797906 .024854 .553532
4 1 .196502 .008281 .599139
5 1 .009959 .606172 .492432
6 1 .508413 .491893 .987395
7 1 .490290 .421751 .011721
ITEM: TIMESTEP
250
ITEM: NUMBER OF ATOMS
7
ITEM: BOX BOUNDS ss ss ss
-3.1056 3.1756
-2.7946 3.1954
-1.9902 2.0602
ITEM: ATOMS id type xs ys zs
1 1 .496507 .991612 .422215
2 1 .990100 .621794 .440206
3 1 .797244 .023156 .555221
4 1 .196316 .008180 .600744
5 1 .009570 .605278 .493524
6 1 .507893 .490640 .988519
7 1 .489652 .420495 .013395
ITEM: TIMESTEP
300
ITEM: NUMBER OF ATOMS
7
ITEM: BOX BOUNDS ss ss ss
-3.1056 3.1692
-2.7953 3.1949
-1.9838 2.0643
ITEM: ATOMS id type xs ys zs
1 1 .496889 .991967 .421910
2 1 .990811 .621655 .438893
3 1 .798431 .022986 .553604
4 1 .196460 .008854 .599377
5 1 .009176 .605526 .491677
6 1 .508675 .490530 .986199
7 1 .490001 .420382 .011880
ITEM: TIMESTEP
350
ITEM: NUMBER OF ATOMS
7
ITEM: BOX BOUNDS ss ss ss
-3.1056 3.1599
-2.7911 3.1975
-1.9812 2.0573
ITEM: ATOMS id type xs ys zs
1 1 .497540 .992085 .423805
2 1 .991978 .621064 .440020
3 1 .800212 .021802 .553168
4 1 .197031 .008640 .599294
5 1 .008289 .605482 .491821
6 1 .509417 .489624 .986039
7 1 .490285 .419972 .011544
ITEM: TIMESTEP
400
ITEM: NUMBER OF ATOMS
7
ITEM: BOX BOUNDS ss ss ss
-3.1056 3.1599
-2.8025 3.1967
-1.9832 2.0502
ITEM: ATOMS id type xs ys zs
1 1 .497470 .992477 .426188
2 1 .992067 .621858 .441868
3 1 .800728 .023255 .554235
4 1 .197262 .010994 .599714
5 1 .008003 .606782 .492358
6 1 .509557 .490244 .986953
7 1 .490266 .421245 .012205
ITEM: TIMESTEP
1
ITEM: NUMBER OF ATOMS
7
ITEM: BOX BOUNDS ss ss ss
-3.1056 3.1425
-2.7676 3.1990
-1.9503 2.0316
ITEM: ATOMS id type xs ys zs
1 1 .499184 .991480 .416958
2 1 .995560 .620646 .437136
3 1 .800349 .019835 .555629
4 1 .197432 .000656 .601682
5 1 .010723 .604743 .494598
6 1 .509170 .488775 .997148
7 1 .492303 .418346 .004862
ITEM: TIMESTEP
50
ITEM: NUMBER OF ATOMS
7
ITEM: BOX BOUNDS ss ss ss
-3.1056 3.1450
-2.7958 3.1990
-1.9596 2.0510
ITEM: ATOMS id type xs ys zs
1 1 .499228 .991584 .416502
2 1 .995298 .622457 .436057
3 1 .799482 .024877 .553929
4 1 .197145 .004837 .600140
5 1 .011081 .606160 .493194
6 1 .508869 .491339 .992845
7 1 .492284 .421411 .006572
ITEM: TIMESTEP
100
ITEM: NUMBER OF ATOMS
7
ITEM: BOX BOUNDS ss ss ss
-3.1056 3.1533
-2.8060 3.1990
-1.9744 2.0668
ITEM: ATOMS id type xs ys zs
1 1 .498869 .991697 .417409
2 1 .993761 .623172 .436630
3 1 .798368 .026848 .553507
4 1 .196673 .006859 .599355
5 1 .010959 .606379 .492768
6 1 .508427 .492302 .988775
7 1 .491436 .422205 .009798
ITEM: TIMESTEP
150
ITEM: NUMBER OF ATOMS
7
ITEM: BOX BOUNDS ss ss ss
-3.1056 3.1623
-2.8084 3.1990
-1.9825 2.0623
ITEM: ATOMS id type xs ys zs
1 1 .498368 .991757 .419368
2 1 .992155 .623736 .438813
3 1 .797702 .027338 .555279
4 1 .196389 .008038 .600200
5 1 .010592 .606545 .493911
6 1 .507891 .492411 .988994
7 1 .490675 .421454 .011473
ITEM: TIMESTEP
200
ITEM: NUMBER OF ATOMS
7
ITEM: BOX BOUNDS ss ss ss
-3.1056 3.1581
-2.8036 3.1990
-1.9802 2.0646
ITEM: ATOMS id type xs ys zs
1 1 .498314 .992220 .419235
2 1 .991993 .623845 .439289
3 1 .798910 .026254 .555044
4 1 .196588 .008307 .598820
5 1 .010410 .606377 .493458
6 1 .508399 .491638 .986789
7 1 .490832 .420284 .010306
ITEM: TIMESTEP
250
ITEM: NUMBER OF ATOMS
7
ITEM: BOX BOUNDS ss ss ss
-3.1056 3.1557
-2.7939 3.1990
-1.9832 2.0578
ITEM: ATOMS id type xs ys zs
1 1 .497483 .992898 .420987
2 1 .990641 .623175 .441268
3 1 .799517 .023707 .556951
4 1 .196576 .007231 .598899
5 1 .009821 .605635 .494781
6 1 .508689 .490820 .987392
7 1 .490515 .418923 .010946
ITEM: TIMESTEP
300
ITEM: NUMBER OF ATOMS
7
ITEM: BOX BOUNDS ss ss ss
-3.1056 3.1575
-2.7983 3.2099
-1.9845 2.0532
ITEM: ATOMS id type xs ys zs
1 1 .496216 .991105 .422311
2 1 .989329 .622164 .442530
3 1 .799478 .023636 .558409
4 1 .196766 .008178 .598769
5 1 .009011 .604808 .495072
6 1 .508507 .490137 .988254
7 1 .489836 .418566 .012025
ITEM: TIMESTEP
350
ITEM: NUMBER OF ATOMS
7
ITEM: BOX BOUNDS ss ss ss
-3.1056 3.1501
-2.7922 3.2001
-1.9821 2.0501
ITEM: ATOMS id type xs ys zs
1 1 .495063 .992155 .421311
2 1 .989837 .623712 .442488
3 1 .801206 .022808 .558508
4 1 .196834 .008260 .598354
5 1 .008294 .607898 .494191
6 1 .509050 .489322 .989395
7 1 .489365 .418399 .013764
ITEM: TIMESTEP
400
ITEM: NUMBER OF ATOMS
7
ITEM: BOX BOUNDS ss ss ss
-3.0959 3.1278
-2.7881 3.2034
-1.9792 2.0513
ITEM: ATOMS id type xs ys zs
1 1 .494541 .991575 .419528
2 1 .992937 .624179 .440989
3 1 .805151 .021557 .557534
4 1 .196089 .008976 .596905
5 1 .006583 .609208 .492618
6 1 .510602 .488100 .988953
7 1 .489777 .417253 .014850
ITEM: TIMESTEP
1
ITEM: NUMBER OF ATOMS
7
ITEM: BOX BOUNDS ss ss ss
-3.0851 3.1189
-2.7677 3.1805
-1.9412 2.0241
ITEM: ATOMS id type xs ys zs
1 1 .499422 .994554 .416400
2 1 .999327 .622580 .436665
3 1 .802729 .019911 .555654
4 1 .195523 .000668 .601897
5 1 .007489 .606622 .494362
6 1 .509478 .490299 .999026
7 1 .492491 .419650 .002569
ITEM: TIMESTEP
50
ITEM: NUMBER OF ATOMS
7
ITEM: BOX BOUNDS ss ss ss
-3.0851 3.1454
-2.7963 3.1807
-1.9611 2.0496
ITEM: ATOMS id type xs ys zs
1 1 .497555 .994613 .416843
2 1 .995211 .624386 .436270
3 1 .798706 .025057 .554278
4 1 .194483 .004860 .600525
5 1 .007842 .607995 .493562
6 1 .507142 .492864 .993239
7 1 .490595 .422786 .006877
ITEM: TIMESTEP
100
ITEM: NUMBER OF ATOMS
7
ITEM: BOX BOUNDS ss ss ss
-3.0851 3.1523
-2.8055 3.1997
-1.9719 2.0613
ITEM: ATOMS id type xs ys zs
1 1 .497148 .991573 .417706
2 1 .993869 .622913 .436785
3 1 .797836 .026774 .554001
4 1 .194122 .006741 .600033
5 1 .007775 .606118 .493302
6 1 .506787 .492152 .990359
7 1 .489775 .422215 .009201
ITEM: TIMESTEP
150
ITEM: NUMBER OF ATOMS
7
ITEM: BOX BOUNDS ss ss ss
-3.0851 3.1613
-2.8089 3.1920
-1.9770 2.0605
ITEM: ATOMS id type xs ys zs
1 1 .496789 .992873 .419345
2 1 .992002 .623711 .438286
3 1 .797052 .027252 .555025
4 1 .193660 .008165 .601355
5 1 .007357 .606929 .493538
6 1 .506277 .493151 .990423
7 1 .488596 .422589 .010476
ITEM: TIMESTEP
200
ITEM: NUMBER OF ATOMS
7
ITEM: BOX BOUNDS ss ss ss
-3.0872 3.1533
-2.8031 3.1903
-1.9813 2.0617
ITEM: ATOMS id type xs ys zs
1 1 .498896 .992980 .420631
2 1 .993306 .622961 .442070
3 1 .798632 .025306 .555306
4 1 .193114 .008632 .602365
5 1 .006426 .606617 .492012
6 1 .507244 .492228 .988206
7 1 .488894 .421222 .012466
ITEM: TIMESTEP
250
ITEM: NUMBER OF ATOMS
7
ITEM: BOX BOUNDS ss ss ss
-3.0949 3.1595
-2.7920 3.1959
-1.9772 2.0592
ITEM: ATOMS id type xs ys zs
1 1 .499968 .991699 .419737
2 1 .993114 .620969 .444852
3 1 .799253 .022337 .554518
4 1 .193317 .007913 .603029
5 1 .006998 .605633 .490205
6 1 .507629 .490125 .986867
7 1 .489079 .418855 .012680
ITEM: TIMESTEP
300
ITEM: NUMBER OF ATOMS
7
ITEM: BOX BOUNDS ss ss ss
-3.0969 3.1590
-2.7986 3.1942
-1.9812 2.0539
ITEM: ATOMS id type xs ys zs
1 1 .500153 .991350 .420499
2 1 .993425 .621200 .446232
3 1 .799970 .023085 .555293
4 1 .194591 .009893 .604639
5 1 .007463 .606563 .491101
6 1 .508455 .490818 .988735
7 1 .489375 .419232 .013875
ITEM: TIMESTEP
350
ITEM: NUMBER OF ATOMS
7
ITEM: BOX BOUNDS ss ss ss
-3.1051 3.1690
-2.7856 3.1953
-1.9687 2.0594
ITEM: ATOMS id type xs ys zs
1 1 .499616 .990709 .418504
2 1 .991898 .620238 .444072
3 1 .799276 .020896 .552857
4 1 .196143 .008599 .602921
5 1 .008738 .606004 .488500
6 1 .508604 .489580 .988117
7 1 .489407 .417748 .010524
ITEM: TIMESTEP
400
ITEM: NUMBER OF ATOMS
7
ITEM: BOX BOUNDS ss ss ss
-3.1027 3.1608
-2.7907 3.1927
-1.9743 2.0645
ITEM: ATOMS id type xs ys zs
1 1 .499576 .991320 .419087
2 1 .993245 .621192 .445245
3 1 .800870 .021529 .552567
4 1 .196631 .009705 .602622
5 1 .008560 .606786 .488330
6 1 .509413 .490402 .986591
7 1 .490268 .417986 .012150
ITEM: TIMESTEP
1
ITEM: NUMBER OF ATOMS
7
ITEM: BOX BOUNDS ss ss ss
-3.0851 3.1518
-2.7674 3.1805
-1.9503 2.0466
ITEM: ATOMS id type xs ys zs
1 1 .496792 .994555 .415384
2 1 .994055 .622554 .435491
3 1 .798496 .019851 .553536
4 1 .194496 .000605 .599419
5 1 .007453 .606598 .492737
6 1 .506794 .490270 .993407
7 1 .489897 .419618 .004824
ITEM: TIMESTEP
50
ITEM: NUMBER OF ATOMS
7
ITEM: BOX BOUNDS ss ss ss
-3.0851 3.1518
-2.7965 3.1805
-1.9612 2.0525
ITEM: ATOMS id type xs ys zs
1 1 .497052 .994637 .416538
2 1 .994232 .624460 .435935
3 1 .797792 .025127 .553872
4 1 .194250 .004856 .600186
5 1 .007903 .607997 .493172
6 1 .506630 .492934 .992644
7 1 .490118 .422864 .006871
ITEM: TIMESTEP
100
ITEM: NUMBER OF ATOMS
7
ITEM: BOX BOUNDS ss ss ss
-3.0851 3.1523
-2.8032 3.1874
-1.9776 2.0654
ITEM: ATOMS id type xs ys zs
1 1 .497257 .993629 .418270
2 1 .994057 .624129 .436859
3 1 .797556 .026577 .554028
4 1 .193926 .006198 .600179
5 1 .007887 .607067 .493452
6 1 .506835 .492941 .989485
7 1 .489981 .423032 .010315
ITEM: TIMESTEP
150
ITEM: NUMBER OF ATOMS
7
ITEM: BOX BOUNDS ss ss ss
-3.0851 3.1567
-2.8083 3.1963
-1.9923 2.0669
ITEM: ATOMS id type xs ys zs
1 1 .497234 .992302 .421388
2 1 .993196 .623476 .439160
3 1 .797191 .027245 .555757
4 1 .193701 .007440 .601560
5 1 .007454 .605963 .494774
6 1 .506874 .492289 .988686
7 1 .489435 .422837 .013404
ITEM: TIMESTEP
200
ITEM: NUMBER OF ATOMS
7
ITEM: BOX BOUNDS ss ss ss
-3.0884 3.1579
-2.8037 3.1969
-1.9951 2.0810
ITEM: ATOMS id type xs ys zs
1 1 .497420 .992197 .421585
2 1 .992560 .622602 .438475
3 1 .797875 .026385 .553176
4 1 .194242 .006848 .599894
5 1 .007621 .605832 .493537
6 1 .506814 .490537 .984045
7 1 .489018 .422202 .013808
ITEM: TIMESTEP
250
ITEM: NUMBER OF ATOMS
7
ITEM: BOX BOUNDS ss ss ss
-3.0862 3.1541
-2.8113 3.1970
-1.9863 2.0683
ITEM: ATOMS id type xs ys zs
1 1 .497050 .992106 .422660
2 1 .992742 .622850 .438635
3 1 .799130 .027683 .553479
4 1 .194587 .008286 .600718
5 1 .007313 .606556 .494816
6 1 .507271 .490749 .986480
7 1 .488671 .422845 .011510
ITEM: TIMESTEP
300
ITEM: NUMBER OF ATOMS
7
ITEM: BOX BOUNDS ss ss ss
-3.0928 3.1565
-2.8149 3.2005
-1.9887 2.0640
ITEM: ATOMS id type xs ys zs
1 1 .497614 .991608 .424475
2 1 .991923 .622718 .438908
3 1 .799876 .027927 .554592
4 1 .195877 .009418 .601050
5 1 .008276 .606276 .494959
6 1 .507615 .490798 .986979
7 1 .489056 .422647 .012097
ITEM: TIMESTEP
350
ITEM: NUMBER OF ATOMS
7
ITEM: BOX BOUNDS ss ss ss
-3.0874 3.1535
-2.8025 3.1961
-1.9926 2.0614
ITEM: ATOMS id type xs ys zs
1 1 .497739 .992320 .426333
2 1 .992265 .622504 .439641
3 1 .800687 .025594 .555403
4 1 .195727 .007468 .601210
5 1 .007161 .605745 .494740
6 1 .507240 .490121 .987344
7 1 .488895 .421413 .013059
ITEM: TIMESTEP
400
ITEM: NUMBER OF ATOMS
7
ITEM: BOX BOUNDS ss ss ss
-3.0931 3.1575
-2.8129 3.1989
-1.9990 2.0645
ITEM: ATOMS id type xs ys zs
1 1 .497695 .991589 .428019
2 1 .991885 .623084 .440910
3 1 .801014 .027014 .554993
4 1 .196869 .009423 .601170
5 1 .007181 .606053 .494255
6 1 .507252 .490578 .986573
7 1 .489007 .422390 .015514
ITEM: TIMESTEP
1
ITEM: NUMBER OF ATOMS
7
ITEM: BOX BOUNDS ss ss ss
-3.0919 3.1357
-2.7901 3.1848
-1.9579 2.0394
ITEM: ATOMS id type xs ys zs
1 1 .498626 .993866 .417241
2 1 .996627 .623548 .437342
3 1 .800775 .023569 .555381
4 1 .195887 .004408 .601258
5 1 .008567 .607661 .494581
6 1 .508643 .491862 .995199
7 1 .491720 .421528 .006728
ITEM: TIMESTEP
50
ITEM: NUMBER OF ATOMS
7
ITEM: BOX BOUNDS ss ss ss
-3.0919 3.1464
-2.7932 3.1848
-1.9633 2.0500
ITEM: ATOMS id type xs ys zs
1 1 .498058 .993915 .417149
2 1 .995088 .623788 .436477
3 1 .798669 .024605 .554444
4 1 .195310 .004220 .600757
5 1 .009019 .607338 .493725
6 1 .507596 .492296 .993273
7 1 .491119 .422267 .007344
ITEM: TIMESTEP
100
ITEM: NUMBER OF ATOMS
7
ITEM: BOX BOUNDS ss ss ss
-3.0919 3.1517
-2.8101 3.1916
-1.9748 2.0652
ITEM: ATOMS id type xs ys zs
1 1 .497982 .992897 .417803
2 1 .994135 .624104 .436468
3 1 .797736 .027584 .553599
4 1 .194823 .007240 .600131
5 1 .009104 .607142 .493030
6 1 .507473 .493133 .989656
7 1 .490587 .423302 .009639
ITEM: TIMESTEP
150
ITEM: NUMBER OF ATOMS
7
ITEM: BOX BOUNDS ss ss ss
-3.0919 3.1562
-2.8107 3.1962
-1.9782 2.0690
ITEM: ATOMS id type xs ys zs
1 1 .497360 .992052 .418285
2 1 .992583 .623832 .436466
3 1 .797222 .027393 .553344
4 1 .194406 .008835 .600288
5 1 .008420 .606055 .492931
6 1 .507991 .493052 .988328
7 1 .489924 .422291 .009736
ITEM: TIMESTEP
200
ITEM: NUMBER OF ATOMS
7
ITEM: BOX BOUNDS ss ss ss
-3.0919 3.1618
-2.8006 3.1953
-1.9886 2.0741
ITEM: ATOMS id type xs ys zs
1 1 .494944 .992340 .418169
2 1 .990094 .624840 .436369
3 1 .795756 .024812 .553337
4 1 .193866 .009585 .600402
5 1 .007237 .604929 .493434
6 1 .508868 .493545 .984799
7 1 .489012 .420364 .009989
ITEM: TIMESTEP
250
ITEM: NUMBER OF ATOMS
7
ITEM: BOX BOUNDS ss ss ss
-3.0994 3.1673
-2.8024 3.1933
-2.0002 2.0648
ITEM: ATOMS id type xs ys zs
1 1 .493607 .992582 .420471
2 1 .989076 .625661 .438645
3 1 .795196 .024925 .554888
4 1 .194269 .010735 .603888
5 1 .008153 .605070 .495062
6 1 .509661 .494083 .985630
7 1 .488578 .420593 .011814
ITEM: TIMESTEP
300
ITEM: NUMBER OF ATOMS
7
ITEM: BOX BOUNDS ss ss ss
-3.0919 3.1495
-2.8010 3.1986
-2.0061 2.0586
ITEM: ATOMS id type xs ys zs
1 1 .494196 .992066 .421780
2 1 .991982 .624872 .440008
3 1 .797611 .024701 .555508
4 1 .193754 .010401 .605720
5 1 .006896 .604303 .495621
6 1 .510623 .493348 .986424
7 1 .489084 .420358 .013405
ITEM: TIMESTEP
350
ITEM: NUMBER OF ATOMS
7
ITEM: BOX BOUNDS ss ss ss
-3.1023 3.1488
-2.7901 3.2063
-1.9994 2.0646
ITEM: ATOMS id type xs ys zs
1 1 .494869 .990969 .420254
2 1 .992149 .623477 .438540
3 1 .798320 .022992 .553239
4 1 .194910 .008818 .603761
5 1 .008436 .603010 .493021
6 1 .511457 .491554 .984186
7 1 .489897 .418969 .011481
ITEM: TIMESTEP
400
ITEM: NUMBER OF ATOMS
7
ITEM: BOX BOUNDS ss ss ss
-3.0997 3.1536
-2.7903 3.2037
-2.0064 2.0546
ITEM: ATOMS id type xs ys zs
1 1 .494117 .991295 .422279
2 1 .991365 .623674 .440809
3 1 .797854 .022772 .555138
4 1 .194780 .009157 .605602
5 1 .008218 .603475 .494441
6 1 .511102 .491726 .986319
7 1 .489453 .418850 .012865
ITEM: TIMESTEP
1
ITEM: NUMBER OF ATOMS
7
ITEM: BOX BOUNDS ss ss ss
-3.0923 3.1357
-2.7901 3.1848
-1.9830 2.0394
ITEM: ATOMS id type xs ys zs
1 1 .498659 .993866 .420885
2 1 .996629 .623546 .440858
3 1 .800789 .023570 .558161
4 1 .195940 .004409 .603744
5 1 .008635 .607661 .497738
6 1 .508678 .491859 .995231
7 1 .491756 .421530 .012927
ITEM: TIMESTEP
50
ITEM: NUMBER OF ATOMS
7
ITEM: BOX BOUNDS ss ss ss
-3.0923 3.1471
-2.7927 3.1848
-1.9830 2.0553
ITEM: ATOMS id type xs ys zs
1 1 .498086 .993909 .419407
2 1 .994989 .623790 .438628
3 1 .798528 .024516 .555893
4 1 .195354 .004089 .601968
5 1 .009117 .607273 .495578
6 1 .507504 .492276 .992109
7 1 .491124 .422246 .012160
ITEM: TIMESTEP
100
ITEM: NUMBER OF ATOMS
7
ITEM: BOX BOUNDS ss ss ss
-3.0923 3.1560
-2.8049 3.1848
-1.9830 2.0661
ITEM: ATOMS id type xs ys zs
1 1 .497687 .994076 .418746
2 1 .993359 .624428 .437513
3 1 .797107 .026832 .554299
4 1 .194781 .006244 .600650
5 1 .009203 .607464 .493923
6 1 .507031 .493443 .989593
7 1 .490306 .423474 .011623
ITEM: TIMESTEP
150
ITEM: NUMBER OF ATOMS
7
ITEM: BOX BOUNDS ss ss ss
-3.0923 3.1599
-2.8058 3.2013
-1.9830 2.0785
ITEM: ATOMS id type xs ys zs
1 1 .497697 .991565 .418123
2 1 .992384 .622930 .436344
3 1 .796689 .027236 .552414
4 1 .194533 .007012 .599117
5 1 .008834 .605319 .491983
6 1 .506820 .492391 .986076
7 1 .489596 .422290 .011484
ITEM: TIMESTEP
200
ITEM: NUMBER OF ATOMS
7
ITEM: BOX BOUNDS ss ss ss
-3.0923 3.1589
-2.8086 3.1991
-1.9906 2.0752
ITEM: ATOMS id type xs ys zs
1 1 .497508 .991879 .420249
2 1 .992212 .623347 .438552
3 1 .797003 .028109 .553539
4 1 .194349 .007509 .600748
5 1 .007870 .604905 .492607
6 1 .506602 .492848 .986349
7 1 .488976 .422747 .013235
ITEM: TIMESTEP
250
ITEM: NUMBER OF ATOMS
7
ITEM: BOX BOUNDS ss ss ss
-3.0987 3.1592
-2.8117 3.1956
-1.9881 2.0760
ITEM: ATOMS id type xs ys zs
1 1 .497374 .991852 .420086
2 1 .991739 .623574 .439043
3 1 .797226 .028468 .553042
4 1 .194806 .007839 .600684
5 1 .008330 .604332 .491430
6 1 .506944 .492921 .985864
7 1 .489505 .422878 .012032
ITEM: TIMESTEP
300
ITEM: NUMBER OF ATOMS
7
ITEM: BOX BOUNDS ss ss ss
-3.1104 3.1584
-2.8162 3.1953
-1.9953 2.0863
ITEM: ATOMS id type xs ys zs
1 1 .498042 .991877 .419985
2 1 .991573 .623846 .440026
3 1 .797744 .028188 .551566
4 1 .196422 .008754 .600632
5 1 .010565 .603778 .491403
6 1 .509020 .493495 .984129
7 1 .490727 .422945 .013659
ITEM: TIMESTEP
350
ITEM: NUMBER OF ATOMS
7
ITEM: BOX BOUNDS ss ss ss
-3.1049 3.1595
-2.8139 3.2068
-1.9984 2.0788
ITEM: ATOMS id type xs ys zs
1 1 .497905 .990847 .421587
2 1 .991413 .622111 .442272
3 1 .797654 .026755 .551028
4 1 .196380 .008631 .603297
5 1 .010300 .602536 .493485
6 1 .509695 .492971 .986191
7 1 .490352 .422097 .014808
ITEM: TIMESTEP
400
ITEM: NUMBER OF ATOMS
7
ITEM: BOX BOUNDS ss ss ss
-3.1012 3.1638
-2.8093 3.2125
-2.0090 2.0775
ITEM: ATOMS id type xs ys zs
1 1 .497383 .990908 .422680
2 1 .990783 .620786 .445297
3 1 .797495 .025704 .549412
4 1 .196775 .008078 .606704
5 1 .010556 .602120 .495540
6 1 .510015 .492259 .985063
7 1 .489815 .421619 .016806
ITEM: TIMESTEP
450
ITEM: NUMBER OF ATOMS
7
ITEM: BOX BOUNDS ss ss ss
-3.0954 3.1739
-2.8077 3.2068
-2.0037 2.0786
ITEM: ATOMS id type xs ys zs
1 1 .496379 .992191 .421297
2 1 .989242 .621185 .445182
3 1 .796246 .025525 .547623
4 1 .196072 .008124 .607800
5 1 .009768 .602562 .494414
6 1 .508968 .492582 .983922
7 1 .488433 .421979 .014666
ITEM: TIMESTEP
500
ITEM: NUMBER OF ATOMS
7
ITEM: BOX BOUNDS ss ss ss
-3.0962 3.1649
-2.8125 3.2155
-1.9955 2.0792
ITEM: ATOMS id type xs ys zs
1 1 .496783 .990721 .419968
2 1 .990735 .620582 .445386
3 1 .797470 .026138 .546750
4 1 .196857 .009584 .608561
5 1 .008970 .602400 .492018
6 1 .509625 .492371 .982810
7 1 .489348 .422119 .012067
ITEM: TIMESTEP
550
ITEM: NUMBER OF ATOMS
7
ITEM: BOX BOUNDS ss ss ss
-3.1011 3.1673
-2.8101 3.2142
-2.0000 2.0703
ITEM: ATOMS id type xs ys zs
1 1 .496010 .990460 .420999
2 1 .990236 .621127 .449424
3 1 .797357 .025254 .547729
4 1 .197638 .009959 .611965
5 1 .008920 .602191 .491736
6 1 .509552 .492422 .983550
7 1 .490172 .421996 .012415
ITEM: TIMESTEP
600
ITEM: NUMBER OF ATOMS
7
ITEM: BOX BOUNDS ss ss ss
-3.0883 3.1660
-2.8057 3.2031
-1.9970 2.0631
ITEM: ATOMS id type xs ys zs
1 1 .494386 .992071 .421051
2 1 .990295 .621941 .451840
3 1 .797124 .023500 .547134
4 1 .196101 .009326 .612881
5 1 .006676 .602632 .490709
6 1 .508120 .492476 .983742
7 1 .489426 .422141 .011218
ITEM: TIMESTEP
650
ITEM: NUMBER OF ATOMS
7
ITEM: BOX BOUNDS ss ss ss
-3.0928 3.1641
-2.8111 3.2069
-1.9997 2.0543
ITEM: ATOMS id type xs ys zs
1 1 .494176 .991958 .422307
2 1 .990500 .621672 .454501
3 1 .797727 .023273 .547453
4 1 .196584 .009800 .614291
5 1 .006822 .602582 .490937
6 1 .508155 .491757 .983971
7 1 .489438 .422161 .012386
ITEM: TIMESTEP
1
ITEM: NUMBER OF ATOMS
7
ITEM: BOX BOUNDS ss ss ss
-3.0928 3.1352
-2.7782 3.1966
-1.9694 2.0239
ITEM: ATOMS id type xs ys zs
1 1 .498746 .991893 .420544
2 1 .996717 .621569 .440662
3 1 .800873 .021577 .558822
4 1 .196026 .002414 .604742
5 1 .008717 .605679 .497961
6 1 .508762 .489878 .999072
7 1 .491843 .419549 .009630
ITEM: TIMESTEP
50
ITEM: NUMBER OF ATOMS
7
ITEM: BOX BOUNDS ss ss ss
-3.0928 3.1435
-2.7949 3.1966
-1.9694 2.0528
ITEM: ATOMS id type xs ys zs
1 1 .498391 .991959 .417657
2 1 .995571 .622714 .436993
3 1 .798972 .024875 .554697
4 1 .195510 .004383 .601008
5 1 .009228 .606191 .494173
6 1 .507848 .491502 .992682
7 1 .491493 .421683 .008782
ITEM: TIMESTEP
100
ITEM: NUMBER OF ATOMS
7
ITEM: BOX BOUNDS ss ss ss
-3.0928 3.1530
-2.8054 3.1966
-1.9799 2.0643
ITEM: ATOMS id type xs ys zs
1 1 .497949 .992115 .418200