ITEM: TIMESTEP
1
ITEM: NUMBER OF ATOMS
7
ITEM: BOX BOUNDS ss ss ss
-3.0426 3.1185
-2.7676 3.1520
-1.9358 2.0242
ITEM: ATOMS id type xs ys zs
1 1 .496159 .999135 .415710
2 1 .999089 .625362 .435857
3 1 .801520 .019931 .555047
4 1 .190053 .000604 .600991
5 1 .000646 .609848 .493242
6 1 .506220 .492942 .999302
7 1 .489096 .421649 .001430
ITEM: TIMESTEP
50
ITEM: NUMBER OF ATOMS
7
ITEM: BOX BOUNDS ss ss ss
-3.0690 3.1431
-2.7911 3.1746
-1.9605 2.0506
ITEM: ATOMS id type xs ys zs
1 1 .496855 .994888 .415048
2 1 .996812 .622810 .436717
3 1 .799583 .022911 .554783
4 1 .194652 .005034 .598323
5 1 .004862 .607116 .492047
6 1 .505588 .494194 .994373
7 1 .491430 .421462 .007004
ITEM: TIMESTEP
100
ITEM: NUMBER OF ATOMS
7
ITEM: BOX BOUNDS ss ss ss
-3.0744 3.1495
-2.7975 3.1854
-1.9715 2.0558
ITEM: ATOMS id type xs ys zs
1 1 .497163 .994290 .413207
2 1 .997049 .623705 .435877
3 1 .799947 .026143 .558107
4 1 .192447 .006159 .601299
5 1 .007399 .608863 .498841
6 1 .507766 .493078 .990062
7 1 .489947 .421966 .007389
ITEM: TIMESTEP
150
ITEM: NUMBER OF ATOMS
7
ITEM: BOX BOUNDS ss ss ss
-3.0779 3.1477
-2.7976 3.1906
-1.9677 2.0575
ITEM: ATOMS id type xs ys zs
1 1 .495410 .994699 .420111
2 1 .995067 .625986 .441263
3 1 .801995 .025453 .553224
4 1 .194484 .006716 .597269
5 1 .006769 .606093 .491901
6 1 .505908 .491814 .989696
7 1 .488971 .423574 .013388
ITEM: TIMESTEP
200
ITEM: NUMBER OF ATOMS
7
ITEM: BOX BOUNDS ss ss ss
-3.0936 3.1547
-2.7978 3.2045
-1.9712 2.0554
ITEM: ATOMS id type xs ys zs
1 1 .496076 .990237 .422195
2 1 .991863 .618337 .443506
3 1 .799827 .020396 .553017
4 1 .196399 .009382 .603961
5 1 .007100 .608092 .490832
6 1 .507232 .493352 .991471
7 1 .491392 .420249 .014133
ITEM: TIMESTEP
250
ITEM: NUMBER OF ATOMS
7
ITEM: BOX BOUNDS ss ss ss
-3.0986 3.1488
-2.7880 3.1982
-1.9595 2.0521
ITEM: ATOMS id type xs ys zs
1 1 .496592 .993353 .422190
2 1 .994817 .620516 .432782
3 1 .799566 .020930 .554079
4 1 .200770 .006797 .601490
5 1 .005659 .604186 .487533
6 1 .508519 .489834 .987140
7 1 .487645 .421752 .016435
ITEM: TIMESTEP
300
ITEM: NUMBER OF ATOMS
7
ITEM: BOX BOUNDS ss ss ss
-3.1017 3.1578
-2.7794 3.2058
-1.9537 2.0467
ITEM: ATOMS id type xs ys zs
1 1 .497803 .992438 .417082
2 1 .989670 .619989 .444888
3 1 .801301 .017179 .554779
4 1 .197448 .007893 .598368
5 1 .005983 .605574 .489525
6 1 .508630 .487334 .992652
7 1 .490127 .417331 .011928
ITEM: TIMESTEP
350
ITEM: NUMBER OF ATOMS
7
ITEM: BOX BOUNDS ss ss ss
-3.1091 3.1499
-2.7850 3.1999
-1.9579 2.0589
ITEM: ATOMS id type xs ys zs
1 1 .499076 .993971 .413961
2 1 .989516 .621115 .444044
3 1 .801383 .017651 .552336
4 1 .198692 .009084 .595303
5 1 .007823 .605134 .488475
6 1 .510758 .487873 .988819
7 1 .490845 .418877 .014390
ITEM: TIMESTEP
400
ITEM: NUMBER OF ATOMS
7
ITEM: BOX BOUNDS ss ss ss
-3.1126 3.1533
-2.7787 3.2070
-1.9590 2.0517
ITEM: ATOMS id type xs ys zs
1 1 .495820 .991955 .427377
2 1 .995325 .622841 .445977
3 1 .803413 .019540 .554315
4 1 .200883 .006659 .600980
5 1 .006967 .605147 .494571
6 1 .510614 .489031 .985599
7 1 .486087 .415361 .016086
ITEM: TIMESTEP
1
ITEM: NUMBER OF ATOMS
7
ITEM: BOX BOUNDS ss ss ss
-3.1033 3.1256
-2.7680 3.1810
-1.9351 2.0246
ITEM: ATOMS id type xs ys zs
1 1 .500662 .994522 .415676
2 1 .998039 .622435 .436118
3 1 .802193 .020144 .555193
4 1 .197458 .000700 .601140
5 1 .010268 .606643 .493352
6 1 .510359 .490194 .998895
7 1 .493437 .419565 .000893
ITEM: TIMESTEP
50
ITEM: NUMBER OF ATOMS
7
ITEM: BOX BOUNDS ss ss ss
-3.1033 3.1424
-2.7989 3.1810
-1.9619 2.0518
ITEM: ATOMS id type xs ys zs
1 1 .499661 .991922 .417123
2 1 .993965 .624615 .437238
3 1 .798062 .026216 .553974
4 1 .195798 .004774 .598413
5 1 .010315 .606673 .495089
6 1 .510827 .491861 .991150
7 1 .494154 .423377 .005746
ITEM: TIMESTEP
100
ITEM: NUMBER OF ATOMS
7
ITEM: BOX BOUNDS ss ss ss
-3.1033 3.1507
-2.7997 3.1863
-1.9724 2.0584
ITEM: ATOMS id type xs ys zs
1 1 .497374 .995376 .418584
2 1 .991539 .623288 .437681
3 1 .801134 .025536 .552930
4 1 .195281 .005469 .599989
5 1 .011642 .606806 .493084
6 1 .508258 .490408 .986245
7 1 .491190 .422744 .013471
ITEM: TIMESTEP
150
ITEM: NUMBER OF ATOMS
7
ITEM: BOX BOUNDS ss ss ss
-3.1033 3.1573
-2.8034 3.1849
-1.9687 2.0573
ITEM: ATOMS id type xs ys zs
1 1 .497718 .991206 .420567
2 1 .994808 .624959 .442187
3 1 .798719 .028243 .558513
4 1 .196925 .010057 .594086
5 1 .008463 .607921 .490934
6 1 .510878 .492495 .986784
7 1 .489787 .421545 .006913
ITEM: TIMESTEP
200
ITEM: NUMBER OF ATOMS
7
ITEM: BOX BOUNDS ss ss ss
-3.1033 3.1515
-2.7808 3.1853
-1.9706 2.0621
ITEM: ATOMS id type xs ys zs
1 1 .495564 .994655 .417288
2 1 .994632 .624057 .438940
3 1 .800927 .021004 .554161
4 1 .198979 .007085 .592714
5 1 .008185 .609283 .489376
6 1 .512245 .489540 .984905
7 1 .490966 .418009 .008055
ITEM: TIMESTEP
250
ITEM: NUMBER OF ATOMS
7
ITEM: BOX BOUNDS ss ss ss
-3.1033 3.1554
-2.7802 3.1832
-1.9744 2.0593
ITEM: ATOMS id type xs ys zs
1 1 .494796 .996712 .421175
2 1 .989235 .627412 .440363
3 1 .802397 .021776 .554483
4 1 .196826 .008566 .597444
5 1 .010271 .611502 .492099
6 1 .511993 .490716 .985399
7 1 .490580 .421157 .010131
ITEM: TIMESTEP
300
ITEM: NUMBER OF ATOMS
7
ITEM: BOX BOUNDS ss ss ss
-3.1033 3.1492
-2.7765 3.1838
-1.9737 2.0480
ITEM: ATOMS id type xs ys zs
1 1 .495409 .998079 .424602
2 1 .989132 .627359 .443785
3 1 .801415 .021296 .556186
4 1 .196223 .007876 .597692
5 1 .010741 .609335 .491885
6 1 .511071 .491652 .989015
7 1 .490399 .422014 .014214
ITEM: TIMESTEP
350
ITEM: NUMBER OF ATOMS
7
ITEM: BOX BOUNDS ss ss ss
-3.1102 3.1492
-2.7768 3.1946
-1.9700 2.0544
ITEM: ATOMS id type xs ys zs
1 1 .494330 .996205 .423686
2 1 .987883 .627414 .444729
3 1 .799860 .021221 .554848
4 1 .197988 .007535 .596177
5 1 .010732 .608043 .489023
6 1 .512215 .491052 .988257
7 1 .492856 .420446 .010946
ITEM: TIMESTEP
400
ITEM: NUMBER OF ATOMS
7
ITEM: BOX BOUNDS ss ss ss
-3.1161 3.1479
-2.7758 3.1945
-1.9800 2.0494
ITEM: ATOMS id type xs ys zs
1 1 .497534 .990058 .423577
2 1 .990956 .620225 .444371
3 1 .806041 .020573 .554232
4 1 .198480 .010589 .596685
5 1 .011361 .611164 .496961
6 1 .510092 .485678 .986707
7 1 .491302 .414921 .011740
ITEM: TIMESTEP
1
ITEM: NUMBER OF ATOMS
7
ITEM: BOX BOUNDS ss ss ss
-3.1056 3.1286
-2.7674 3.1772
-1.9347 2.0241
ITEM: ATOMS id type xs ys zs
1 1 .500469 .995396 .414996
2 1 .997703 .623012 .435711
3 1 .802092 .019981 .554739
4 1 .197847 .000833 .601112
5 1 .010892 .606706 .493664
6 1 .510737 .490476 .999163
7 1 .493436 .420084 .001174
ITEM: TIMESTEP
50
ITEM: NUMBER OF ATOMS
7
ITEM: BOX BOUNDS ss ss ss
-3.1056 3.1424
-2.7930 3.1772
-1.9597 2.0494
ITEM: ATOMS id type xs ys zs
1 1 .499541 .995662 .414973
2 1 .995477 .624347 .435185
3 1 .800177 .023306 .555247
4 1 .197963 .002607 .600628
5 1 .012246 .608024 .492391
6 1 .510487 .492740 .993585
7 1 .494318 .422555 .006497
ITEM: TIMESTEP
100
ITEM: NUMBER OF ATOMS
7
ITEM: BOX BOUNDS ss ss ss
-3.1056 3.1489
-2.8055 3.1845
-1.9761 2.0578
ITEM: ATOMS id type xs ys zs
1 1 .500248 .994909 .415485
2 1 .993319 .627312 .435345
3 1 .800338 .026093 .553927
4 1 .196600 .007709 .599619
5 1 .010058 .611018 .497223
6 1 .509359 .491306 .992332
7 1 .489580 .424066 .007461
ITEM: TIMESTEP
150
ITEM: NUMBER OF ATOMS
7
ITEM: BOX BOUNDS ss ss ss
-3.1056 3.1570
-2.8021 3.1887
-1.9801 2.0570
ITEM: ATOMS id type xs ys zs
1 1 .500246 .993427 .418745
2 1 .993871 .628050 .450252
3 1 .800295 .026249 .554039
4 1 .193775 .009208 .602044
5 1 .008092 .607876 .495106
6 1 .509821 .492357 .991769
7 1 .492682 .421608 .011549
ITEM: TIMESTEP
200
ITEM: NUMBER OF ATOMS
7
ITEM: BOX BOUNDS ss ss ss
-3.1056 3.1663
-2.8049 3.1997
-1.9828 2.0553
ITEM: ATOMS id type xs ys zs
1 1 .497268 .991007 .420965
2 1 .988652 .623077 .438632
3 1 .801045 .026543 .554399
4 1 .195508 .010167 .600605
5 1 .011771 .606381 .493833
6 1 .512332 .492076 .985278
7 1 .490950 .419088 .008480
ITEM: TIMESTEP
250
ITEM: NUMBER OF ATOMS
7
ITEM: BOX BOUNDS ss ss ss
-3.1056 3.1575
-2.7902 3.2005
-1.9748 2.0552
ITEM: ATOMS id type xs ys zs
1 1 .498693 .990636 .418061
2 1 .990947 .621862 .434715
3 1 .801706 .024901 .555280
4 1 .194189 .010510 .601030
5 1 .011466 .606406 .491916
6 1 .512770 .488746 .987053
7 1 .491209 .416380 .007893
ITEM: TIMESTEP
300
ITEM: NUMBER OF ATOMS
7
ITEM: BOX BOUNDS ss ss ss
-3.1056 3.1625
-2.7905 3.1985
-1.9752 2.0542
ITEM: ATOMS id type xs ys zs
1 1 .496664 .988069 .417694
2 1 .991700 .621382 .443432
3 1 .800360 .019957 .555463
4 1 .193627 .007760 .601913
5 1 .005398 .606582 .487619
6 1 .508337 .491920 .987608
7 1 .490762 .416177 .015384
ITEM: TIMESTEP
350
ITEM: NUMBER OF ATOMS
7
ITEM: BOX BOUNDS ss ss ss
-3.1056 3.1640
-2.7921 3.1915
-1.9804 2.0481
ITEM: ATOMS id type xs ys zs
1 1 .497505 .992809 .416519
2 1 .994722 .623440 .450345
3 1 .803021 .023894 .558874
4 1 .196850 .008767 .601138
5 1 .007707 .607667 .488354
6 1 .507341 .492209 .982648
7 1 .492123 .413015 .015477
ITEM: TIMESTEP
400
ITEM: NUMBER OF ATOMS
7
ITEM: BOX BOUNDS ss ss ss
-3.1133 3.1599
-2.7856 3.1953
-1.9792 2.0522
ITEM: ATOMS id type xs ys zs
1 1 .495585 .991940 .410156
2 1 .989075 .620996 .444882
3 1 .800163 .017072 .561671
4 1 .198419 .009089 .605756
5 1 .005238 .605404 .489406
6 1 .507935 .493322 .985712
7 1 .490346 .412362 .011276
ITEM: TIMESTEP
1
ITEM: NUMBER OF ATOMS
7
ITEM: BOX BOUNDS ss ss ss
-3.1056 3.1460
-2.7698 3.1775
-1.9346 2.0240
ITEM: ATOMS id type xs ys zs
1 1 .498837 .995349 .415347
2 1 .994903 .622950 .435943
3 1 .799876 .019987 .554701
4 1 .197579 .000967 .601010
5 1 .010649 .606939 .493862
6 1 .508817 .490676 .999078
7 1 .491735 .420114 .000683
ITEM: TIMESTEP
50
ITEM: NUMBER OF ATOMS
7
ITEM: BOX BOUNDS ss ss ss
-3.1056 3.1478
-2.7992 3.1775
-1.9639 2.0519
ITEM: ATOMS id type xs ys zs
1 1 .497437 .997671 .416380
2 1 .996708 .624641 .438230
3 1 .799233 .026045 .553730
4 1 .197890 .005480 .603199
5 1 .010703 .607755 .489453
6 1 .507444 .490069 .993758
7 1 .490241 .421582 .004910
ITEM: TIMESTEP
100
ITEM: NUMBER OF ATOMS
7
ITEM: BOX BOUNDS ss ss ss
-3.1056 3.1535
-2.8015 3.1862
-1.9732 2.0687
ITEM: ATOMS id type xs ys zs
1 1 .496925 .993753 .415777
2 1 .991966 .624000 .434756
3 1 .797693 .027894 .555388
4 1 .196691 .006565 .596470
5 1 .012166 .604847 .493962
6 1 .508668 .495894 .990100
7 1 .491397 .420906 .010505
ITEM: TIMESTEP
150
ITEM: NUMBER OF ATOMS
7
ITEM: BOX BOUNDS ss ss ss
-3.1056 3.1586
-2.8022 3.1895
-1.9818 2.0608
ITEM: ATOMS id type xs ys zs
1 1 .497631 .993971 .415381
2 1 .990304 .622745 .438383
3 1 .796013 .026604 .556922
4 1 .198238 .005139 .601826
5 1 .012579 .604082 .494955
6 1 .508878 .494480 .993624
7 1 .490527 .420951 .012404
ITEM: TIMESTEP
200
ITEM: NUMBER OF ATOMS
7
ITEM: BOX BOUNDS ss ss ss
-3.1056 3.1656
-2.8017 3.1919
-1.9830 2.0675
ITEM: ATOMS id type xs ys zs
1 1 .494123 .994737 .419274
2 1 .991038 .627530 .436985
3 1 .798255 .024997 .551461
4 1 .193706 .007818 .597029
5 1 .008485 .606641 .487336
6 1 .508347 .489985 .987308
7 1 .491840 .425320 .016432
ITEM: TIMESTEP
250
ITEM: NUMBER OF ATOMS
7
ITEM: BOX BOUNDS ss ss ss
-3.1056 3.1756
-2.7946 3.1954
-1.9902 2.0602
ITEM: ATOMS id type xs ys zs
1 1 .492101 .993136 .419851
2 1 .990401 .625470 .440088
3 1 .796614 .024935 .556068
4 1 .193861 .003891 .597730
5 1 .010669 .604150 .490641
6 1 .509197 .487405 .989805
7 1 .492730 .424917 .015418
ITEM: TIMESTEP
300
ITEM: NUMBER OF ATOMS
7
ITEM: BOX BOUNDS ss ss ss
-3.1056 3.1692
-2.7953 3.1949
-1.9838 2.0643
ITEM: ATOMS id type xs ys zs
1 1 .494902 .992887 .425217
2 1 .990841 .623470 .433131
3 1 .797396 .023541 .553900
4 1 .193873 .009019 .595059
5 1 .006687 .603231 .486007
6 1 .510223 .490882 .986489
7 1 .491163 .420470 .011296
ITEM: TIMESTEP
350
ITEM: NUMBER OF ATOMS
7
ITEM: BOX BOUNDS ss ss ss
-3.1056 3.1599
-2.7911 3.1975
-1.9812 2.0573
ITEM: ATOMS id type xs ys zs
1 1 .501170 .993429 .422535
2 1 .992272 .622192 .423884
3 1 .802897 .025742 .558832
4 1 .197248 .009840 .599503
5 1 .008671 .605491 .491357
6 1 .509917 .493623 .986832
7 1 .486999 .415504 .014108
ITEM: TIMESTEP
400
ITEM: NUMBER OF ATOMS
7
ITEM: BOX BOUNDS ss ss ss
-3.1056 3.1599
-2.8025 3.1967
-1.9832 2.0502
ITEM: ATOMS id type xs ys zs
1 1 .498407 .993906 .432030
2 1 .993407 .619005 .439151
3 1 .800568 .025740 .552165
4 1 .196640 .011665 .601346
5 1 .006578 .605029 .491138
6 1 .508119 .492200 .983845
7 1 .488858 .420871 .012710
ITEM: TIMESTEP
1
ITEM: NUMBER OF ATOMS
7
ITEM: BOX BOUNDS ss ss ss
-3.1056 3.1425
-2.7676 3.1990
-1.9503 2.0316
ITEM: ATOMS id type xs ys zs
1 1 .499167 .991351 .417533
2 1 .995707 .620515 .437070
3 1 .800357 .019769 .555884
4 1 .197406 .000814 .601765
5 1 .010513 .604956 .494694
6 1 .509429 .488694 .997543
7 1 .492132 .418286 .004931
ITEM: TIMESTEP
50
ITEM: NUMBER OF ATOMS
7
ITEM: BOX BOUNDS ss ss ss
-3.1056 3.1450
-2.7958 3.1990
-1.9596 2.0510
ITEM: ATOMS id type xs ys zs
1 1 .499410 .991366 .419421
2 1 .994595 .623064 .437363
3 1 .798933 .023151 .553903
4 1 .200450 .005443 .598954
5 1 .011120 .606860 .493921
6 1 .508494 .490762 .995373
7 1 .492037 .420368 .004631
ITEM: TIMESTEP
100
ITEM: NUMBER OF ATOMS
7
ITEM: BOX BOUNDS ss ss ss
-3.1056 3.1533
-2.8060 3.1990
-1.9744 2.0668
ITEM: ATOMS id type xs ys zs
1 1 .499867 .991865 .418761
2 1 .993574 .623034 .441439
3 1 .799726 .024448 .552158
4 1 .199820 .005433 .599237
5 1 .012096 .607472 .497487
6 1 .507791 .490483 .988945
7 1 .490437 .425488 .008447
ITEM: TIMESTEP
150
ITEM: NUMBER OF ATOMS
7
ITEM: BOX BOUNDS ss ss ss
-3.1056 3.1623
-2.8084 3.1990
-1.9825 2.0623
ITEM: ATOMS id type xs ys zs
1 1 .498960 .993389 .416718
2 1 .994976 .622573 .436838
3 1 .799213 .026696 .552796
4 1 .198186 .007452 .601349
5 1 .009918 .606072 .490855
6 1 .508541 .491730 .984014
7 1 .492127 .419817 .012228
ITEM: TIMESTEP
200
ITEM: NUMBER OF ATOMS
7
ITEM: BOX BOUNDS ss ss ss
-3.1056 3.1581
-2.8036 3.1990
-1.9802 2.0646
ITEM: ATOMS id type xs ys zs
1 1 .497095 .991761 .420113
2 1 .990592 .624133 .444194
3 1 .800227 .023014 .556693
4 1 .195530 .008296 .595575
5 1 .007067 .605360 .491909
6 1 .507749 .493067 .982481
7 1 .490053 .419783 .011381
ITEM: TIMESTEP
250
ITEM: NUMBER OF ATOMS
7
ITEM: BOX BOUNDS ss ss ss
-3.1056 3.1557
-2.7939 3.1990
-1.9832 2.0578
ITEM: ATOMS id type xs ys zs
1 1 .497127 .990734 .423982
2 1 .990793 .623554 .448183
3 1 .802906 .020659 .558797
4 1 .198010 .005473 .593713
5 1 .008074 .604151 .490044
6 1 .509092 .492579 .984786
7 1 .489241 .419390 .010592
ITEM: TIMESTEP
300
ITEM: NUMBER OF ATOMS
7
ITEM: BOX BOUNDS ss ss ss
-3.1056 3.1575
-2.7983 3.2099
-1.9845 2.0532
ITEM: ATOMS id type xs ys zs
1 1 .495678 .989226 .421281
2 1 .988888 .625611 .444217
3 1 .800593 .024529 .560416
4 1 .197244 .008134 .603158
5 1 .007441 .609940 .491533
6 1 .509497 .487861 .986737
7 1 .486543 .419266 .015998
ITEM: TIMESTEP
350
ITEM: NUMBER OF ATOMS
7
ITEM: BOX BOUNDS ss ss ss
-3.1056 3.1501
-2.7922 3.2001
-1.9821 2.0501
ITEM: ATOMS id type xs ys zs
1 1 .493471 .991553 .414560
2 1 .988869 .624953 .439063
3 1 .801633 .020818 .556423
4 1 .198217 .006360 .602295
5 1 .009691 .609803 .492140
6 1 .509213 .486175 .989895
7 1 .489344 .418661 .017743
ITEM: TIMESTEP
400
ITEM: NUMBER OF ATOMS
7
ITEM: BOX BOUNDS ss ss ss
-3.0959 3.1278
-2.7881 3.2034
-1.9792 2.0513
ITEM: ATOMS id type xs ys zs
1 1 .494930 .993392 .420883
2 1 .993093 .623477 .438981
3 1 .806419 .022141 .555001
4 1 .198901 .008762 .600230
5 1 .006138 .611545 .492405
6 1 .511554 .486526 .985137
7 1 .487546 .417008 .017375
ITEM: TIMESTEP
1
ITEM: NUMBER OF ATOMS
7
ITEM: BOX BOUNDS ss ss ss
-3.0851 3.1189
-2.7677 3.1805
-1.9412 2.0241
ITEM: ATOMS id type xs ys zs
1 1 .499285 .994667 .416575
2 1 .999442 .622449 .436317
3 1 .802746 .019876 .555859
4 1 .195396 .000503 .601891
5 1 .007879 .606565 .494196
6 1 .509578 .490046 .999288
7 1 .492039 .419664 .002222
ITEM: TIMESTEP
50
ITEM: NUMBER OF ATOMS
7
ITEM: BOX BOUNDS ss ss ss
-3.0851 3.1454
-2.7963 3.1807
-1.9611 2.0496
ITEM: ATOMS id type xs ys zs
1 1 .499711 .993785 .414182
2 1 .996324 .623189 .435201
3 1 .798057 .025582 .557281
4 1 .193585 .005143 .600982
5 1 .007692 .609515 .497192
6 1 .507094 .493459 .994185
7 1 .490472 .422647 .007012
ITEM: TIMESTEP
100
ITEM: NUMBER OF ATOMS
7
ITEM: BOX BOUNDS ss ss ss
-3.0851 3.1523
-2.8055 3.1997
-1.9719 2.0613
ITEM: ATOMS id type xs ys zs
1 1 .497613 .991437 .417484
2 1 .993719 .621274 .436384
3 1 .797213 .025758 .556957
4 1 .190926 .004809 .601287
5 1 .007714 .604354 .490112
6 1 .508374 .489708 .991046
7 1 .488526 .422616 .008551
ITEM: TIMESTEP
150
ITEM: NUMBER OF ATOMS
7
ITEM: BOX BOUNDS ss ss ss
-3.0851 3.1613
-2.8089 3.1920
-1.9770 2.0605
ITEM: ATOMS id type xs ys zs
1 1 .497337 .992746 .413477
2 1 .989361 .628229 .441627
3 1 .795469 .027358 .550488
4 1 .194043 .010175 .597728
5 1 .005896 .607725 .492327
6 1 .509411 .491314 .987426
7 1 .488665 .423688 .009323
ITEM: TIMESTEP
200
ITEM: NUMBER OF ATOMS
7
ITEM: BOX BOUNDS ss ss ss
-3.0872 3.1533
-2.8031 3.1903
-1.9813 2.0617
ITEM: ATOMS id type xs ys zs
1 1 .497686 .991877 .429321
2 1 .994488 .620649 .438611
3 1 .799467 .027438 .561954
4 1 .193495 .010871 .600677
5 1 .003364 .602721 .492716
6 1 .508724 .490588 .986712
7 1 .489340 .422002 .012850
ITEM: TIMESTEP
250
ITEM: NUMBER OF ATOMS
7
ITEM: BOX BOUNDS ss ss ss
-3.0949 3.1595
-2.7920 3.1959
-1.9772 2.0592
ITEM: ATOMS id type xs ys zs
1 1 .501873 .991890 .418723
2 1 .995177 .621611 .448505
3 1 .801389 .022550 .554601
4 1 .195841 .010804 .603694
5 1 .008314 .606251 .491039
6 1 .508895 .490540 .989685
7 1 .488443 .419527 .011502
ITEM: TIMESTEP
300
ITEM: NUMBER OF ATOMS
7
ITEM: BOX BOUNDS ss ss ss
-3.0969 3.1590
-2.7986 3.1942
-1.9812 2.0539
ITEM: ATOMS id type xs ys zs
1 1 .500923 .990356 .418239
2 1 .994332 .621210 .445795
3 1 .800973 .021569 .555176
4 1 .195771 .008556 .603814
5 1 .009935 .607969 .488978
6 1 .509549 .489213 .991506
7 1 .489184 .420666 .015320
ITEM: TIMESTEP
350
ITEM: NUMBER OF ATOMS
7
ITEM: BOX BOUNDS ss ss ss
-3.1051 3.1690
-2.7856 3.1953
-1.9687 2.0594
ITEM: ATOMS id type xs ys zs
1 1 .500246 .993291 .415055
2 1 .991791 .619233 .442638
3 1 .802806 .021042 .556796
4 1 .194726 .007262 .600182
5 1 .008381 .606722 .482937
6 1 .508474 .490349 .988438
7 1 .488372 .418980 .015084
ITEM: TIMESTEP
400
ITEM: NUMBER OF ATOMS
7
ITEM: BOX BOUNDS ss ss ss
-3.1027 3.1608
-2.7907 3.1927
-1.9743 2.0645
ITEM: ATOMS id type xs ys zs
1 1 .497841 .990966 .418380
2 1 .990948 .621317 .446131
3 1 .798516 .019443 .552084
4 1 .195169 .008227 .608336
5 1 .007622 .607076 .483789
6 1 .507495 .490674 .982325
7 1 .488389 .418005 .009212
ITEM: TIMESTEP
1
ITEM: NUMBER OF ATOMS
7
ITEM: BOX BOUNDS ss ss ss
-3.0851 3.1518
-2.7674 3.1805
-1.9503 2.0466
ITEM: ATOMS id type xs ys zs
1 1 .496893 .994886 .415353
2 1 .993896 .622760 .435809
3 1 .798391 .019847 .553480
4 1 .194680 .000516 .599198
5 1 .007358 .606420 .493224
6 1 .506927 .490036 .993163
7 1 .489784 .419318 .005269
ITEM: TIMESTEP
50
ITEM: NUMBER OF ATOMS
7
ITEM: BOX BOUNDS ss ss ss
-3.0851 3.1518
-2.7965 3.1805
-1.9612 2.0525
ITEM: ATOMS id type xs ys zs
1 1 .495897 .994301 .416718
2 1 .996011 .624181 .440839
3 1 .797552 .026820 .557375
4 1 .194088 .007330 .599406
5 1 .007998 .607330 .492725
6 1 .507310 .491296 .993558
7 1 .489083 .423867 .005565
ITEM: TIMESTEP
100
ITEM: NUMBER OF ATOMS
7
ITEM: BOX BOUNDS ss ss ss
-3.0851 3.1523
-2.8032 3.1874
-1.9776 2.0654
ITEM: ATOMS id type xs ys zs
1 1 .496237 .990604 .414221
2 1 .997029 .623555 .444995
3 1 .795935 .029429 .556726
4 1 .193207 .008380 .598446
5 1 .007830 .604889 .491838
6 1 .507580 .491761 .994641
7 1 .489784 .424633 .005499
ITEM: TIMESTEP
150
ITEM: NUMBER OF ATOMS
7
ITEM: BOX BOUNDS ss ss ss
-3.0851 3.1567
-2.8083 3.1963
-1.9923 2.0669
ITEM: ATOMS id type xs ys zs
1 1 .501796 .990411 .415613
2 1 .996586 .624953 .433361
3 1 .796763 .027620 .559878
4 1 .194033 .011943 .602810
5 1 .008196 .604720 .494966
6 1 .509790 .491344 .993707
7 1 .491514 .423613 .014105
ITEM: TIMESTEP
200
ITEM: NUMBER OF ATOMS
7
ITEM: BOX BOUNDS ss ss ss
-3.0884 3.1579
-2.8037 3.1969
-1.9951 2.0810
ITEM: ATOMS id type xs ys zs
1 1 .497396 .995669 .419089
2 1 .993645 .624275 .445021
3 1 .795510 .026915 .556164
4 1 .193502 .005756 .594333
5 1 .010017 .607646 .495765
6 1 .509173 .493732 .986089
7 1 .489229 .423271 .015271
ITEM: TIMESTEP
250
ITEM: NUMBER OF ATOMS
7
ITEM: BOX BOUNDS ss ss ss
-3.0862 3.1541
-2.8113 3.1970
-1.9863 2.0683
ITEM: ATOMS id type xs ys zs
1 1 .494656 .991291 .424873
2 1 .990705 .624810 .437145
3 1 .804179 .029734 .551064
4 1 .194371 .003699 .600251
5 1 .008841 .607418 .495306
6 1 .506512 .483825 .985383
7 1 .484291 .424484 .011358
ITEM: TIMESTEP
300
ITEM: NUMBER OF ATOMS
7
ITEM: BOX BOUNDS ss ss ss
-3.0928 3.1565
-2.8149 3.2005
-1.9887 2.0640
ITEM: ATOMS id type xs ys zs
1 1 .495564 .987910 .428738
2 1 .991144 .623205 .436695
3 1 .803351 .026069 .548758
4 1 .199207 .006459 .602406
5 1 .008642 .608760 .490731
6 1 .507095 .486814 .986810
7 1 .488570 .425539 .013046
ITEM: TIMESTEP
350
ITEM: NUMBER OF ATOMS
7
ITEM: BOX BOUNDS ss ss ss
-3.0874 3.1535
-2.8025 3.1961
-1.9926 2.0614
ITEM: ATOMS id type xs ys zs
1 1 .493231 .995649 .429693
2 1 .988429 .625839 .435744
3 1 .802566 .021875 .550711
4 1 .196013 .007420 .607416
5 1 .006632 .606587 .494364
6 1 .507653 .487730 .979493
7 1 .489652 .422976 .011727
ITEM: TIMESTEP
400
ITEM: NUMBER OF ATOMS
7
ITEM: BOX BOUNDS ss ss ss
-3.0931 3.1575
-2.8129 3.1989
-1.9990 2.0645
ITEM: ATOMS id type xs ys zs
1 1 .495385 .996237 .433922
2 1 .989036 .626874 .432245
3 1 .802888 .024963 .551948
4 1 .196491 .005932 .608598
5 1 .007323 .606768 .497366
6 1 .506693 .487708 .978704
7 1 .488274 .426935 .011418
ITEM: TIMESTEP
1
ITEM: NUMBER OF ATOMS
7
ITEM: BOX BOUNDS ss ss ss
-3.0919 3.1357
-2.7901 3.1848
-1.9579 2.0394
ITEM: ATOMS id type xs ys zs
1 1 .498673 .993697 .417366
2 1 .996401 .623768 .437615
3 1 .800875 .023416 .555294
4 1 .195909 .004597 .601035
5 1 .008239 .607730 .494466
6 1 .508538 .491739 .995121
7 1 .491620 .421391 .006632
ITEM: TIMESTEP
50
ITEM: NUMBER OF ATOMS
7
ITEM: BOX BOUNDS ss ss ss
-3.0919 3.1464
-2.7932 3.1848
-1.9633 2.0500
ITEM: ATOMS id type xs ys zs
1 1 .498431 .993863 .416490
2 1 .994536 .625137 .435924
3 1 .798643 .023704 .553540
4 1 .195122 .003416 .595908
5 1 .007287 .606970 .495990
6 1 .506713 .490375 .993500
7 1 .490916 .420157 .005500
ITEM: TIMESTEP
100
ITEM: NUMBER OF ATOMS
7
ITEM: BOX BOUNDS ss ss ss
-3.0919 3.1517
-2.8101 3.1916
-1.9748 2.0652
ITEM: ATOMS id type xs ys zs
1 1 .496121 .992901 .417165
2 1 .992595 .625871 .434834
3 1 .795510 .028504 .552342
4 1 .194757 .004781 .596521
5 1 .009145 .604797 .495732
6 1 .505454 .490792 .990269
7 1 .490450 .420401 .007436
ITEM: TIMESTEP
150
ITEM: NUMBER OF ATOMS
7
ITEM: BOX BOUNDS ss ss ss
-3.0919 3.1562
-2.8107 3.1962
-1.9782 2.0690
ITEM: ATOMS id type xs ys zs
1 1 .495860 .995600 .420402
2 1 .988937 .624469 .437073
3 1 .794077 .027310 .553374
4 1 .195142 .013343 .598831
5 1 .006080 .603775 .492858
6 1 .510433 .494157 .986245
7 1 .489431 .419807 .005289
ITEM: TIMESTEP
200
ITEM: NUMBER OF ATOMS
7
ITEM: BOX BOUNDS ss ss ss
-3.0919 3.1618
-2.8006 3.1953
-1.9886 2.0741
ITEM: ATOMS id type xs ys zs
1 1 .495324 .991710 .417409
2 1 .988188 .625415 .438917
3 1 .795070 .025699 .555554
4 1 .192129 .006791 .595860
5 1 .004354 .602683 .490229
6 1 .509292 .493813 .988551
7 1 .488990 .419765 .008982
ITEM: TIMESTEP
250
ITEM: NUMBER OF ATOMS
7
ITEM: BOX BOUNDS ss ss ss
-3.0994 3.1673
-2.8024 3.1933
-2.0002 2.0648
ITEM: ATOMS id type xs ys zs
1 1 .496764 .990868 .427813
2 1 .989202 .627618 .438648
3 1 .798759 .023560 .559142
4 1 .193559 .010229 .599759
5 1 .009300 .604265 .494455
6 1 .508288 .488598 .982419
7 1 .489566 .422853 .018957
ITEM: TIMESTEP
300
ITEM: NUMBER OF ATOMS
7
ITEM: BOX BOUNDS ss ss ss
-3.0919 3.1495
-2.8010 3.1986
-2.0061 2.0586
ITEM: ATOMS id type xs ys zs
1 1 .497097 .989874 .428697
2 1 .997365 .622592 .441077
3 1 .799328 .026453 .561914
4 1 .191326 .009469 .605439
5 1 .007315 .608849 .495285
6 1 .507395 .487459 .992234
7 1 .494211 .419576 .018127
ITEM: TIMESTEP
350
ITEM: NUMBER OF ATOMS
7
ITEM: BOX BOUNDS ss ss ss
-3.1023 3.1488
-2.7901 3.2063
-1.9994 2.0646
ITEM: ATOMS id type xs ys zs
1 1 .494322 .985464 .414103
2 1 .993117 .622052 .433576
3 1 .798084 .020784 .552335
4 1 .194523 .009350 .608261
5 1 .009573 .602090 .495514
6 1 .513783 .492983 .986736
7 1 .489299 .419058 .012669
ITEM: TIMESTEP
400
ITEM: NUMBER OF ATOMS
7
ITEM: BOX BOUNDS ss ss ss
-3.0997 3.1536
-2.7903 3.2037
-2.0064 2.0546
ITEM: ATOMS id type xs ys zs
1 1 .491900 .991505 .423612
2 1 .990288 .625329 .441097
3 1 .795441 .023523 .552685
4 1 .194285 .013123 .598400
5 1 .009989 .606093 .494049
6 1 .512176 .491484 .992632
7 1 .490381 .418777 .016202
ITEM: TIMESTEP
1
ITEM: NUMBER OF ATOMS
7
ITEM: BOX BOUNDS ss ss ss
-3.0923 3.1357
-2.7901 3.1848
-1.9830 2.0394
ITEM: ATOMS id type xs ys zs
1 1 .498802 .993861 .420817
2 1 .996359 .623823 .440892
3 1 .800435 .023419 .558037
4 1 .196066 .003985 .603748
5 1 .008515 .607769 .497909
6 1 .508702 .491554 .995281
7 1 .491789 .421379 .012717
ITEM: TIMESTEP
50
ITEM: NUMBER OF ATOMS
7
ITEM: BOX BOUNDS ss ss ss
-3.0923 3.1471
-2.7927 3.1848
-1.9830 2.0553
ITEM: ATOMS id type xs ys zs
1 1 .497807 .993353 .421425
2 1 .995168 .623257 .437935
3 1 .799417 .024052 .557954
4 1 .195044 .003296 .602946
5 1 .009478 .606830 .495915
6 1 .509643 .493591 .990783
7 1 .490341 .422453 .014917
ITEM: TIMESTEP
100
ITEM: NUMBER OF ATOMS
7
ITEM: BOX BOUNDS ss ss ss
-3.0923 3.1560
-2.8049 3.1848
-1.9830 2.0661
ITEM: ATOMS id type xs ys zs
1 1 .496950 .992608 .418322
2 1 .993455 .625848 .434784
3 1 .799644 .028943 .556190
4 1 .193818 .004244 .598977
5 1 .008042 .605021 .495510
6 1 .508354 .493263 .991221
7 1 .486440 .422469 .010531
ITEM: TIMESTEP
150
ITEM: NUMBER OF ATOMS
7
ITEM: BOX BOUNDS ss ss ss
-3.0923 3.1599
-2.8058 3.2013
-1.9830 2.0785
ITEM: ATOMS id type xs ys zs
1 1 .498977 .993229 .412961
2 1 .992428 .621551 .439580
3 1 .797322 .027166 .552655
4 1 .194957 .011093 .600522
5 1 .008438 .608284 .487068
6 1 .505983 .494136 .989340
7 1 .491925 .421477 .013345
ITEM: TIMESTEP
200
ITEM: NUMBER OF ATOMS
7
ITEM: BOX BOUNDS ss ss ss
-3.0923 3.1589
-2.8086 3.1991
-1.9906 2.0752
ITEM: ATOMS id type xs ys zs
1 1 .499254 .993730 .412588
2 1 .991476 .621134 .435943
3 1 .794950 .029089 .553501
4 1 .194981 .010990 .600788
5 1 .008565 .607942 .488141
6 1 .506713 .492593 .992602
7 1 .493494 .421607 .018205
ITEM: TIMESTEP
250
ITEM: NUMBER OF ATOMS
7
ITEM: BOX BOUNDS ss ss ss
-3.0987 3.1592
-2.8117 3.1956
-1.9881 2.0760
ITEM: ATOMS id type xs ys zs
1 1 .494997 .991396 .422980
2 1 .991736 .623751 .441046
3 1 .795248 .030799 .552962
4 1 .195120 .007352 .595110
5 1 .006838 .604592 .488613
6 1 .502915 .488507 .989419
7 1 .488154 .426591 .015198
ITEM: TIMESTEP
300
ITEM: NUMBER OF ATOMS
7
ITEM: BOX BOUNDS ss ss ss
-3.1104 3.1584
-2.8162 3.1953
-1.9953 2.0863
ITEM: ATOMS id type xs ys zs
1 1 .495819 .987189 .419139
2 1 .991907 .624566 .433868
3 1 .797805 .029971 .554079
4 1 .195387 .008533 .595541
5 1 .011480 .597282 .491971
6 1 .508878 .493502 .987594
7 1 .491762 .418417 .008808
ITEM: TIMESTEP
350
ITEM: NUMBER OF ATOMS
7
ITEM: BOX BOUNDS ss ss ss
-3.1049 3.1595
-2.8139 3.2068
-1.9984 2.0788
ITEM: ATOMS id type xs ys zs
1 1 .493466 .991781 .418582
2 1 .986439 .620139 .444236
3 1 .796826 .023283 .546095
4 1 .194275 .009002 .601476
5 1 .010838 .603933 .495265
6 1 .511688 .493895 .989025
7 1 .490924 .423369 .015447
ITEM: TIMESTEP
400
ITEM: NUMBER OF ATOMS
7
ITEM: BOX BOUNDS ss ss ss
-3.1012 3.1638
-2.8093 3.2125
-2.0090 2.0775
ITEM: ATOMS id type xs ys zs
1 1 .497161 .993769 .421162
2 1 .989114 .621013 .449454
3 1 .798544 .025065 .544672
4 1 .198249 .007066 .607365
5 1 .011410 .600573 .497624
6 1 .510284 .492215 .982130
7 1 .487893 .420633 .018205
ITEM: TIMESTEP
450
ITEM: NUMBER OF ATOMS
7
ITEM: BOX BOUNDS ss ss ss
-3.0954 3.1739
-2.8077 3.2068
-2.0037 2.0786
ITEM: ATOMS id type xs ys zs
1 1 .491923 .987390 .422131
2 1 .987199 .621432 .444860
3 1 .796012 .025516 .549960
4 1 .195116 .007520 .611829
5 1 .010672 .599841 .490773
6 1 .507140 .492890 .985647
7 1 .488099 .421042 .013612
ITEM: TIMESTEP
500
ITEM: NUMBER OF ATOMS
7
ITEM: BOX BOUNDS ss ss ss
-3.0962 3.1649
-2.8125 3.2155
-1.9955 2.0792
ITEM: ATOMS id type xs ys zs
1 1 .494932 .986690 .417582
2 1 .990020 .622591 .451724
3 1 .797692 .022260 .545191
4 1 .197770 .010207 .610186
5 1 .007313 .600730 .489525
6 1 .508370 .492682 .978256
7 1 .489730 .421007 .009673
ITEM: TIMESTEP
550
ITEM: NUMBER OF ATOMS
7
ITEM: BOX BOUNDS ss ss ss
-3.1011 3.1673
-2.8101 3.2142
-2.0000 2.0703
ITEM: ATOMS id type xs ys zs
1 1 .496182 .989794 .420531
2 1 .989848 .618076 .449736
3 1 .796767 .026366 .546022
4 1 .196735 .010230 .617300
5 1 .007445 .600446 .493683
6 1 .510064 .492942 .984217
7 1 .489316 .421462 .013450
ITEM: TIMESTEP
600
ITEM: NUMBER OF ATOMS
7
ITEM: BOX BOUNDS ss ss ss
-3.0883 3.1660
-2.8057 3.2031
-1.9970 2.0631
ITEM: ATOMS id type xs ys zs
1 1 .492650 .993061 .420976
2 1 .988303 .621206 .452679
3 1 .795700 .017773 .548868
4 1 .194291 .004795 .610695
5 1 .007539 .605319 .494198
6 1 .509008 .491530 .978494
7 1 .486811 .421859 .014700
ITEM: TIMESTEP
650
ITEM: NUMBER OF ATOMS
7
ITEM: BOX BOUNDS ss ss ss
-3.0928 3.1641
-2.8111 3.2069
-1.9997 2.0543
ITEM: ATOMS id type xs ys zs
1 1 .493336 .988911 .422512
2 1 .991291 .621046 .447948
3 1 .795235 .024031 .547147
4 1 .197693 .009597 .614608
5 1 .009218 .602509 .492658
6 1 .510667 .489271 .983148
7 1 .490447 .420727 .011165
ITEM: TIMESTEP
1
ITEM: NUMBER OF ATOMS
7
ITEM: BOX BOUNDS ss ss ss
-3.0928 3.1352
-2.7782 3.1966
-1.9694 2.0239
ITEM: ATOMS id type xs ys zs
1 1 .498677 .991899 .420251
2 1 .997074 .621275 .440410
3 1 .801041 .021764 .558941
4 1 .196156 .002663 .604527
5 1 .008786 .605845 .497541
6 1 .509153 .489804 .999218
7 1 .491950 .419553 .009784
ITEM: TIMESTEP
50
ITEM: NUMBER OF ATOMS
7
ITEM: BOX BOUNDS ss ss ss
-3.0928 3.1435
-2.7949 3.1966
-1.9694 2.0528
ITEM: ATOMS id type xs ys zs
1 1 .498023 .992371 .417224
2 1 .996138 .623647 .437680
3 1 .799514 .023837 .555792
4 1 .194987 .003020 .602458
5 1 .010297 .608895 .496512
6 1 .507963 .492207 .989994
7 1 .490977 .421149 .008075
ITEM: TIMESTEP
100
ITEM: NUMBER OF ATOMS
7
ITEM: BOX BOUNDS ss ss ss
-3.0928 3.1530
-2.8054 3.1966
-1.9799 2.0643
ITEM: ATOMS id type xs ys zs
1 1 .498108 .992619 .419449