ITEM: TIMESTEP
1
ITEM: NUMBER OF ATOMS
7
ITEM: BOX BOUNDS ss ss ss
-3.0426 3.1185
-2.7676 3.1520
-1.9358 2.0242
ITEM: ATOMS id type xs ys zs
1 1 .495988 .999340 .415573
2 1 .999353 .625557 .435979
3 1 .801567 .019908 .555048
4 1 .190029 .000790 .601256
5 1 .000565 .609588 .493662
6 1 .506203 .492604 .998852
7 1 .488969 .421572 .001309
ITEM: TIMESTEP
50
ITEM: NUMBER OF ATOMS
7
ITEM: BOX BOUNDS ss ss ss
-3.0690 3.1431
-2.7911 3.1746
-1.9605 2.0506
ITEM: ATOMS id type xs ys zs
1 1 .495638 .995622 .416215
2 1 .994849 .624363 .436837
3 1 .800903 .023111 .554481
4 1 .194206 .007389 .598148
5 1 .004867 .608891 .492546
6 1 .506968 .494343 .991218
7 1 .489101 .421063 .008092
ITEM: TIMESTEP
100
ITEM: NUMBER OF ATOMS
7
ITEM: BOX BOUNDS ss ss ss
-3.0744 3.1495
-2.7975 3.1854
-1.9715 2.0558
ITEM: ATOMS id type xs ys zs
1 1 .494860 .995342 .420704
2 1 .992757 .624691 .440830
3 1 .801520 .021890 .555637
4 1 .194912 .009012 .595738
5 1 .002163 .608700 .490875
6 1 .506125 .491489 .988469
7 1 .486672 .423244 .014100
ITEM: TIMESTEP
150
ITEM: NUMBER OF ATOMS
7
ITEM: BOX BOUNDS ss ss ss
-3.0779 3.1477
-2.7976 3.1906
-1.9677 2.0575
ITEM: ATOMS id type xs ys zs
1 1 .495050 .995226 .418702
2 1 .991326 .622627 .442868
3 1 .802266 .021373 .554392
4 1 .196255 .008545 .593658
5 1 .004181 .609649 .491845
6 1 .506338 .490816 .984917
7 1 .488105 .422189 .013378
ITEM: TIMESTEP
200
ITEM: NUMBER OF ATOMS
7
ITEM: BOX BOUNDS ss ss ss
-3.0936 3.1547
-2.7978 3.2045
-1.9712 2.0554
ITEM: ATOMS id type xs ys zs
1 1 .496275 .992720 .420947
2 1 .989810 .622435 .444750
3 1 .802018 .020629 .556110
4 1 .198763 .010195 .595837
5 1 .006475 .609738 .492358
6 1 .507481 .489116 .986056
7 1 .488759 .418839 .014291
ITEM: TIMESTEP
250
ITEM: NUMBER OF ATOMS
7
ITEM: BOX BOUNDS ss ss ss
-3.0986 3.1488
-2.7880 3.1982
-1.9595 2.0521
ITEM: ATOMS id type xs ys zs
1 1 .494108 .993807 .412906
2 1 .990907 .622788 .447329
3 1 .804474 .020773 .560520
4 1 .193990 .011425 .594935
5 1 .006384 .609262 .495113
6 1 .509358 .491189 .989365
7 1 .490336 .418356 .015094
ITEM: TIMESTEP
300
ITEM: NUMBER OF ATOMS
7
ITEM: BOX BOUNDS ss ss ss
-3.1017 3.1578
-2.7794 3.2058
-1.9537 2.0467
ITEM: ATOMS id type xs ys zs
1 1 .494831 .992602 .411442
2 1 .989018 .620254 .447616
3 1 .803106 .019130 .562384
4 1 .195490 .008536 .593391
5 1 .006277 .609545 .494532
6 1 .508544 .488479 .989199
7 1 .488709 .416113 .013291
ITEM: TIMESTEP
350
ITEM: NUMBER OF ATOMS
7
ITEM: BOX BOUNDS ss ss ss
-3.1091 3.1499
-2.7850 3.1999
-1.9579 2.0589
ITEM: ATOMS id type xs ys zs
1 1 .497015 .991457 .420697
2 1 .993183 .623343 .440356
3 1 .805894 .019867 .554535
4 1 .200921 .010712 .589442
5 1 .005656 .612219 .489466
6 1 .509205 .487916 .984073
7 1 .490073 .418426 .015075
ITEM: TIMESTEP
400
ITEM: NUMBER OF ATOMS
7
ITEM: BOX BOUNDS ss ss ss
-3.1126 3.1533
-2.7787 3.2070
-1.9590 2.0517
ITEM: ATOMS id type xs ys zs
1 1 .494386 .990460 .417651
2 1 .990768 .622296 .440315
3 1 .806694 .018534 .553957
4 1 .200513 .010800 .594391
5 1 .006290 .611482 .492400
6 1 .511098 .488341 .985329
7 1 .488876 .415550 .012088
ITEM: TIMESTEP
1
ITEM: NUMBER OF ATOMS
7
ITEM: BOX BOUNDS ss ss ss
-3.1033 3.1256
-2.7680 3.1810
-1.9351 2.0246
ITEM: ATOMS id type xs ys zs
1 1 .500322 .994469 .415445
2 1 .998204 .622529 .435855
3 1 .802568 .019882 .554907
4 1 .197704 .000847 .601128
5 1 .010306 .606643 .493538
6 1 .510429 .490248 .998747
7 1 .493394 .419551 .001181
ITEM: TIMESTEP
50
ITEM: NUMBER OF ATOMS
7
ITEM: BOX BOUNDS ss ss ss
-3.1033 3.1424
-2.7989 3.1810
-1.9619 2.0518
ITEM: ATOMS id type xs ys zs
1 1 .498235 .994353 .416016
2 1 .994591 .624179 .438885
3 1 .801855 .023333 .552570
4 1 .197279 .007080 .599133
5 1 .009551 .609523 .494033
6 1 .510078 .492588 .989539
7 1 .491218 .422597 .007536
ITEM: TIMESTEP
100
ITEM: NUMBER OF ATOMS
7
ITEM: BOX BOUNDS ss ss ss
-3.1033 3.1507
-2.7997 3.1863
-1.9724 2.0584
ITEM: ATOMS id type xs ys zs
1 1 .495023 .991622 .420478
2 1 .993535 .624304 .438588
3 1 .801980 .023706 .553398
4 1 .198597 .010104 .594725
5 1 .008994 .610194 .491629
6 1 .510473 .490212 .986590
7 1 .490431 .421500 .011130
ITEM: TIMESTEP
150
ITEM: NUMBER OF ATOMS
7
ITEM: BOX BOUNDS ss ss ss
-3.1033 3.1573
-2.8034 3.1849
-1.9687 2.0573
ITEM: ATOMS id type xs ys zs
1 1 .495019 .993144 .421209
2 1 .991516 .623840 .440661
3 1 .800671 .022510 .555126
4 1 .197596 .011389 .594403
5 1 .007978 .611087 .493701
6 1 .508562 .489765 .985629
7 1 .489556 .421619 .011248
ITEM: TIMESTEP
200
ITEM: NUMBER OF ATOMS
7
ITEM: BOX BOUNDS ss ss ss
-3.1033 3.1515
-2.7808 3.1853
-1.9706 2.0621
ITEM: ATOMS id type xs ys zs
1 1 .494966 .992703 .420097
2 1 .990934 .623069 .444353
3 1 .804279 .016500 .556615
4 1 .200381 .006592 .594958
5 1 .007713 .609927 .493824
6 1 .508613 .488733 .984331
7 1 .490331 .418663 .013059
ITEM: TIMESTEP
250
ITEM: NUMBER OF ATOMS
7
ITEM: BOX BOUNDS ss ss ss
-3.1033 3.1554
-2.7802 3.1832
-1.9744 2.0593
ITEM: ATOMS id type xs ys zs
1 1 .493927 .995241 .420776
2 1 .991008 .622893 .445632
3 1 .804236 .016375 .555483
4 1 .198748 .009306 .594963
5 1 .008166 .611806 .492876
6 1 .509957 .489482 .986649
7 1 .490987 .417435 .013747
ITEM: TIMESTEP
300
ITEM: NUMBER OF ATOMS
7
ITEM: BOX BOUNDS ss ss ss
-3.1033 3.1492
-2.7765 3.1838
-1.9737 2.0480
ITEM: ATOMS id type xs ys zs
1 1 .494815 .994442 .426031
2 1 .992697 .624234 .445758
3 1 .806918 .018124 .555986
4 1 .200712 .008064 .595820
5 1 .006685 .611650 .495655
6 1 .510239 .487533 .987302
7 1 .490227 .418428 .016413
ITEM: TIMESTEP
350
ITEM: NUMBER OF ATOMS
7
ITEM: BOX BOUNDS ss ss ss
-3.1102 3.1492
-2.7768 3.1946
-1.9700 2.0544
ITEM: ATOMS id type xs ys zs
1 1 .491081 .993067 .420389
2 1 .993333 .626731 .443529
3 1 .807639 .020398 .554409
4 1 .198868 .010539 .593969
5 1 .003870 .609113 .493506
6 1 .510857 .489361 .984808
7 1 .490356 .417139 .016703
ITEM: TIMESTEP
400
ITEM: NUMBER OF ATOMS
7
ITEM: BOX BOUNDS ss ss ss
-3.1161 3.1479
-2.7758 3.1945
-1.9800 2.0494
ITEM: ATOMS id type xs ys zs
1 1 .496113 .991449 .423219
2 1 .993068 .620524 .446562
3 1 .807469 .016641 .556520
4 1 .201838 .008075 .593269
5 1 .007929 .610105 .496733
6 1 .511950 .485085 .988359
7 1 .490792 .416604 .018632
ITEM: TIMESTEP
1
ITEM: NUMBER OF ATOMS
7
ITEM: BOX BOUNDS ss ss ss
-3.1056 3.1286
-2.7674 3.1772
-1.9347 2.0241
ITEM: ATOMS id type xs ys zs
1 1 .500259 .995110 .415439
2 1 .997735 .622897 .435841
3 1 .802258 .019795 .554968
4 1 .197909 .000785 .601150
5 1 .010656 .607016 .493557
6 1 .510354 .490512 .998872
7 1 .493347 .419762 .001043
ITEM: TIMESTEP
50
ITEM: NUMBER OF ATOMS
7
ITEM: BOX BOUNDS ss ss ss
-3.1056 3.1424
-2.7930 3.1772
-1.9597 2.0494
ITEM: ATOMS id type xs ys zs
1 1 .498682 .994203 .416001
2 1 .995090 .622925 .436447
3 1 .801586 .022833 .554001
4 1 .197525 .006250 .599433
5 1 .010180 .609201 .493159
6 1 .508892 .491967 .992144
7 1 .491789 .420892 .006935
ITEM: TIMESTEP
100
ITEM: NUMBER OF ATOMS
7
ITEM: BOX BOUNDS ss ss ss
-3.1056 3.1489
-2.8055 3.1845
-1.9761 2.0578
ITEM: ATOMS id type xs ys zs
1 1 .496609 .992676 .419902
2 1 .994230 .622978 .437474
3 1 .802396 .022420 .554006
4 1 .197359 .010011 .601836
5 1 .010240 .609161 .494665
6 1 .508844 .491450 .987464
7 1 .491658 .421648 .010224
ITEM: TIMESTEP
150
ITEM: NUMBER OF ATOMS
7
ITEM: BOX BOUNDS ss ss ss
-3.1056 3.1570
-2.8021 3.1887
-1.9801 2.0570
ITEM: ATOMS id type xs ys zs
1 1 .496121 .991081 .421187
2 1 .993701 .624335 .443058
3 1 .800634 .022998 .559183
4 1 .195713 .009175 .600063
5 1 .006369 .605646 .488850
6 1 .508861 .493300 .985661
7 1 .491563 .418400 .013851
ITEM: TIMESTEP
200
ITEM: NUMBER OF ATOMS
7
ITEM: BOX BOUNDS ss ss ss
-3.1056 3.1663
-2.8049 3.1997
-1.9828 2.0553
ITEM: ATOMS id type xs ys zs
1 1 .498122 .990212 .421261
2 1 .991761 .623134 .441764
3 1 .802528 .024312 .556753
4 1 .197704 .010145 .599322
5 1 .009124 .606970 .490658
6 1 .509448 .491022 .985003
7 1 .489900 .418563 .014212
ITEM: TIMESTEP
250
ITEM: NUMBER OF ATOMS
7
ITEM: BOX BOUNDS ss ss ss
-3.1056 3.1575
-2.7902 3.2005
-1.9748 2.0552
ITEM: ATOMS id type xs ys zs
1 1 .496475 .990954 .416681
2 1 .992986 .622074 .446832
3 1 .801871 .020583 .556731
4 1 .196878 .008107 .602097
5 1 .006090 .604853 .486266
6 1 .508090 .490758 .984037
7 1 .489514 .414620 .014742
ITEM: TIMESTEP
300
ITEM: NUMBER OF ATOMS
7
ITEM: BOX BOUNDS ss ss ss
-3.1056 3.1625
-2.7905 3.1985
-1.9752 2.0542
ITEM: ATOMS id type xs ys zs
1 1 .495233 .992189 .416576
2 1 .992636 .620937 .445926
3 1 .801877 .020641 .559526
4 1 .198213 .008710 .600820
5 1 .005844 .605831 .489361
6 1 .508724 .490062 .981899
7 1 .489480 .414682 .015898
ITEM: TIMESTEP
350
ITEM: NUMBER OF ATOMS
7
ITEM: BOX BOUNDS ss ss ss
-3.1056 3.1640
-2.7921 3.1915
-1.9804 2.0481
ITEM: ATOMS id type xs ys zs
1 1 .494504 .993204 .418498
2 1 .991890 .621875 .447517
3 1 .801252 .019437 .562317
4 1 .197897 .009059 .600816
5 1 .004923 .608164 .491703
6 1 .506934 .491504 .982897
7 1 .490011 .415365 .017914
ITEM: TIMESTEP
400
ITEM: NUMBER OF ATOMS
7
ITEM: BOX BOUNDS ss ss ss
-3.1133 3.1599
-2.7856 3.1953
-1.9792 2.0522
ITEM: ATOMS id type xs ys zs
1 1 .493714 .991219 .414224
2 1 .992517 .622522 .445356
3 1 .803662 .019341 .562934
4 1 .198900 .010273 .600285
5 1 .005911 .609270 .493400
6 1 .506934 .490677 .980298
7 1 .489625 .415115 .016974
ITEM: TIMESTEP
1
ITEM: NUMBER OF ATOMS
7
ITEM: BOX BOUNDS ss ss ss
-3.1056 3.1460
-2.7698 3.1775
-1.9346 2.0240
ITEM: ATOMS id type xs ys zs
1 1 .498870 .995062 .415446
2 1 .994948 .623031 .435858
3 1 .800034 .020202 .554963
4 1 .197356 .001183 .601163
5 1 .010643 .607129 .493531
6 1 .508931 .490690 .998873
7 1 .491958 .419972 .001062
ITEM: TIMESTEP
50
ITEM: NUMBER OF ATOMS
7
ITEM: BOX BOUNDS ss ss ss
-3.1056 3.1478
-2.7992 3.1775
-1.9639 2.0519
ITEM: ATOMS id type xs ys zs
1 1 .498981 .996023 .415903
2 1 .993805 .625552 .438349
3 1 .800750 .024787 .557099
4 1 .198792 .008375 .600917
5 1 .009204 .608408 .492637
6 1 .509108 .492988 .992345
7 1 .491209 .421008 .007929
ITEM: TIMESTEP
100
ITEM: NUMBER OF ATOMS
7
ITEM: BOX BOUNDS ss ss ss
-3.1056 3.1535
-2.8015 3.1862
-1.9732 2.0687
ITEM: ATOMS id type xs ys zs
1 1 .497363 .992260 .415748
2 1 .993700 .623987 .436873
3 1 .800515 .022735 .551833
4 1 .198042 .009641 .596168
5 1 .009408 .608008 .491722
6 1 .509124 .491089 .987608
7 1 .491518 .422384 .009733
ITEM: TIMESTEP
150
ITEM: NUMBER OF ATOMS
7
ITEM: BOX BOUNDS ss ss ss
-3.1056 3.1586
-2.8022 3.1895
-1.9818 2.0608
ITEM: ATOMS id type xs ys zs
1 1 .496846 .990644 .419420
2 1 .992461 .622339 .436887
3 1 .801511 .023032 .552954
4 1 .196979 .010800 .598105
5 1 .009906 .607194 .493381
6 1 .508718 .490820 .989833
7 1 .491226 .420347 .011579
ITEM: TIMESTEP
200
ITEM: NUMBER OF ATOMS
7
ITEM: BOX BOUNDS ss ss ss
-3.1056 3.1656
-2.8017 3.1919
-1.9830 2.0675
ITEM: ATOMS id type xs ys zs
1 1 .495280 .993848 .417965
2 1 .993212 .622878 .434316
3 1 .800597 .022191 .549594
4 1 .197754 .009737 .599113
5 1 .010482 .608171 .495755
6 1 .513300 .490205 .984202
7 1 .490880 .417631 .011111
ITEM: TIMESTEP
250
ITEM: NUMBER OF ATOMS
7
ITEM: BOX BOUNDS ss ss ss
-3.1056 3.1756
-2.7946 3.1954
-1.9902 2.0602
ITEM: ATOMS id type xs ys zs
1 1 .494997 .992417 .422434
2 1 .989827 .620840 .439478
3 1 .799943 .021559 .555792
4 1 .196660 .010397 .592425
5 1 .008793 .607670 .490078
6 1 .509386 .489731 .988592
7 1 .491325 .418664 .013032
ITEM: TIMESTEP
300
ITEM: NUMBER OF ATOMS
7
ITEM: BOX BOUNDS ss ss ss
-3.1056 3.1692
-2.7953 3.1949
-1.9838 2.0643
ITEM: ATOMS id type xs ys zs
1 1 .497437 .992662 .419459
2 1 .989789 .621821 .446897
3 1 .800622 .021134 .553167
4 1 .198169 .007372 .596296
5 1 .007333 .608414 .486755
6 1 .508618 .490787 .980707
7 1 .489809 .419502 .014877
ITEM: TIMESTEP
350
ITEM: NUMBER OF ATOMS
7
ITEM: BOX BOUNDS ss ss ss
-3.1056 3.1599
-2.7911 3.1975
-1.9812 2.0573
ITEM: ATOMS id type xs ys zs
1 1 .495460 .993380 .421219
2 1 .990873 .620738 .450883
3 1 .800661 .018386 .557406
4 1 .196595 .006869 .597782
5 1 .006255 .605179 .492083
6 1 .509284 .489805 .981225
7 1 .488720 .416427 .016462
ITEM: TIMESTEP
400
ITEM: NUMBER OF ATOMS
7
ITEM: BOX BOUNDS ss ss ss
-3.1056 3.1599
-2.8025 3.1967
-1.9832 2.0502
ITEM: ATOMS id type xs ys zs
1 1 .498658 .989662 .423887
2 1 .992341 .619935 .449867
3 1 .801410 .018899 .555942
4 1 .194299 .011164 .596959
5 1 .005903 .609883 .487317
6 1 .507532 .488828 .984485
7 1 .490943 .418105 .015132
ITEM: TIMESTEP
1
ITEM: NUMBER OF ATOMS
7
ITEM: BOX BOUNDS ss ss ss
-3.1056 3.1425
-2.7676 3.1990
-1.9503 2.0316
ITEM: ATOMS id type xs ys zs
1 1 .499148 .991479 .416959
2 1 .995531 .620633 .437241
3 1 .800487 .019770 .555665
4 1 .197460 .000796 .601586
5 1 .010644 .604802 .494601
6 1 .509220 .488736 .996987
7 1 .492255 .418253 .004977
ITEM: TIMESTEP
50
ITEM: NUMBER OF ATOMS
7
ITEM: BOX BOUNDS ss ss ss
-3.1056 3.1450
-2.7958 3.1990
-1.9596 2.0510
ITEM: ATOMS id type xs ys zs
1 1 .497784 .991043 .414486
2 1 .994568 .624218 .435689
3 1 .800638 .023481 .552792
4 1 .198907 .005606 .598350
5 1 .009201 .607431 .489116
6 1 .509327 .490207 .990689
7 1 .490901 .419989 .009505
ITEM: TIMESTEP
100
ITEM: NUMBER OF ATOMS
7
ITEM: BOX BOUNDS ss ss ss
-3.1056 3.1533
-2.8060 3.1990
-1.9744 2.0668
ITEM: ATOMS id type xs ys zs
1 1 .500520 .993263 .416747
2 1 .993628 .626255 .438347
3 1 .802496 .025773 .557699
4 1 .199014 .007784 .598016
5 1 .008978 .607199 .492579
6 1 .507128 .490588 .987586
7 1 .491198 .419700 .014700
ITEM: TIMESTEP
150
ITEM: NUMBER OF ATOMS
7
ITEM: BOX BOUNDS ss ss ss
-3.1056 3.1623
-2.8084 3.1990
-1.9825 2.0623
ITEM: ATOMS id type xs ys zs
1 1 .496754 .992706 .420511
2 1 .988340 .623588 .443033
3 1 .799451 .025290 .557231
4 1 .197169 .009049 .596128
5 1 .009022 .607658 .494298
6 1 .508618 .490858 .983810
7 1 .490511 .418976 .012332
ITEM: TIMESTEP
200
ITEM: NUMBER OF ATOMS
7
ITEM: BOX BOUNDS ss ss ss
-3.1056 3.1581
-2.8036 3.1990
-1.9802 2.0646
ITEM: ATOMS id type xs ys zs
1 1 .495326 .993349 .415765
2 1 .991325 .625395 .440852
3 1 .802282 .025148 .554669
4 1 .197651 .013300 .598428
5 1 .010052 .607855 .495893
6 1 .508388 .490988 .985538
7 1 .490450 .417826 .012473
ITEM: TIMESTEP
250
ITEM: NUMBER OF ATOMS
7
ITEM: BOX BOUNDS ss ss ss
-3.1056 3.1557
-2.7939 3.1990
-1.9832 2.0578
ITEM: ATOMS id type xs ys zs
1 1 .495437 .991791 .417422
2 1 .989283 .622560 .440201
3 1 .801616 .022142 .557308
4 1 .200171 .007353 .593395
5 1 .006131 .607567 .497215
6 1 .506933 .491288 .984356
7 1 .488511 .420203 .016050
ITEM: TIMESTEP
300
ITEM: NUMBER OF ATOMS
7
ITEM: BOX BOUNDS ss ss ss
-3.1056 3.1575
-2.7983 3.2099
-1.9845 2.0532
ITEM: ATOMS id type xs ys zs
1 1 .491971 .990089 .419372
2 1 .987872 .624515 .440990
3 1 .802109 .022190 .557943
4 1 .196722 .011107 .596598
5 1 .008439 .610589 .491899
6 1 .509082 .487819 .987486
7 1 .488493 .417510 .018441
ITEM: TIMESTEP
350
ITEM: NUMBER OF ATOMS
7
ITEM: BOX BOUNDS ss ss ss
-3.1056 3.1501
-2.7922 3.2001
-1.9821 2.0501
ITEM: ATOMS id type xs ys zs
1 1 .492961 .992649 .419233
2 1 .988849 .624968 .440887
3 1 .803460 .021008 .555614
4 1 .196548 .011331 .597143
5 1 .008065 .610911 .495600
6 1 .510003 .487801 .987097
7 1 .488426 .418397 .018158
ITEM: TIMESTEP
400
ITEM: NUMBER OF ATOMS
7
ITEM: BOX BOUNDS ss ss ss
-3.0959 3.1278
-2.7881 3.2034
-1.9792 2.0513
ITEM: ATOMS id type xs ys zs
1 1 .493391 .992095 .418032
2 1 .992701 .624961 .441040
3 1 .806087 .019979 .555210
4 1 .196455 .011411 .595804
5 1 .004997 .610323 .495279
6 1 .510581 .487828 .986464
7 1 .489556 .417454 .016722
ITEM: TIMESTEP
1
ITEM: NUMBER OF ATOMS
7
ITEM: BOX BOUNDS ss ss ss
-3.0851 3.1189
-2.7677 3.1805
-1.9412 2.0241
ITEM: ATOMS id type xs ys zs
1 1 .499396 .994566 .416365
2 1 .999291 .622574 .436756
3 1 .802854 .019839 .555663
4 1 .195553 .000826 .601798
5 1 .007378 .606686 .494402
6 1 .509543 .490251 .998889
7 1 .492454 .419553 .002724
ITEM: TIMESTEP
50
ITEM: NUMBER OF ATOMS
7
ITEM: BOX BOUNDS ss ss ss
-3.0851 3.1454
-2.7963 3.1807
-1.9611 2.0496
ITEM: ATOMS id type xs ys zs
1 1 .496643 .994385 .418410
2 1 .994319 .625436 .437008
3 1 .800886 .025937 .554498
4 1 .195347 .006666 .599071
5 1 .006183 .609786 .494571
6 1 .506395 .493535 .992744
7 1 .489295 .420753 .007957
ITEM: TIMESTEP
100
ITEM: NUMBER OF ATOMS
7
ITEM: BOX BOUNDS ss ss ss
-3.0851 3.1523
-2.8055 3.1997
-1.9719 2.0613
ITEM: ATOMS id type xs ys zs
1 1 .494792 .991296 .418417
2 1 .992918 .622441 .437580
3 1 .800504 .026175 .555895
4 1 .195418 .007916 .597732
5 1 .005936 .608785 .496286
6 1 .506416 .492693 .988420
7 1 .488986 .421265 .011742
ITEM: TIMESTEP
150
ITEM: NUMBER OF ATOMS
7
ITEM: BOX BOUNDS ss ss ss
-3.0851 3.1613
-2.8089 3.1920
-1.9770 2.0605
ITEM: ATOMS id type xs ys zs
1 1 .498746 .992919 .419331
2 1 .993157 .622226 .445919
3 1 .799344 .024999 .554451
4 1 .191761 .011597 .601423
5 1 .004718 .608327 .490287
6 1 .506613 .491646 .985804
7 1 .487520 .419883 .014127
ITEM: TIMESTEP
200
ITEM: NUMBER OF ATOMS
7
ITEM: BOX BOUNDS ss ss ss
-3.0872 3.1533
-2.8031 3.1903
-1.9813 2.0617
ITEM: ATOMS id type xs ys zs
1 1 .499919 .991078 .418631
2 1 .994446 .621672 .445918
3 1 .802069 .022930 .554357
4 1 .194906 .011907 .602615
5 1 .005980 .607957 .490384
6 1 .508608 .491944 .987428
7 1 .488428 .420002 .015225
ITEM: TIMESTEP
250
ITEM: NUMBER OF ATOMS
7
ITEM: BOX BOUNDS ss ss ss
-3.0949 3.1595
-2.7920 3.1959
-1.9772 2.0592
ITEM: ATOMS id type xs ys zs
1 1 .499638 .990795 .417770
2 1 .994114 .619866 .446783
3 1 .801903 .021890 .555044
4 1 .194053 .009823 .600921
5 1 .006553 .608463 .492120
6 1 .509779 .489374 .984635
7 1 .489473 .415880 .014393
ITEM: TIMESTEP
300
ITEM: NUMBER OF ATOMS
7
ITEM: BOX BOUNDS ss ss ss
-3.0969 3.1590
-2.7986 3.1942
-1.9812 2.0539
ITEM: ATOMS id type xs ys zs
1 1 .499340 .991314 .423559
2 1 .989690 .618414 .447743
3 1 .802078 .021156 .557854
4 1 .197327 .013369 .601916
5 1 .007702 .607897 .492784
6 1 .508540 .489578 .986948
7 1 .488778 .415950 .017537
ITEM: TIMESTEP
350
ITEM: NUMBER OF ATOMS
7
ITEM: BOX BOUNDS ss ss ss
-3.1051 3.1690
-2.7856 3.1953
-1.9687 2.0594
ITEM: ATOMS id type xs ys zs
1 1 .498741 .990737 .416034
2 1 .991367 .622525 .447965
3 1 .803099 .020984 .551446
4 1 .198847 .009788 .598402
5 1 .009842 .608616 .487364
6 1 .507649 .491442 .986249
7 1 .489838 .416381 .012348
ITEM: TIMESTEP
400
ITEM: NUMBER OF ATOMS
7
ITEM: BOX BOUNDS ss ss ss
-3.1027 3.1608
-2.7907 3.1927
-1.9743 2.0645
ITEM: ATOMS id type xs ys zs
1 1 .500188 .991209 .418220
2 1 .990289 .618349 .449765
3 1 .803920 .018291 .553180
4 1 .199742 .012343 .599602
5 1 .006332 .608609 .493220
6 1 .508597 .490156 .985875
7 1 .488521 .412459 .013758
ITEM: TIMESTEP
1
ITEM: NUMBER OF ATOMS
7
ITEM: BOX BOUNDS ss ss ss
-3.0851 3.1518
-2.7674 3.1805
-1.9503 2.0466
ITEM: ATOMS id type xs ys zs
1 1 .496749 .994553 .415378
2 1 .994016 .622537 .435593
3 1 .798638 .019784 .553566
4 1 .194530 .000764 .599338
5 1 .007344 .606674 .492772
6 1 .506851 .490234 .993254
7 1 .489848 .419519 .004935
ITEM: TIMESTEP
50
ITEM: NUMBER OF ATOMS
7
ITEM: BOX BOUNDS ss ss ss
-3.0851 3.1518
-2.7965 3.1805
-1.9612 2.0525
ITEM: ATOMS id type xs ys zs
1 1 .495604 .995193 .416010
2 1 .992186 .624658 .438100
3 1 .798787 .022035 .555630
4 1 .194772 .004943 .601040
5 1 .007806 .609543 .491766
6 1 .506738 .492525 .990750
7 1 .488864 .421085 .012116
ITEM: TIMESTEP
100
ITEM: NUMBER OF ATOMS
7
ITEM: BOX BOUNDS ss ss ss
-3.0851 3.1523
-2.8032 3.1874
-1.9776 2.0654
ITEM: ATOMS id type xs ys zs
1 1 .497419 .994602 .418101
2 1 .993064 .623698 .438629
3 1 .798753 .025643 .556367
4 1 .193866 .008011 .596575
5 1 .006693 .608843 .494623
6 1 .505931 .492318 .986897
7 1 .488608 .422496 .011527
ITEM: TIMESTEP
150
ITEM: NUMBER OF ATOMS
7
ITEM: BOX BOUNDS ss ss ss
-3.0851 3.1567
-2.8083 3.1963
-1.9923 2.0669
ITEM: ATOMS id type xs ys zs
1 1 .496174 .992637 .419973
2 1 .992925 .622323 .440947
3 1 .798429 .027306 .557869
4 1 .193673 .009124 .596701
5 1 .006362 .608722 .497927
6 1 .506353 .491489 .985340
7 1 .488191 .421722 .014660
ITEM: TIMESTEP
200
ITEM: NUMBER OF ATOMS
7
ITEM: BOX BOUNDS ss ss ss
-3.0884 3.1579
-2.8037 3.1969
-1.9951 2.0810
ITEM: ATOMS id type xs ys zs
1 1 .496196 .992958 .421129
2 1 .992024 .622022 .439175
3 1 .800067 .025896 .555007
4 1 .194691 .007442 .595638
5 1 .006731 .607886 .496866
6 1 .506188 .490838 .981776
7 1 .487014 .419964 .017430
ITEM: TIMESTEP
250
ITEM: NUMBER OF ATOMS
7
ITEM: BOX BOUNDS ss ss ss
-3.0862 3.1541
-2.8113 3.1970
-1.9863 2.0683
ITEM: ATOMS id type xs ys zs
1 1 .494691 .991668 .424945
2 1 .990932 .623826 .437639
3 1 .804437 .024779 .548113
4 1 .198946 .008131 .599557
5 1 .005722 .606722 .491099
6 1 .507859 .488607 .983606
7 1 .488350 .424771 .014713
ITEM: TIMESTEP
300
ITEM: NUMBER OF ATOMS
7
ITEM: BOX BOUNDS ss ss ss
-3.0928 3.1565
-2.8149 3.2005
-1.9887 2.0640
ITEM: ATOMS id type xs ys zs
1 1 .494985 .990876 .427554
2 1 .991192 .623368 .438266
3 1 .803237 .024969 .549668
4 1 .199097 .009410 .601641
5 1 .005814 .608566 .492216
6 1 .506245 .487231 .985461
7 1 .488211 .423548 .015664
ITEM: TIMESTEP
350
ITEM: NUMBER OF ATOMS
7
ITEM: BOX BOUNDS ss ss ss
-3.0874 3.1535
-2.8025 3.1961
-1.9926 2.0614
ITEM: ATOMS id type xs ys zs
1 1 .497369 .989985 .421851
2 1 .989628 .623027 .442515
3 1 .803555 .025576 .558326
4 1 .196572 .008867 .594557
5 1 .005122 .605922 .496638
6 1 .505482 .490581 .985958
7 1 .488180 .416901 .013117
ITEM: TIMESTEP
400
ITEM: NUMBER OF ATOMS
7
ITEM: BOX BOUNDS ss ss ss
-3.0931 3.1575
-2.8129 3.1989
-1.9990 2.0645
ITEM: ATOMS id type xs ys zs
1 1 .493948 .991781 .425984
2 1 .991499 .624658 .436908
3 1 .802992 .029334 .562348
4 1 .195809 .013170 .591963
5 1 .006899 .609566 .497590
6 1 .507387 .494246 .985258
7 1 .487843 .418065 .020198
ITEM: TIMESTEP
1
ITEM: NUMBER OF ATOMS
7
ITEM: BOX BOUNDS ss ss ss
-3.0919 3.1357
-2.7901 3.1848
-1.9579 2.0394
ITEM: ATOMS id type xs ys zs
1 1 .498585 .993862 .417218
2 1 .996578 .623538 .437423
3 1 .800903 .023497 .555412
4 1 .195906 .004554 .601182
5 1 .008488 .607730 .494595
6 1 .508713 .491833 .995027
7 1 .491659 .421435 .006850
ITEM: TIMESTEP
50
ITEM: NUMBER OF ATOMS
7
ITEM: BOX BOUNDS ss ss ss
-3.0919 3.1464
-2.7932 3.1848
-1.9633 2.0500
ITEM: ATOMS id type xs ys zs
1 1 .498284 .994560 .417222
2 1 .994279 .623652 .436793
3 1 .799795 .023043 .555758
4 1 .195230 .006045 .599454
5 1 .007788 .608549 .493908
6 1 .508428 .492858 .992200
7 1 .489870 .422040 .010183
ITEM: TIMESTEP
100
ITEM: NUMBER OF ATOMS
7
ITEM: BOX BOUNDS ss ss ss
-3.0919 3.1517
-2.8101 3.1916
-1.9748 2.0652
ITEM: ATOMS id type xs ys zs
1 1 .495068 .993603 .416164
2 1 .990733 .625290 .436019
3 1 .797373 .025200 .552719
4 1 .194923 .012367 .599295
5 1 .005263 .607159 .493094
6 1 .509670 .494441 .985988
7 1 .489458 .420263 .009035
ITEM: TIMESTEP
150
ITEM: NUMBER OF ATOMS
7
ITEM: BOX BOUNDS ss ss ss
-3.0919 3.1562
-2.8107 3.1962
-1.9782 2.0690
ITEM: ATOMS id type xs ys zs
1 1 .495323 .992021 .414611
2 1 .990698 .624736 .433923
3 1 .798989 .023563 .555609
4 1 .195037 .012544 .596433
5 1 .007584 .606062 .493342
6 1 .509583 .494276 .984881
7 1 .489669 .418955 .008085
ITEM: TIMESTEP
200
ITEM: NUMBER OF ATOMS
7
ITEM: BOX BOUNDS ss ss ss
-3.0919 3.1618
-2.8006 3.1953
-1.9886 2.0741
ITEM: ATOMS id type xs ys zs
1 1 .492369 .992461 .416030
2 1 .989970 .624365 .433583
3 1 .797635 .022385 .551665
4 1 .194244 .011099 .597180
5 1 .006739 .606762 .492735
6 1 .510062 .494023 .981621
7 1 .488529 .418564 .010901
ITEM: TIMESTEP
250
ITEM: NUMBER OF ATOMS
7
ITEM: BOX BOUNDS ss ss ss
-3.0994 3.1673
-2.8024 3.1933
-2.0002 2.0648
ITEM: ATOMS id type xs ys zs
1 1 .490733 .991877 .419986
2 1 .990990 .624127 .439708
3 1 .797186 .023117 .548725
4 1 .195936 .013152 .602055
5 1 .008256 .606440 .498236
6 1 .510324 .491203 .982887
7 1 .487820 .418831 .013008
ITEM: TIMESTEP
300
ITEM: NUMBER OF ATOMS
7
ITEM: BOX BOUNDS ss ss ss
-3.0919 3.1495
-2.8010 3.1986
-2.0061 2.0586
ITEM: ATOMS id type xs ys zs
1 1 .491903 .989793 .418322
2 1 .994052 .623568 .443283
3 1 .798328 .021975 .552002
4 1 .192847 .013621 .604843
5 1 .005482 .606221 .498589
6 1 .511222 .493281 .980975
7 1 .487459 .419534 .013819
ITEM: TIMESTEP
350
ITEM: NUMBER OF ATOMS
7
ITEM: BOX BOUNDS ss ss ss
-3.1023 3.1488
-2.7901 3.2063
-1.9994 2.0646
ITEM: ATOMS id type xs ys zs
1 1 .496064 .989579 .416892
2 1 .991308 .623226 .437276
3 1 .802336 .021602 .558686
4 1 .199379 .009837 .599321
5 1 .008317 .604503 .493604
6 1 .512384 .492168 .983187
7 1 .488201 .418374 .014021
ITEM: TIMESTEP
400
ITEM: NUMBER OF ATOMS
7
ITEM: BOX BOUNDS ss ss ss
-3.0997 3.1536
-2.7903 3.2037
-2.0064 2.0546
ITEM: ATOMS id type xs ys zs
1 1 .491722 .989963 .415390
2 1 .993600 .622662 .443287
3 1 .798792 .019778 .554046
4 1 .196390 .013566 .602376
5 1 .005202 .605113 .499420
6 1 .512551 .491427 .979539
7 1 .490484 .419009 .013680
ITEM: TIMESTEP
1
ITEM: NUMBER OF ATOMS
7
ITEM: BOX BOUNDS ss ss ss
-3.0923 3.1357
-2.7901 3.1848
-1.9830 2.0394
ITEM: ATOMS id type xs ys zs
1 1 .498612 .993873 .420885
2 1 .996580 .623535 .440957
3 1 .800931 .023483 .558152
4 1 .195968 .004571 .603670
5 1 .008527 .607726 .497764
6 1 .508723 .491834 .995070
7 1 .491689 .421426 .013066
ITEM: TIMESTEP
50
ITEM: NUMBER OF ATOMS
7
ITEM: BOX BOUNDS ss ss ss
-3.0923 3.1471
-2.7927 3.1848
-1.9830 2.0553
ITEM: ATOMS id type xs ys zs
1 1 .498374 .993442 .418121
2 1 .993757 .622701 .439340
3 1 .800759 .024084 .558747
4 1 .196095 .005980 .602445
5 1 .007148 .609294 .494186
6 1 .508659 .492883 .990060
7 1 .491060 .421176 .013277
ITEM: TIMESTEP
100
ITEM: NUMBER OF ATOMS
7
ITEM: BOX BOUNDS ss ss ss
-3.0923 3.1560
-2.8049 3.1848
-1.9830 2.0661
ITEM: ATOMS id type xs ys zs
1 1 .497245 .994045 .418430
2 1 .992210 .624146 .438633
3 1 .799837 .025529 .554972
4 1 .195779 .007624 .598206
5 1 .008452 .610603 .492972
6 1 .505708 .492810 .988589
7 1 .490327 .421156 .014563
ITEM: TIMESTEP
150
ITEM: NUMBER OF ATOMS
7
ITEM: BOX BOUNDS ss ss ss
-3.0923 3.1599
-2.8058 3.2013
-1.9830 2.0785
ITEM: ATOMS id type xs ys zs
1 1 .496640 .990990 .416220
2 1 .991980 .623208 .439114
3 1 .799300 .025344 .551763
4 1 .194869 .009222 .599351
5 1 .008302 .607933 .492439
6 1 .507587 .492118 .987032
7 1 .489633 .421856 .013899
ITEM: TIMESTEP
200
ITEM: NUMBER OF ATOMS
7
ITEM: BOX BOUNDS ss ss ss
-3.0923 3.1589
-2.8086 3.1991
-1.9906 2.0752
ITEM: ATOMS id type xs ys zs
1 1 .499977 .990861 .420037
2 1 .992693 .623389 .443733
3 1 .799897 .028602 .557617
4 1 .196967 .010241 .599732
5 1 .009360 .607721 .494145
6 1 .506981 .491243 .988918
7 1 .490759 .421310 .018742
ITEM: TIMESTEP
250
ITEM: NUMBER OF ATOMS
7
ITEM: BOX BOUNDS ss ss ss
-3.0987 3.1592
-2.8117 3.1956
-1.9881 2.0760
ITEM: ATOMS id type xs ys zs
1 1 .498742 .992597 .423607
2 1 .993194 .621471 .438631
3 1 .799477 .025399 .555748
4 1 .195588 .011197 .599538
5 1 .007495 .607397 .494384
6 1 .508280 .493683 .987456
7 1 .488849 .422213 .018407
ITEM: TIMESTEP
300
ITEM: NUMBER OF ATOMS
7
ITEM: BOX BOUNDS ss ss ss
-3.1104 3.1584
-2.8162 3.1953
-1.9953 2.0863
ITEM: ATOMS id type xs ys zs
1 1 .501077 .997195 .428149
2 1 .993494 .621302 .444603
3 1 .800964 .022297 .552995
4 1 .198809 .011134 .595355
5 1 .009520 .605465 .497809
6 1 .510435 .495919 .982145
7 1 .493060 .422356 .022936
ITEM: TIMESTEP
350
ITEM: NUMBER OF ATOMS
7
ITEM: BOX BOUNDS ss ss ss
-3.1049 3.1595
-2.8139 3.2068
-1.9984 2.0788
ITEM: ATOMS id type xs ys zs
1 1 .493561 .990466 .415174
2 1 .990076 .620111 .445936
3 1 .800759 .027650 .549305
4 1 .199779 .010326 .598242
5 1 .011451 .608922 .493672
6 1 .510416 .493240 .986886
7 1 .486811 .420402 .012899
ITEM: TIMESTEP
400
ITEM: NUMBER OF ATOMS
7
ITEM: BOX BOUNDS ss ss ss
-3.1012 3.1638
-2.8093 3.2125
-2.0090 2.0775
ITEM: ATOMS id type xs ys zs
1 1 .494048 .990318 .419716
2 1 .989270 .620391 .444998
3 1 .798773 .027081 .549602
4 1 .198702 .011408 .601558
5 1 .011489 .605521 .496613
6 1 .510255 .492228 .985755
7 1 .487355 .419857 .014957
ITEM: TIMESTEP
450
ITEM: NUMBER OF ATOMS
7
ITEM: BOX BOUNDS ss ss ss
-3.0954 3.1739
-2.8077 3.2068
-2.0037 2.0786
ITEM: ATOMS id type xs ys zs
1 1 .496778 .992351 .422584
2 1 .993585 .622903 .444482
3 1 .801421 .029444 .556193
4 1 .200764 .014052 .605021
5 1 .007509 .607135 .491566
6 1 .507913 .496217 .986170
7 1 .491580 .424390 .018760
ITEM: TIMESTEP
500
ITEM: NUMBER OF ATOMS
7
ITEM: BOX BOUNDS ss ss ss
-3.0962 3.1649
-2.8125 3.2155
-1.9955 2.0792
ITEM: ATOMS id type xs ys zs
1 1 .494573 .992128 .419272
2 1 .990114 .621565 .448128
3 1 .799982 .025019 .548513
4 1 .197898 .011998 .605125
5 1 .007564 .604675 .491501
6 1 .508764 .492694 .978780
7 1 .489645 .421916 .016003
ITEM: TIMESTEP
550
ITEM: NUMBER OF ATOMS
7
ITEM: BOX BOUNDS ss ss ss
-3.1011 3.1673
-2.8101 3.2142
-2.0000 2.0703
ITEM: ATOMS id type xs ys zs
1 1 .491276 .990657 .419309
2 1 .990156 .621004 .456214
3 1 .800852 .021694 .545785
4 1 .198029 .010290 .609507
5 1 .007894 .603592 .489633
6 1 .507224 .489613 .978536
7 1 .487290 .417637 .013756
ITEM: TIMESTEP
600
ITEM: NUMBER OF ATOMS
7
ITEM: BOX BOUNDS ss ss ss
-3.0883 3.1660
-2.8057 3.2031
-1.9970 2.0631
ITEM: ATOMS id type xs ys zs
1 1 .490045 .993447 .418727
2 1 .990417 .622172 .454884
3 1 .801280 .021826 .546876
4 1 .194933 .009401 .608329
5 1 .004684 .605110 .489689
6 1 .507428 .489413 .980080
7 1 .486169 .417950 .013565
ITEM: TIMESTEP
650
ITEM: NUMBER OF ATOMS
7
ITEM: BOX BOUNDS ss ss ss
-3.0928 3.1641
-2.8111 3.2069
-1.9997 2.0543
ITEM: ATOMS id type xs ys zs
1 1 .491068 .991491 .419946
2 1 .989973 .620755 .456664
3 1 .800930 .022251 .548034
4 1 .196956 .009587 .609194
5 1 .005653 .604150 .493062
6 1 .507547 .490002 .981435
7 1 .486806 .418763 .013924
ITEM: TIMESTEP
1
ITEM: NUMBER OF ATOMS
7
ITEM: BOX BOUNDS ss ss ss
-3.0928 3.1352
-2.7782 3.1966
-1.9694 2.0239
ITEM: ATOMS id type xs ys zs
1 1 .498705 .991898 .420534
2 1 .996665 .621549 .440771
3 1 .801017 .021509 .558848
4 1 .196067 .002565 .604645
5 1 .008645 .605758 .497954
6 1 .508819 .489839 .998909
7 1 .491778 .419452 .009728
ITEM: TIMESTEP
50
ITEM: NUMBER OF ATOMS
7
ITEM: BOX BOUNDS ss ss ss
-3.0928 3.1435
-2.7949 3.1966
-1.9694 2.0528
ITEM: ATOMS id type xs ys zs
1 1 .497774 .993038 .418008
2 1 .994160 .623085 .436611
3 1 .801663 .023182 .557675
4 1 .198474 .006856 .599315
5 1 .010222 .608273 .492347
6 1 .507761 .492700 .993389
7 1 .490625 .419155 .011404
ITEM: TIMESTEP
100
ITEM: NUMBER OF ATOMS
7
ITEM: BOX BOUNDS ss ss ss
-3.0928 3.1530
-2.8054 3.1966
-1.9799 2.0643
ITEM: ATOMS id type xs ys zs
1 1 .498271 .990330 .413967