ITEM: TIMESTEP
1
ITEM: NUMBER OF ATOMS
7
ITEM: BOX BOUNDS ss ss ss
-2.9865 3.1813
-2.8866 3.0335
-1.8166 2.1099
ITEM: ATOMS id type xs ys zs
1 1 .500994 .999324 .478776
2 1 .999380 .616678 .480701
3 1 .821191 .002632 .555118
4 1 .204186 .000668 .506146
5 1 .000613 .618030 .517303
6 1 .503902 .458335 .999034
7 1 .497678 .441985 .000953
ITEM: TIMESTEP
50
ITEM: NUMBER OF ATOMS
7
ITEM: BOX BOUNDS ss ss ss
-3.0138 3.2078
-2.9102 3.0568
-1.8404 2.1344
ITEM: ATOMS id type xs ys zs
1 1 .501042 .995500 .478923
2 1 .995022 .615649 .480611
3 1 .818604 .006476 .554904
4 1 .206966 .004649 .505604
5 1 .004973 .617193 .517267
6 1 .503900 .458684 .992857
7 1 .497645 .442602 .006792
ITEM: TIMESTEP
100
ITEM: NUMBER OF ATOMS
7
ITEM: BOX BOUNDS ss ss ss
-3.0188 3.2134
-2.9183 3.0641
-1.8491 2.1461
ITEM: ATOMS id type xs ys zs
1 1 .500918 .994349 .478580
2 1 .994199 .615272 .479951
3 1 .817976 .007959 .554403
4 1 .207343 .006005 .504854
5 1 .005743 .616820 .516866
6 1 .503799 .458969 .990207
7 1 .497688 .442786 .009294
ITEM: TIMESTEP
150
ITEM: NUMBER OF ATOMS
7
ITEM: BOX BOUNDS ss ss ss
-3.0276 3.2273
-2.9214 3.0705
-1.8541 2.1555
ITEM: ATOMS id type xs ys zs
1 1 .500466 .993286 .478010
2 1 .992275 .614762 .479129
3 1 .816265 .008710 .553518
4 1 .207734 .006515 .504078
5 1 .006962 .616060 .516020
6 1 .503315 .458943 .988079
7 1 .497597 .442476 .011119
ITEM: TIMESTEP
200
ITEM: NUMBER OF ATOMS
7
ITEM: BOX BOUNDS ss ss ss
-3.0351 3.2272
-2.9309 3.0770
-1.8565 2.1558
ITEM: ATOMS id type xs ys zs
1 1 .500875 .992097 .478091
2 1 .992897 .614842 .479088
3 1 .816152 .010520 .553235
4 1 .208166 .008122 .504037
5 1 .007857 .615507 .515809
6 1 .503994 .459559 .988082
7 1 .498581 .442661 .012681
ITEM: TIMESTEP
250
ITEM: NUMBER OF ATOMS
7
ITEM: BOX BOUNDS ss ss ss
-3.0280 3.2308
-2.9334 3.0766
-1.8596 2.1527
ITEM: ATOMS id type xs ys zs
1 1 .499756 .992120 .478548
2 1 .992816 .615383 .479631
3 1 .815073 .011294 .553366
4 1 .206585 .008546 .504344
5 1 .006672 .615208 .516005
6 1 .503190 .460020 .988958
7 1 .498149 .442628 .014171
ITEM: TIMESTEP
300
ITEM: NUMBER OF ATOMS
7
ITEM: BOX BOUNDS ss ss ss
-3.0320 3.2286
-2.9388 3.0734
-1.8595 2.1581
ITEM: ATOMS id type xs ys zs
1 1 .500054 .992463 .477467
2 1 .993339 .616573 .478998
3 1 .815116 .012615 .551244
4 1 .206748 .009456 .503285
5 1 .007413 .615372 .514009
6 1 .503603 .460817 .987447
7 1 .499251 .442863 .013979
ITEM: TIMESTEP
350
ITEM: NUMBER OF ATOMS
7
ITEM: BOX BOUNDS ss ss ss
-3.0327 3.2352
-2.9342 3.0808
-1.8608 2.1605
ITEM: ATOMS id type xs ys zs
1 1 .499185 .990988 .477314
2 1 .992173 .616239 .479299
3 1 .814191 .012715 .548563
4 1 .206317 .009086 .503187
5 1 .007464 .614104 .511425
6 1 .502705 .459866 .986292
7 1 .499381 .441670 .013156
ITEM: TIMESTEP
400
ITEM: NUMBER OF ATOMS
7
ITEM: BOX BOUNDS ss ss ss
-3.0272 3.2407
-2.9371 3.0736
-1.8696 2.1613
ITEM: ATOMS id type xs ys zs
1 1 .497979 .991950 .478479
2 1 .991290 .617679 .480798
3 1 .813161 .014073 .547429
4 1 .205315 .009872 .504318
5 1 .006372 .614928 .510049
6 1 .501422 .460803 .985979
7 1 .498862 .442562 .014417
ITEM: TIMESTEP
1
ITEM: NUMBER OF ATOMS
7
ITEM: BOX BOUNDS ss ss ss
-3.0243 3.2318
-2.9209 3.0691
-1.8498 2.1475
ITEM: ATOMS id type xs ys zs
1 1 .499967 .993400 .478594
2 1 .991326 .615214 .480487
3 1 .815649 .008321 .553584
4 1 .207346 .006380 .505480
5 1 .006646 .616554 .516438
6 1 .502839 .458719 .989632
7 1 .496699 .442558 .009232
ITEM: TIMESTEP
50
ITEM: NUMBER OF ATOMS
7
ITEM: BOX BOUNDS ss ss ss
-3.0243 3.2318
-2.9209 3.0619
-1.8498 2.1475
ITEM: ATOMS id type xs ys zs
1 1 .499997 .994653 .478614
2 1 .991171 .615789 .480206
3 1 .815798 .008195 .554312
4 1 .207541 .006408 .505018
5 1 .006633 .617405 .516770
6 1 .502767 .459244 .989544
7 1 .496547 .443244 .009009
ITEM: TIMESTEP
100
ITEM: NUMBER OF ATOMS
7
ITEM: BOX BOUNDS ss ss ss
-3.0243 3.2318
-2.9226 3.0708
-1.8498 2.1475
ITEM: ATOMS id type xs ys zs
1 1 .499955 .993217 .478694
2 1 .991230 .614820 .479867
3 1 .815833 .008568 .554633
4 1 .207530 .006742 .504561
5 1 .006564 .616435 .516865
6 1 .502747 .458763 .989806
7 1 .496628 .442756 .009310
ITEM: TIMESTEP
150
ITEM: NUMBER OF ATOMS
7
ITEM: BOX BOUNDS ss ss ss
-3.0243 3.2318
-2.9209 3.0769
-1.8541 2.1492
ITEM: ATOMS id type xs ys zs
1 1 .499834 .992195 .479127
2 1 .991562 .614172 .479681
3 1 .815651 .008646 .554816
4 1 .207194 .006567 .504729
5 1 .006313 .615255 .517045
6 1 .502855 .458401 .989664
7 1 .496952 .442035 .011096
ITEM: TIMESTEP
200
ITEM: NUMBER OF ATOMS
7
ITEM: BOX BOUNDS ss ss ss
-3.0357 3.2318
-2.9222 3.0723
-1.8557 2.1562
ITEM: ATOMS id type xs ys zs
1 1 .500568 .992660 .478448
2 1 .992299 .615013 .478074
3 1 .815518 .009386 .553440
4 1 .208022 .006860 .504278
5 1 .007667 .614943 .515850
6 1 .503884 .459270 .988270
7 1 .498349 .442092 .012660
ITEM: TIMESTEP
250
ITEM: NUMBER OF ATOMS
7
ITEM: BOX BOUNDS ss ss ss
-3.0431 3.2366
-2.9290 3.0734
-1.8498 2.1600
ITEM: ATOMS id type xs ys zs
1 1 .500887 .992104 .477541
2 1 .992678 .615473 .475719
3 1 .814776 .011256 .551419
4 1 .208360 .007827 .503885
5 1 .008506 .614371 .513460
6 1 .504339 .460360 .987897
7 1 .499074 .442164 .012823
ITEM: TIMESTEP
300
ITEM: NUMBER OF ATOMS
7
ITEM: BOX BOUNDS ss ss ss
-3.0423 3.2458
-2.9238 3.0698
-1.8498 2.1621
ITEM: ATOMS id type xs ys zs
1 1 .500259 .992545 .477752
2 1 .991892 .615458 .474573
3 1 .813236 .010874 .550192
4 1 .207614 .006843 .504178
5 1 .008423 .613936 .512215
6 1 .503740 .460589 .987639
7 1 .498593 .441766 .013356
ITEM: TIMESTEP
350
ITEM: NUMBER OF ATOMS
7
ITEM: BOX BOUNDS ss ss ss
-3.0361 3.2444
-2.9310 3.0776
-1.8560 2.1631
ITEM: ATOMS id type xs ys zs
1 1 .499981 .991235 .478551
2 1 .992366 .615200 .474953
3 1 .812980 .012322 .550056
4 1 .206643 .008091 .505249
5 1 .007539 .613262 .512410
6 1 .503457 .460906 .987520
7 1 .498402 .441644 .014918
ITEM: TIMESTEP
400
ITEM: NUMBER OF ATOMS
7
ITEM: BOX BOUNDS ss ss ss
-3.0414 3.2576
-2.9333 3.0934
-1.8536 2.1674
ITEM: ATOMS id type xs ys zs
1 1 .499335 .988642 .476986
2 1 .990442 .613942 .474532
3 1 .811042 .012850 .548427
4 1 .206300 .008705 .504778
5 1 .008474 .611916 .511060
6 1 .502736 .459944 .986480
7 1 .498017 .440358 .014337
ITEM: TIMESTEP
1
ITEM: NUMBER OF ATOMS
7
ITEM: BOX BOUNDS ss ss ss
-3.0274 3.2424
-2.9258 3.0655
-1.8469 2.1524
ITEM: ATOMS id type xs ys zs
1 1 .499367 .993991 .477632
2 1 .989650 .615896 .479518
3 1 .814362 .009149 .552587
4 1 .207385 .007207 .504500
5 1 .007119 .617229 .515454
6 1 .502230 .459434 .988426
7 1 .496103 .443282 .008493
ITEM: TIMESTEP
50
ITEM: NUMBER OF ATOMS
7
ITEM: BOX BOUNDS ss ss ss
-3.0274 3.2424
-2.9258 3.0655
-1.8469 2.1524
ITEM: ATOMS id type xs ys zs
1 1 .499387 .994071 .477611
2 1 .989449 .615704 .479237
3 1 .814547 .008982 .553447
4 1 .207655 .007186 .503925
5 1 .007079 .617382 .515868
6 1 .502173 .459391 .988301
7 1 .495896 .443468 .008218
ITEM: TIMESTEP
100
ITEM: NUMBER OF ATOMS
7
ITEM: BOX BOUNDS ss ss ss
-3.0270 3.2424
-2.9258 3.0686
-1.8615 2.1524
ITEM: ATOMS id type xs ys zs
1 1 .499340 .993715 .479584
2 1 .989452 .615165 .480685
3 1 .814613 .008991 .555469
4 1 .207647 .007247 .505115
5 1 .006926 .617010 .517871
6 1 .502064 .459269 .988537
7 1 .495936 .443319 .012068
ITEM: TIMESTEP
150
ITEM: NUMBER OF ATOMS
7
ITEM: BOX BOUNDS ss ss ss
-3.0270 3.2424
-2.9258 3.0744
-1.8516 2.1520
ITEM: ATOMS id type xs ys zs
1 1 .499269 .992798 .478652
2 1 .989729 .614433 .478973
3 1 .814177 .009284 .554167
4 1 .207390 .007265 .503310
5 1 .006927 .615964 .517009
6 1 .502084 .459038 .989088
7 1 .496285 .442870 .010168
ITEM: TIMESTEP
200
ITEM: NUMBER OF ATOMS
7
ITEM: BOX BOUNDS ss ss ss
-3.0274 3.2424
-2.9315 3.0860
-1.8539 2.1604
ITEM: ATOMS id type xs ys zs
1 1 .499568 .990890 .478644
2 1 .990643 .613786 .477629
3 1 .813329 .010846 .551933
4 1 .206889 .008184 .501904
5 1 .007299 .614358 .516630
6 1 .502490 .458964 .987799
7 1 .497085 .442573 .011646
ITEM: TIMESTEP
250
ITEM: NUMBER OF ATOMS
7
ITEM: BOX BOUNDS ss ss ss
-3.0316 3.2424
-2.9305 3.0744
-1.8511 2.1598
ITEM: ATOMS id type xs ys zs
1 1 .500423 .992359 .478749
2 1 .991563 .614911 .476332
3 1 .812933 .011338 .550131
4 1 .207167 .007982 .501744
5 1 .008131 .614616 .516131
6 1 .503056 .460019 .988589
7 1 .497889 .443190 .011514
ITEM: TIMESTEP
300
ITEM: NUMBER OF ATOMS
7
ITEM: BOX BOUNDS ss ss ss
-3.0301 3.2424
-2.9264 3.0740
-1.8498 2.1602
ITEM: ATOMS id type xs ys zs
1 1 .500592 .992045 .478186
2 1 .991788 .614473 .475431
3 1 .812635 .010943 .548517
4 1 .206874 .007329 .502734
5 1 .007913 .613822 .514908
6 1 .503167 .460064 .988968
7 1 .497870 .442335 .011246
ITEM: TIMESTEP
350
ITEM: NUMBER OF ATOMS
7
ITEM: BOX BOUNDS ss ss ss
-3.0308 3.2424
-2.9328 3.0712
-1.8642 2.1621
ITEM: ATOMS id type xs ys zs
1 1 .500685 .992260 .479220
2 1 .992030 .615102 .477525
3 1 .812290 .012042 .548035
4 1 .206872 .008185 .505228
5 1 .008046 .613821 .515230
6 1 .503342 .461093 .988432
7 1 .498247 .442466 .014535
ITEM: TIMESTEP
400
ITEM: NUMBER OF ATOMS
7
ITEM: BOX BOUNDS ss ss ss
-3.0288 3.2434
-2.9327 3.0734
-1.8663 2.1669
ITEM: ATOMS id type xs ys zs
1 1 .500074 .991709 .478460
2 1 .991830 .615153 .478712
3 1 .812091 .011881 .545532
4 1 .206478 .007833 .505182
5 1 .007750 .612845 .513166
6 1 .503020 .460689 .986721
7 1 .498517 .441704 .014944
ITEM: TIMESTEP
1
ITEM: NUMBER OF ATOMS
7
ITEM: BOX BOUNDS ss ss ss
-3.0270 3.2424
-2.9329 3.0649
-1.8501 2.1576
ITEM: ATOMS id type xs ys zs
1 1 .499338 .994099 .477429
2 1 .989647 .616407 .479314
3 1 .814353 .010309 .552229
4 1 .207338 .008370 .504245
5 1 .007061 .617744 .515179
6 1 .502198 .460116 .987153
7 1 .496073 .443977 .009274
ITEM: TIMESTEP
50
ITEM: NUMBER OF ATOMS
7
ITEM: BOX BOUNDS ss ss ss
-3.0270 3.2424
-2.9329 3.0649
-1.8501 2.1576
ITEM: ATOMS id type xs ys zs
1 1 .499376 .994198 .477399
2 1 .989421 .616214 .479015
3 1 .814564 .010089 .553226
4 1 .207654 .008367 .503635
5 1 .007053 .617902 .515625
6 1 .502134 .460054 .986973
7 1 .495842 .444199 .008900
ITEM: TIMESTEP
100
ITEM: NUMBER OF ATOMS
7
ITEM: BOX BOUNDS ss ss ss
-3.0270 3.2424
-2.9329 3.0695
-1.8558 2.1576
ITEM: ATOMS id type xs ys zs
1 1 .499386 .993560 .478123
2 1 .989411 .615524 .479250
3 1 .814679 .010168 .554424
4 1 .207722 .008406 .503692
5 1 .006971 .617401 .516473
6 1 .502053 .459782 .987203
7 1 .495879 .443958 .010440
ITEM: TIMESTEP
150
ITEM: NUMBER OF ATOMS
7
ITEM: BOX BOUNDS ss ss ss
-3.0270 3.2424
-2.9329 3.0753
-1.8567 2.1576
ITEM: ATOMS id type xs ys zs
1 1 .499447 .992683 .478167
2 1 .989731 .614950 .478830
3 1 .814655 .010447 .554372
4 1 .207588 .008486 .503182
5 1 .006834 .616569 .516649
6 1 .502030 .459580 .987392
7 1 .496106 .443544 .011274
ITEM: TIMESTEP
200
ITEM: NUMBER OF ATOMS
7
ITEM: BOX BOUNDS ss ss ss
-3.0291 3.2424
-2.9329 3.0784
-1.8556 2.1576
ITEM: ATOMS id type xs ys zs
1 1 .499916 .992212 .477840
2 1 .990520 .614447 .478199
3 1 .814517 .010652 .553579
4 1 .207489 .008483 .502566
5 1 .006993 .615834 .516164
6 1 .502374 .459735 .987378
7 1 .496710 .443351 .011867
ITEM: TIMESTEP
250
ITEM: NUMBER OF ATOMS
7
ITEM: BOX BOUNDS ss ss ss
-3.0321 3.2426
-2.9343 3.0835
-1.8561 2.1576
ITEM: ATOMS id type xs ys zs
1 1 .500626 .991477 .477503
2 1 .991627 .613330 .477787
3 1 .813979 .010571 .552796
4 1 .207364 .008947 .501638
5 1 .007387 .615147 .515568
6 1 .503022 .459870 .986980
7 1 .497744 .443078 .012901
ITEM: TIMESTEP
300
ITEM: NUMBER OF ATOMS
7
ITEM: BOX BOUNDS ss ss ss
-3.0408 3.2424
-2.9343 3.0825
-1.8520 2.1563
ITEM: ATOMS id type xs ys zs
1 1 .501546 .991937 .476646
2 1 .992781 .612986 .476817
3 1 .813260 .010002 .551701
4 1 .207762 .009329 .500173
5 1 .008843 .614635 .514598
6 1 .504280 .460432 .986463
7 1 .499527 .442991 .012669
ITEM: TIMESTEP
350
ITEM: NUMBER OF ATOMS
7
ITEM: BOX BOUNDS ss ss ss
-3.0332 3.2501
-2.9428 3.0905
-1.8544 2.1602
ITEM: ATOMS id type xs ys zs
1 1 .500331 .990607 .476304
2 1 .992417 .612597 .476547
3 1 .811194 .011203 .551281
4 1 .205826 .010811 .499773
5 1 .007833 .613465 .513937
6 1 .503493 .461097 .985145
7 1 .499097 .443040 .013678
ITEM: TIMESTEP
400
ITEM: NUMBER OF ATOMS
7
ITEM: BOX BOUNDS ss ss ss
-3.0351 3.2506
-2.9391 3.0834
-1.8490 2.1531
ITEM: ATOMS id type xs ys zs
1 1 .500493 .991370 .476532
2 1 .993024 .613026 .476523
3 1 .810860 .010798 .551541
4 1 .205687 .010323 .500278
5 1 .008266 .613632 .513992
6 1 .503872 .461483 .987174
7 1 .499516 .443064 .012676
ITEM: TIMESTEP
1
ITEM: NUMBER OF ATOMS
7
ITEM: BOX BOUNDS ss ss ss
-3.0284 3.2473
-2.9266 3.0822
-1.8374 2.1450
ITEM: ATOMS id type xs ys zs
1 1 .499056 .991231 .477272
2 1 .988877 .614232 .479169
3 1 .813761 .009246 .552547
4 1 .207346 .007311 .504255
5 1 .007270 .615569 .515259
6 1 .501916 .458227 .990219
7 1 .495796 .442119 .006141
ITEM: TIMESTEP
50
ITEM: NUMBER OF ATOMS
7
ITEM: BOX BOUNDS ss ss ss
-3.0284 3.2473
-2.9266 3.0822
-1.8393 2.1450
ITEM: ATOMS id type xs ys zs
1 1 .499086 .991341 .477471
2 1 .988639 .613998 .479110
3 1 .814001 .008988 .553800
4 1 .207682 .007272 .503806
5 1 .007236 .615774 .516055
6 1 .501866 .458165 .990029
7 1 .495511 .442374 .006192
ITEM: TIMESTEP
100
ITEM: NUMBER OF ATOMS
7
ITEM: BOX BOUNDS ss ss ss
-3.0284 3.2473
-2.9266 3.0822
-1.8562 2.1450
ITEM: ATOMS id type xs ys zs
1 1 .499144 .991462 .479674
2 1 .988548 .613683 .480886
3 1 .814123 .008973 .556255
4 1 .207805 .007248 .505252
5 1 .007167 .615764 .518449
6 1 .501779 .458229 .990189
7 1 .495388 .442479 .010513
ITEM: TIMESTEP
150
ITEM: NUMBER OF ATOMS
7
ITEM: BOX BOUNDS ss ss ss
-3.0284 3.2473
-2.9266 3.0822
-1.8519 2.1490
ITEM: ATOMS id type xs ys zs
1 1 .499238 .991492 .478883
2 1 .988750 .613400 .479361
3 1 .813976 .009135 .554763
4 1 .207563 .007320 .503629
5 1 .007018 .615688 .517693
6 1 .501664 .458325 .989684
7 1 .495456 .442443 .010183
ITEM: TIMESTEP
200
ITEM: NUMBER OF ATOMS
7
ITEM: BOX BOUNDS ss ss ss
-3.0286 3.2473
-2.9327 3.0930
-1.8617 2.1585
ITEM: ATOMS id type xs ys zs
1 1 .499406 .989488 .480087
2 1 .989253 .612585 .479440
3 1 .813452 .010693 .552336
4 1 .206982 .008275 .503117
5 1 .006779 .615177 .518371
6 1 .501418 .457963 .988297
7 1 .495703 .442230 .013846
ITEM: TIMESTEP
250
ITEM: NUMBER OF ATOMS
7
ITEM: BOX BOUNDS ss ss ss
-3.0392 3.2473
-2.9301 3.0779
-1.8591 2.1688
ITEM: ATOMS id type xs ys zs
1 1 .500457 .991929 .480108
2 1 .989757 .614139 .478292
3 1 .812932 .010863 .548053
4 1 .207450 .008009 .500705
5 1 .008165 .617123 .517586
6 1 .501906 .458435 .986812
7 1 .496697 .443433 .014680
ITEM: TIMESTEP
300
ITEM: NUMBER OF ATOMS
7
ITEM: BOX BOUNDS ss ss ss
-3.0357 3.2419
-2.9350 3.0764
-1.8546 2.1666
ITEM: ATOMS id type xs ys zs
1 1 .500890 .992439 .481322
2 1 .990855 .614714 .478814
3 1 .812843 .011967 .545729
4 1 .206648 .008798 .499707
5 1 .007836 .618257 .518542
6 1 .502060 .458524 .987949
7 1 .496827 .444526 .014707
ITEM: TIMESTEP
350
ITEM: NUMBER OF ATOMS
7
ITEM: BOX BOUNDS ss ss ss
-3.0513 3.2419
-2.9331 3.0787
-1.8554 2.1641
ITEM: ATOMS id type xs ys zs
1 1 .502363 .992294 .482358
2 1 .991085 .614400 .479399
3 1 .812830 .011723 .544854
4 1 .208087 .008495 .499945
5 1 .010634 .618105 .519778
6 1 .503558 .457902 .988725
7 1 .497897 .444490 .015591
ITEM: TIMESTEP
400
ITEM: NUMBER OF ATOMS
7
ITEM: BOX BOUNDS ss ss ss
-3.0319 3.2419
-2.9333 3.0798
-1.8591 2.1648
ITEM: ATOMS id type xs ys zs
1 1 .501156 .991990 .482941
2 1 .991299 .614201 .479399
3 1 .811503 .011586 .543985
4 1 .204743 .008467 .500144
5 1 .007850 .617452 .520211
6 1 .502289 .457497 .988731
7 1 .496215 .444265 .017088
ITEM: TIMESTEP
1
ITEM: NUMBER OF ATOMS
7
ITEM: BOX BOUNDS ss ss ss
-3.0380 3.2373
-2.9314 3.0869
-1.8427 2.1671
ITEM: ATOMS id type xs ys zs
1 1 .500617 .990460 .475333
2 1 .990470 .614058 .477217
3 1 .815343 .010032 .550104
4 1 .208892 .008106 .502136
5 1 .008797 .615392 .513063
6 1 .503477 .458303 .984783
7 1 .497355 .442222 .007428
ITEM: TIMESTEP
50
ITEM: NUMBER OF ATOMS
7
ITEM: BOX BOUNDS ss ss ss
-3.0380 3.2373
-2.9314 3.0869
-1.8488 2.1671
ITEM: ATOMS id type xs ys zs
1 1 .500655 .990574 .476117
2 1 .990172 .613823 .477712
3 1 .815596 .009766 .551915
4 1 .209270 .008080 .502201
5 1 .008794 .615636 .514397
6 1 .503400 .458241 .984614
7 1 .497036 .442509 .008443
ITEM: TIMESTEP
100
ITEM: NUMBER OF ATOMS
7
ITEM: BOX BOUNDS ss ss ss
-3.0380 3.2373
-2.9314 3.0869
-1.8522 2.1671
ITEM: ATOMS id type xs ys zs
1 1 .500670 .990744 .476486
2 1 .990091 .613516 .477657
3 1 .815786 .009722 .553008
4 1 .209473 .008082 .501885
5 1 .008761 .615648 .515168
6 1 .503322 .458237 .984769
7 1 .496950 .442654 .009324
ITEM: TIMESTEP
150
ITEM: NUMBER OF ATOMS
7
ITEM: BOX BOUNDS ss ss ss
-3.0380 3.2373
-2.9314 3.0869
-1.8575 2.1671
ITEM: ATOMS id type xs ys zs
1 1 .500592 .990798 .477169
2 1 .990321 .613335 .477725
3 1 .815841 .009835 .553963
4 1 .209489 .008156 .501918
5 1 .008607 .615557 .516119
6 1 .503302 .458299 .985099
7 1 .497042 .442738 .011025
ITEM: TIMESTEP
200
ITEM: NUMBER OF ATOMS
7
ITEM: BOX BOUNDS ss ss ss
-3.0382 3.2373
-2.9314 3.0869
-1.8586 2.1671
ITEM: ATOMS id type xs ys zs
1 1 .500445 .990624 .477091
2 1 .990936 .613530 .477128
3 1 .815545 .010349 .554306
4 1 .209177 .008483 .501189
5 1 .008723 .615224 .516730
6 1 .503553 .458660 .985576
7 1 .497673 .442712 .011657
ITEM: TIMESTEP
250
ITEM: NUMBER OF ATOMS
7
ITEM: BOX BOUNDS ss ss ss
-3.0380 3.2373
-2.9314 3.0779
-1.8675 2.1697
ITEM: ATOMS id type xs ys zs
1 1 .500095 .992103 .477356
2 1 .992294 .615273 .477191
3 1 .814214 .011585 .554367
4 1 .208041 .009282 .500555
5 1 .009037 .615566 .518618
6 1 .504037 .460276 .986195
7 1 .499054 .443541 .014727
ITEM: TIMESTEP
300
ITEM: NUMBER OF ATOMS
7
ITEM: BOX BOUNDS ss ss ss
-3.0273 3.2373
-2.9314 3.0734
-1.8536 2.1671
ITEM: ATOMS id type xs ys zs
1 1 .499220 .992943 .475354
2 1 .992823 .616300 .476027
3 1 .812841 .012304 .551907
4 1 .205988 .009703 .498761
5 1 .007546 .615582 .517712
6 1 .503444 .461080 .987986
7 1 .498844 .443938 .011949
ITEM: TIMESTEP
350
ITEM: NUMBER OF ATOMS
7
ITEM: BOX BOUNDS ss ss ss
-3.0326 3.2443
-2.9276 3.0766
-1.8466 2.1706
ITEM: ATOMS id type xs ys zs
1 1 .499144 .992104 .473999
2 1 .991732 .615978 .476228
3 1 .811664 .011903 .549062
4 1 .206266 .008983 .498027
5 1 .008361 .614573 .516055
6 1 .503435 .460646 .987771
7 1 .498895 .443046 .010624
ITEM: TIMESTEP
400
ITEM: NUMBER OF ATOMS
7
ITEM: BOX BOUNDS ss ss ss
-3.0282 3.2485
-2.9241 3.0835
-1.8563 2.1694
ITEM: ATOMS id type xs ys zs
1 1 .498571 .990701 .475573
2 1 .991220 .614999 .478167
3 1 .810760 .011374 .549661
4 1 .205026 .008420 .499802
5 1 .007494 .613223 .516959
6 1 .502733 .459964 .988282
7 1 .498342 .441834 .013461
ITEM: TIMESTEP
1
ITEM: NUMBER OF ATOMS
7
ITEM: BOX BOUNDS ss ss ss
-3.0267 3.2424
-2.9192 3.0748
-1.8450 2.1752
ITEM: ATOMS id type xs ys zs
1 1 .499315 .992455 .474676
2 1 .989645 .614522 .476551
3 1 .814348 .008040 .549248
4 1 .207305 .006103 .501400
5 1 .007016 .615861 .512309
6 1 .502176 .458132 .982806
7 1 .496051 .441990 .007973
ITEM: TIMESTEP
50
ITEM: NUMBER OF ATOMS
7
ITEM: BOX BOUNDS ss ss ss
-3.0267 3.2424
-2.9192 3.0748
-1.8462 2.1752
ITEM: ATOMS id type xs ys zs
1 1 .499373 .992566 .474799
2 1 .989334 .614262 .476383
3 1 .814654 .007745 .550661
4 1 .207707 .006057 .500828
5 1 .007005 .616106 .513103
6 1 .502118 .458032 .982582
7 1 .495711 .442304 .007706
ITEM: TIMESTEP
100
ITEM: NUMBER OF ATOMS
7
ITEM: BOX BOUNDS ss ss ss
-3.0267 3.2424
-2.9203 3.0768
-1.8513 2.1693
ITEM: ATOMS id type xs ys zs
1 1 .499353 .992362 .476124
2 1 .989210 .613774 .477209
3 1 .814864 .007813 .552868
4 1 .207870 .006229 .501465
5 1 .006924 .615977 .514862
6 1 .502064 .457969 .984040
7 1 .495575 .442372 .009012
ITEM: TIMESTEP
150
ITEM: NUMBER OF ATOMS
7
ITEM: BOX BOUNDS ss ss ss
-3.0280 3.2424
-2.9391 3.0748
-1.8609 2.1693
ITEM: ATOMS id type xs ys zs
1 1 .499448 .992842 .477039
2 1 .989390 .615085 .477732
3 1 .814921 .010957 .554336
4 1 .208041 .009250 .501985
5 1 .007085 .617229 .516284
6 1 .501989 .459907 .984212
7 1 .495866 .444104 .011791
ITEM: TIMESTEP
200
ITEM: NUMBER OF ATOMS
7
ITEM: BOX BOUNDS ss ss ss
-3.0296 3.2424
-2.9358 3.0772
-1.8631 2.1693
ITEM: ATOMS id type xs ys zs
1 1 .499781 .992575 .476842
2 1 .989673 .614881 .477413
3 1 .814630 .010773 .554255
4 1 .207861 .008399 .501536
5 1 .007371 .616500 .516554
6 1 .501782 .459608 .984242
7 1 .496532 .443000 .013149
ITEM: TIMESTEP
250
ITEM: NUMBER OF ATOMS
7
ITEM: BOX BOUNDS ss ss ss
-3.0374 3.2424
-2.9435 3.0794
-1.8606 2.1693
ITEM: ATOMS id type xs ys zs
1 1 .500559 .992262 .476170
2 1 .990112 .615730 .476291
3 1 .814382 .012445 .553400
4 1 .208370 .009381 .500305
5 1 .008725 .616496 .515746
6 1 .502342 .460409 .984054
7 1 .497704 .442993 .013396
ITEM: TIMESTEP
300
ITEM: NUMBER OF ATOMS
7
ITEM: BOX BOUNDS ss ss ss
-3.0307 3.2424
-2.9432 3.0804
-1.8525 2.1693
ITEM: ATOMS id type xs ys zs
1 1 .499974 .992129 .474833
2 1 .990801 .615976 .474115
3 1 .814188 .012889 .551696
4 1 .207226 .009094 .498791
5 1 .007650 .616106 .513982
6 1 .502046 .460689 .984032
7 1 .497511 .442741 .012391
ITEM: TIMESTEP
350
ITEM: NUMBER OF ATOMS
7
ITEM: BOX BOUNDS ss ss ss
-3.0296 3.2424
-2.9474 3.0833
-1.8536 2.1693
ITEM: ATOMS id type xs ys zs
1 1 .499841 .991451 .474408
2 1 .991359 .615818 .473909
3 1 .814177 .014130 .551319
4 1 .206744 .008975 .498941
5 1 .007404 .615279 .514219
6 1 .502343 .461286 .984276
7 1 .497275 .442554 .013510
ITEM: TIMESTEP
400
ITEM: NUMBER OF ATOMS
7
ITEM: BOX BOUNDS ss ss ss
-3.0307 3.2403
-2.9561 3.0888
-1.8580 2.1664
ITEM: ATOMS id type xs ys zs
1 1 .500033 .990291 .475040
2 1 .991984 .615722 .474660
3 1 .814453 .015672 .552284
4 1 .206893 .010063 .499955
5 1 .007731 .614978 .515450
6 1 .502989 .461785 .985214
7 1 .497546 .442663 .014854
ITEM: TIMESTEP
1
ITEM: NUMBER OF ATOMS
7
ITEM: BOX BOUNDS ss ss ss
-3.0309 3.2409
-2.9414 3.0720
-1.8459 2.1610
ITEM: ATOMS id type xs ys zs
1 1 .499768 .992933 .476468
2 1 .989887 .616223 .478354
3 1 .814662 .011697 .551294
4 1 .207878 .009771 .503283
5 1 .007677 .617565 .514229
6 1 .502624 .460340 .986293
7 1 .496500 .444245 .008209
ITEM: TIMESTEP
50
ITEM: NUMBER OF ATOMS
7
ITEM: BOX BOUNDS ss ss ss
-3.0309 3.2409
-2.9414 3.0720
-1.8459 2.1610
ITEM: ATOMS id type xs ys zs
1 1 .499791 .993069 .476408
2 1 .989552 .615936 .478005
3 1 .814988 .011361 .552614
4 1 .208302 .009705 .502519
5 1 .007645 .617832 .514878
6 1 .502577 .460241 .986035
7 1 .496143 .444562 .007619
ITEM: TIMESTEP
100
ITEM: NUMBER OF ATOMS
7
ITEM: BOX BOUNDS ss ss ss
-3.0309 3.2409
-2.9414 3.0742
-1.8534 2.1610
ITEM: ATOMS id type xs ys zs
1 1 .499786 .992845 .477366
2 1 .989437 .615362 .478417
3 1 .815243 .011234 .554437
4 1 .208554 .009711 .502618
5 1 .007578 .617662 .516260
6 1 .502555 .460087 .986102
7 1 .495982 .444577 .009434
ITEM: TIMESTEP
150
ITEM: NUMBER OF ATOMS
7
ITEM: BOX BOUNDS ss ss ss
-3.0309 3.2403
-2.9414 3.0769
-1.8644 2.1610
ITEM: ATOMS id type xs ys zs
1 1 .499640 .992438 .478671
2 1 .989569 .614855 .479212
3 1 .815410 .011298 .556309
4 1 .208572 .009767 .503145
5 1 .007473 .617073 .517949
6 1 .502617 .459951 .986423
7 1 .496077 .444397 .012372
ITEM: TIMESTEP
200
ITEM: NUMBER OF ATOMS
7
ITEM: BOX BOUNDS ss ss ss
-3.0328 3.2403
-2.9414 3.0806
-1.8606 2.1610
ITEM: ATOMS id type xs ys zs
1 1 .499431 .991924 .478236
2 1 .989589 .614571 .477982
3 1 .815242 .011475 .556620
4 1 .208500 .009735 .501757
5 1 .007681 .616379 .517730
6 1 .502738 .459854 .986827
7 1 .496278 .444157 .012170
ITEM: TIMESTEP
250
ITEM: NUMBER OF ATOMS
7
ITEM: BOX BOUNDS ss ss ss
-3.0393 3.2403
-2.9414 3.0852
-1.8692 2.1610
ITEM: ATOMS id type xs ys zs
1 1 .499618 .991245 .479244
2 1 .989706 .614762 .478342
3 1 .814547 .011707 .557953
4 1 .208241 .009451 .501960
5 1 .008936 .615655 .520150
6 1 .503364 .459724 .987618
7 1 .497150 .443569 .015416
ITEM: TIMESTEP
300
ITEM: NUMBER OF ATOMS
7
ITEM: BOX BOUNDS ss ss ss
-3.0473 3.2403
-2.9414 3.0769
-1.8635 2.1659
ITEM: ATOMS id type xs ys zs
1 1 .500101 .992738 .477481
2 1 .990110 .616158 .476221
3 1 .813352 .012137 .557242
4 1 .207930 .009322 .500178
5 1 .010444 .615979 .520785
6 1 .504253 .460816 .987220
7 1 .498020 .443719 .014939
ITEM: TIMESTEP
350
ITEM: NUMBER OF ATOMS
7
ITEM: BOX BOUNDS ss ss ss
-3.0445 3.2403
-2.9414 3.0820
-1.8702 2.1646
ITEM: ATOMS id type xs ys zs
1 1 .500104 .991909 .477791
2 1 .990485 .615772 .477005
3 1 .812466 .012591 .558595
4 1 .206976 .009355 .500697
5 1 .009934 .615206 .522754
6 1 .504055 .460770 .988194
7 1 .498026 .443179 .017187
ITEM: TIMESTEP
400
ITEM: NUMBER OF ATOMS
7
ITEM: BOX BOUNDS ss ss ss
-3.0299 3.2403
-2.9389 3.0880
-1.8528 2.1748
ITEM: ATOMS id type xs ys zs
1 1 .499191 .990823 .473330
2 1 .990953 .615087 .473646
3 1 .811583 .012566 .555665
4 1 .204973 .009013 .496526
5 1 .007582 .614307 .519722
6 1 .502846 .460463 .986079
7 1 .497238 .442568 .013273
ITEM: TIMESTEP
450
ITEM: NUMBER OF ATOMS
7
ITEM: BOX BOUNDS ss ss ss
-3.0371 3.2423
-2.9435 3.0838
-1.8562 2.1715
ITEM: ATOMS id type xs ys zs
1 1 .499629 .991452 .473947
2 1 .990854 .615980 .474145
3 1 .811474 .013612 .557129
4 1 .205662 .009962 .496907
5 1 .008582 .614766 .520640
6 1 .503349 .461546 .987156
7 1 .497880 .443314 .014266
ITEM: TIMESTEP
500
ITEM: NUMBER OF ATOMS
7
ITEM: BOX BOUNDS ss ss ss
-3.0445 3.2408
-2.9361 3.0872
-1.8578 2.1733
ITEM: ATOMS id type xs ys zs
1 1 .500125 .990932 .474061
2 1 .991219 .615335 .473926
3 1 .812031 .012679 .557227
4 1 .206455 .008966 .496978
5 1 .009496 .613387 .520007
6 1 .503987 .460944 .986797
7 1 .498861 .442415 .014899
ITEM: TIMESTEP
550
ITEM: NUMBER OF ATOMS
7
ITEM: BOX BOUNDS ss ss ss
-3.0361 3.2409
-2.9456 3.0945
-1.8846 2.1797
ITEM: ATOMS id type xs ys zs
1 1 .499252 .989963 .476722
2 1 .991759 .615257 .476716
3 1 .811477 .014496 .558865
4 1 .204943 .010426 .499726
5 1 .007866 .612646 .521338
6 1 .503150 .461480 .984985
7 1 .498348 .442776 .021871
ITEM: TIMESTEP
600
ITEM: NUMBER OF ATOMS
7
ITEM: BOX BOUNDS ss ss ss
-3.0479 3.2424
-2.9510 3.0988
-1.8478 2.1859
ITEM: ATOMS id type xs ys zs
1 1 .500459 .989472 .471283
2 1 .992379 .615365 .470800
3 1 .811346 .015443 .553032
4 1 .206013 .010864 .494220
5 1 .009236 .611349 .514503
6 1 .503754 .461912 .982088
7 1 .499507 .443008 .013884
ITEM: TIMESTEP
650
ITEM: NUMBER OF ATOMS
7
ITEM: BOX BOUNDS ss ss ss
-3.0511 3.2467
-2.9618 3.1003
-1.8442 2.1741
ITEM: ATOMS id type xs ys zs
1 1 .500709 .989399 .472747
2 1 .992348 .616317 .471619
3 1 .810898 .017267 .553056
4 1 .206481 .012118 .494736
5 1 .009037 .610687 .513867
6 1 .503563 .463004 .983914
7 1 .499810 .444226 .013680
ITEM: TIMESTEP
1
ITEM: NUMBER OF ATOMS
7
ITEM: BOX BOUNDS ss ss ss
-3.0520 3.2486
-2.9436 3.0829
-1.8395 2.1814
ITEM: ATOMS id type xs ys zs
1 1 .500827 .991139 .473220
2 1 .988711 .615247 .475099
3 1 .814285 .012045 .547786
4 1 .210277 .010121 .499942
5 1 .010986 .616585 .510852
6 1 .503678 .459707 .981258
7 1 .497577 .443648 .006605
ITEM: TIMESTEP
50
ITEM: NUMBER OF ATOMS
7
ITEM: BOX BOUNDS ss ss ss
-3.0520 3.2486
-2.9436 3.0829
-1.8462 2.1814
ITEM: ATOMS id type xs ys zs
1 1 .500890 .991271 .474036
2 1 .988373 .614982 .475578
3 1 .814604 .011700 .549894
4 1 .210749 .010070 .499952
5 1 .010955 .616879 .512349
6 1 .503605 .459618 .981034
7 1 .497199 .443986 .007602
ITEM: TIMESTEP
100
ITEM: NUMBER OF ATOMS
7
ITEM: BOX BOUNDS ss ss ss
-3.0520 3.2486
-2.9436 3.0829
-1.8517 2.1814
ITEM: ATOMS id type xs ys zs
1 1 .500894 .991398 .474675
2 1 .988183 .614612 .475688
3 1 .814891 .011519 .551540
4 1 .211035 .010105 .499731
5 1 .010879 .616946 .513474
6 1 .503521 .459582 .981068
7 1 .496996 .444265 .008877
ITEM: TIMESTEP
150
ITEM: NUMBER OF ATOMS
7
ITEM: BOX BOUNDS ss ss ss
-3.0520 3.2486
-2.9436 3.0829
-1.8616 2.1814
ITEM: ATOMS id type xs ys zs
1 1 .500881 .991534 .476049
2 1 .988279 .614345 .476141
3 1 .815091 .011500 .553481
4 1 .211181 .010167 .500238
5 1 .010733 .616842 .515015
6 1 .503497 .459695 .981456
7 1 .496996 .444408 .011705
ITEM: TIMESTEP
200
ITEM: NUMBER OF ATOMS
7
ITEM: BOX BOUNDS ss ss ss
-3.0520 3.2456
-2.9436 3.0829
-1.8651 2.1814
ITEM: ATOMS id type xs ys zs
1 1 .501143 .991516 .477184
2 1 .989029 .614338 .475976
3 1 .815252 .011478 .554760
4 1 .211096 .010145 .500351
5 1 .010570 .616356 .515376
6 1 .503755 .459973 .982397
7 1 .497708 .444245 .013475
ITEM: TIMESTEP
250
ITEM: NUMBER OF ATOMS
7
ITEM: BOX BOUNDS ss ss ss
-3.0520 3.2456
-2.9406 3.0836
-1.8715 2.1700
ITEM: ATOMS id type xs ys zs
1 1 .501254 .991221 .480838
2 1 .989339 .614259 .477893
3 1 .814698 .010829 .558472
4 1 .210394 .009751 .502216
5 1 .010608 .615400 .517097
6 1 .503799 .459664 .986117
7 1 .498429 .443461 .016226
ITEM: TIMESTEP
300
ITEM: NUMBER OF ATOMS
7
ITEM: BOX BOUNDS ss ss ss
-3.0520 3.2437
-2.9413 3.0857
-1.8540 2.1743
ITEM: ATOMS id type xs ys zs
1 1 .501312 .990662 .480079
2 1 .990099 .614231 .474890
3 1 .814630 .010640 .557462
4 1 .209443 .009994 .498868
5 1 .010778 .614902 .513781
6 1 .503958 .459229 .985384
7 1 .499190 .442885 .012979
ITEM: TIMESTEP
350
ITEM: NUMBER OF ATOMS
7
ITEM: BOX BOUNDS ss ss ss
-3.0520 3.2430
-2.9431 3.0796
-1.8538 2.1737
ITEM: ATOMS id type xs ys zs
1 1 .501201 .991707 .481285
2 1 .990480 .614836 .474582
3 1 .814557 .010688 .558637
4 1 .208889 .010059 .498639
5 1 .010980 .615536 .513636
6 1 .504126 .459643 .985559
7 1 .499573 .443207 .013694
ITEM: TIMESTEP
400
ITEM: NUMBER OF ATOMS
7
ITEM: BOX BOUNDS ss ss ss
-3.0520 3.2446
-2.9554 3.0882
-1.8524 2.1669
ITEM: ATOMS id type xs ys zs
1 1 .500950 .990367 .482127
2 1 .990374 .614582 .474907
3 1 .814384 .012867 .560225
4 1 .208826 .011873 .499154
5 1 .010879 .615416 .514106
6 1 .503898 .460134 .987159
7 1 .499536 .443490 .013867
ITEM: TIMESTEP
450
ITEM: NUMBER OF ATOMS
7
ITEM: BOX BOUNDS ss ss ss
-3.0520 3.2459
-2.9638 3.0885
-1.8506 2.1711
ITEM: ATOMS id type xs ys zs
1 1 .500546 .990170 .481368
2 1 .990310 .615037 .473893
3 1 .814295 .014399 .560009
4 1 .208948 .013269 .498325
5 1 .010684 .615958 .513128
6 1 .503610 .461032 .986161
7 1 .499631 .444099 .013652
ITEM: TIMESTEP
500
ITEM: NUMBER OF ATOMS
7
ITEM: BOX BOUNDS ss ss ss
-3.0520 3.2441
-2.9627 3.0971
-1.8510 2.1717
ITEM: ATOMS id type xs ys zs
1 1 .500433 .988518 .481680
2 1 .990940 .613811 .472976
3 1 .814182 .014085 .560459
4 1 .208794 .013541 .497736
5 1 .010492 .614810 .513299
6 1 .503907 .460503 .986013
7 1 .499997 .443506 .013683
ITEM: TIMESTEP
550
ITEM: NUMBER OF ATOMS
7
ITEM: BOX BOUNDS ss ss ss
-3.0520 3.2537
-2.9625 3.0949
-1.8500 2.1810
ITEM: ATOMS id type xs ys zs
1 1 .499738 .988632 .480874