ITEM: TIMESTEP
1
ITEM: NUMBER OF ATOMS
7
ITEM: BOX BOUNDS ss ss ss
-2.9865 3.1813
-2.8866 3.0335
-1.8166 2.1099
ITEM: ATOMS id type xs ys zs
1 1 .501061 .999310 .479157
2 1 .999534 .616680 .481101
3 1 .821266 .002500 .554887
4 1 .204313 .000729 .506151
5 1 .000447 .618057 .516739
6 1 .503663 .458450 .998970
7 1 .497596 .442204 .001433
ITEM: TIMESTEP
50
ITEM: NUMBER OF ATOMS
7
ITEM: BOX BOUNDS ss ss ss
-3.0138 3.2078
-2.9102 3.0568
-1.8404 2.1344
ITEM: ATOMS id type xs ys zs
1 1 .500531 .999202 .480941
2 1 .994854 .615150 .482464
3 1 .818877 .006787 .553093
4 1 .208167 .002695 .507813
5 1 .007813 .615516 .518818
6 1 .504588 .459605 .990117
7 1 .497429 .442346 .007079
ITEM: TIMESTEP
100
ITEM: NUMBER OF ATOMS
7
ITEM: BOX BOUNDS ss ss ss
-3.0188 3.2134
-2.9183 3.0641
-1.8491 2.1461
ITEM: ATOMS id type xs ys zs
1 1 .501924 .996279 .484057
2 1 .997038 .616314 .477700
3 1 .819127 .009019 .553356
4 1 .206798 .004400 .500008
5 1 .006604 .613941 .519584
6 1 .503385 .459265 .991912
7 1 .498625 .445429 .010090
ITEM: TIMESTEP
150
ITEM: NUMBER OF ATOMS
7
ITEM: BOX BOUNDS ss ss ss
-3.0276 3.2273
-2.9214 3.0705
-1.8541 2.1555
ITEM: ATOMS id type xs ys zs
1 1 .501215 .994853 .482459
2 1 .995776 .613563 .476103
3 1 .817332 .008872 .553468
4 1 .208677 .004787 .497544
5 1 .008654 .613227 .518801
6 1 .503013 .460294 .990126
7 1 .498379 .446170 .012379
ITEM: TIMESTEP
200
ITEM: NUMBER OF ATOMS
7
ITEM: BOX BOUNDS ss ss ss
-3.0351 3.2272
-2.9309 3.0770
-1.8565 2.1558
ITEM: ATOMS id type xs ys zs
1 1 .501350 .992682 .480674
2 1 .995320 .617296 .479871
3 1 .815153 .012433 .556887
4 1 .209389 .007264 .498112
5 1 .009033 .616241 .521463
6 1 .505944 .459397 .986234
7 1 .500939 .444523 .018929
ITEM: TIMESTEP
250
ITEM: NUMBER OF ATOMS
7
ITEM: BOX BOUNDS ss ss ss
-3.0280 3.2308
-2.9334 3.0766
-1.8596 2.1527
ITEM: ATOMS id type xs ys zs
1 1 .499722 .990675 .477267
2 1 .994969 .616936 .480304
3 1 .815913 .010201 .555048
4 1 .207024 .007152 .509522
5 1 .007967 .612227 .515899
6 1 .507501 .459123 .990132
7 1 .497896 .440783 .017644
ITEM: TIMESTEP
300
ITEM: NUMBER OF ATOMS
7
ITEM: BOX BOUNDS ss ss ss
-3.0320 3.2286
-2.9388 3.0734
-1.8595 2.1581
ITEM: ATOMS id type xs ys zs
1 1 .497915 .990076 .474683
2 1 .997224 .618432 .482339
3 1 .817797 .010567 .554181
4 1 .207582 .006422 .509209
5 1 .009945 .612725 .514225
6 1 .508532 .459096 .984500
7 1 .497322 .443683 .018650
ITEM: TIMESTEP
350
ITEM: NUMBER OF ATOMS
7
ITEM: BOX BOUNDS ss ss ss
-3.0327 3.2352
-2.9342 3.0808
-1.8608 2.1605
ITEM: ATOMS id type xs ys zs
1 1 .505059 .992115 .471923
2 1 .992513 .616036 .478637
3 1 .818015 .014040 .559835
4 1 .208948 .009604 .501489
5 1 .010468 .617373 .513219
6 1 .505139 .461378 .987011
7 1 .500321 .443072 .014000
ITEM: TIMESTEP
400
ITEM: NUMBER OF ATOMS
7
ITEM: BOX BOUNDS ss ss ss
-3.0272 3.2407
-2.9371 3.0736
-1.8696 2.1613
ITEM: ATOMS id type xs ys zs
1 1 .498322 .990057 .478106
2 1 .996306 .614272 .483402
3 1 .807681 .013004 .552823
4 1 .204956 .012596 .502749
5 1 .008605 .617240 .510273
6 1 .503113 .461683 .992682
7 1 .501182 .441400 .015852
ITEM: TIMESTEP
1
ITEM: NUMBER OF ATOMS
7
ITEM: BOX BOUNDS ss ss ss
-3.0243 3.2318
-2.9209 3.0691
-1.8498 2.1475
ITEM: ATOMS id type xs ys zs
1 1 .500032 .993339 .478478
2 1 .991402 .615448 .480421
3 1 .815665 .008433 .553502
4 1 .207284 .006344 .505552
5 1 .006580 .616697 .516616
6 1 .502675 .458849 .989814
7 1 .496833 .442785 .009396
ITEM: TIMESTEP
50
ITEM: NUMBER OF ATOMS
7
ITEM: BOX BOUNDS ss ss ss
-3.0243 3.2318
-2.9209 3.0619
-1.8498 2.1475
ITEM: ATOMS id type xs ys zs
1 1 .500388 .994840 .479432
2 1 .991606 .615684 .481329
3 1 .817773 .007829 .552708
4 1 .209413 .008379 .505132
5 1 .005809 .615269 .517734
6 1 .501891 .458979 .990825
7 1 .496981 .444147 .003317
ITEM: TIMESTEP
100
ITEM: NUMBER OF ATOMS
7
ITEM: BOX BOUNDS ss ss ss
-3.0243 3.2318
-2.9226 3.0708
-1.8498 2.1475
ITEM: ATOMS id type xs ys zs
1 1 .500202 .993628 .480232
2 1 .990567 .612842 .481179
3 1 .816801 .009380 .553792
4 1 .209721 .006667 .506003
5 1 .006342 .614711 .517866
6 1 .502427 .460431 .986159
7 1 .497157 .446469 .000946
ITEM: TIMESTEP
150
ITEM: NUMBER OF ATOMS
7
ITEM: BOX BOUNDS ss ss ss
-3.0243 3.2318
-2.9209 3.0769
-1.8541 2.1492
ITEM: ATOMS id type xs ys zs
1 1 .499097 .990587 .479269
2 1 .990079 .613294 .481508
3 1 .815571 .009867 .550607
4 1 .205597 .006787 .503400
5 1 .006587 .612733 .519710
6 1 .502467 .454470 .991409
7 1 .497946 .441092 .014687
ITEM: TIMESTEP
200
ITEM: NUMBER OF ATOMS
7
ITEM: BOX BOUNDS ss ss ss
-3.0357 3.2318
-2.9222 3.0723
-1.8557 2.1562
ITEM: ATOMS id type xs ys zs
1 1 .498503 .992270 .476526
2 1 .990353 .613964 .482739
3 1 .816158 .010101 .551558
4 1 .205204 .008360 .505934
5 1 .009721 .612967 .520359
6 1 .504791 .453915 .992393
7 1 .499374 .440630 .014711
ITEM: TIMESTEP
250
ITEM: NUMBER OF ATOMS
7
ITEM: BOX BOUNDS ss ss ss
-3.0431 3.2366
-2.9290 3.0734
-1.8498 2.1600
ITEM: ATOMS id type xs ys zs
1 1 .498739 .991016 .479226
2 1 .990531 .614662 .482486
3 1 .815099 .008318 .551647
4 1 .202911 .009911 .506420
5 1 .009194 .614616 .519760
6 1 .505865 .454067 .989092
7 1 .499248 .441183 .013919
ITEM: TIMESTEP
300
ITEM: NUMBER OF ATOMS
7
ITEM: BOX BOUNDS ss ss ss
-3.0423 3.2458
-2.9238 3.0698
-1.8498 2.1621
ITEM: ATOMS id type xs ys zs
1 1 .498468 .992023 .478156
2 1 .989980 .614077 .482986
3 1 .816903 .007311 .554294
4 1 .203804 .009401 .507165
5 1 .009975 .613974 .519914
6 1 .505081 .454994 .989622
7 1 .495673 .441843 .014037
ITEM: TIMESTEP
350
ITEM: NUMBER OF ATOMS
7
ITEM: BOX BOUNDS ss ss ss
-3.0361 3.2444
-2.9310 3.0776
-1.8560 2.1631
ITEM: ATOMS id type xs ys zs
1 1 .501211 .991201 .479931
2 1 .990017 .616360 .468375
3 1 .813117 .010564 .549459
4 1 .208138 .010631 .500669
5 1 .005098 .613522 .517243
6 1 .504431 .461126 .986865
7 1 .498340 .442043 .014741
ITEM: TIMESTEP
400
ITEM: NUMBER OF ATOMS
7
ITEM: BOX BOUNDS ss ss ss
-3.0414 3.2576
-2.9333 3.0934
-1.8536 2.1674
ITEM: ATOMS id type xs ys zs
1 1 .502009 .989725 .474620
2 1 .990734 .613388 .481193
3 1 .808522 .013435 .548829
4 1 .201340 .008916 .505135
5 1 .004668 .615457 .505709
6 1 .500764 .461022 .982525
7 1 .496590 .438916 .015703
ITEM: TIMESTEP
1
ITEM: NUMBER OF ATOMS
7
ITEM: BOX BOUNDS ss ss ss
-3.0274 3.2424
-2.9258 3.0655
-1.8469 2.1524
ITEM: ATOMS id type xs ys zs
1 1 .499396 .994350 .477434
2 1 .989955 .615928 .479676
3 1 .814202 .009235 .552593
4 1 .207367 .007066 .504537
5 1 .006980 .616963 .515304
6 1 .502373 .459486 .988580
7 1 .496043 .443216 .008657
ITEM: TIMESTEP
50
ITEM: NUMBER OF ATOMS
7
ITEM: BOX BOUNDS ss ss ss
-3.0274 3.2424
-2.9258 3.0655
-1.8469 2.1524
ITEM: ATOMS id type xs ys zs
1 1 .498380 .995496 .477589
2 1 .989224 .616610 .481015
3 1 .815752 .009579 .553245
4 1 .206909 .006122 .503507
5 1 .005809 .616902 .515174
6 1 .504930 .460821 .989497
7 1 .494813 .444630 .006745
ITEM: TIMESTEP
100
ITEM: NUMBER OF ATOMS
7
ITEM: BOX BOUNDS ss ss ss
-3.0270 3.2424
-2.9258 3.0686
-1.8615 2.1524
ITEM: ATOMS id type xs ys zs
1 1 .500848 .991944 .480702
2 1 .990740 .617693 .479807
3 1 .814700 .007549 .557771
4 1 .207595 .011574 .507635
5 1 .006195 .616614 .517132
6 1 .503472 .458440 .988088
7 1 .496265 .441293 .009600
ITEM: TIMESTEP
150
ITEM: NUMBER OF ATOMS
7
ITEM: BOX BOUNDS ss ss ss
-3.0270 3.2424
-2.9258 3.0744
-1.8516 2.1520
ITEM: ATOMS id type xs ys zs
1 1 .500918 .993019 .476976
2 1 .989176 .613319 .478958
3 1 .814876 .009411 .551527
4 1 .205228 .007265 .502242
5 1 .006290 .617126 .514038
6 1 .501474 .455640 .996091
7 1 .497805 .441544 .014386
ITEM: TIMESTEP
200
ITEM: NUMBER OF ATOMS
7
ITEM: BOX BOUNDS ss ss ss
-3.0274 3.2424
-2.9315 3.0860
-1.8539 2.1604
ITEM: ATOMS id type xs ys zs
1 1 .499757 .990422 .484465
2 1 .990873 .611815 .470245
3 1 .810768 .014099 .550543
4 1 .206636 .008913 .504721
5 1 .009019 .614291 .516166
6 1 .502364 .457640 .988389
7 1 .494349 .441993 .014090
ITEM: TIMESTEP
250
ITEM: NUMBER OF ATOMS
7
ITEM: BOX BOUNDS ss ss ss
-3.0316 3.2424
-2.9305 3.0744
-1.8511 2.1598
ITEM: ATOMS id type xs ys zs
1 1 .499678 .991363 .486861
2 1 .990223 .612814 .467409
3 1 .810571 .012846 .550266
4 1 .206111 .007954 .502361
5 1 .010805 .614093 .515962
6 1 .503159 .456053 .987155
7 1 .493095 .443666 .012038
ITEM: TIMESTEP
300
ITEM: NUMBER OF ATOMS
7
ITEM: BOX BOUNDS ss ss ss
-3.0301 3.2424
-2.9264 3.0740
-1.8498 2.1602
ITEM: ATOMS id type xs ys zs
1 1 .496633 .990358 .480820
2 1 .991264 .614048 .478486
3 1 .815773 .011220 .543000
4 1 .206607 .007713 .507370
5 1 .007484 .611773 .512329
6 1 .502896 .460490 .989806
7 1 .497994 .443059 .008799
ITEM: TIMESTEP
350
ITEM: NUMBER OF ATOMS
7
ITEM: BOX BOUNDS ss ss ss
-3.0308 3.2424
-2.9328 3.0712
-1.8642 2.1621
ITEM: ATOMS id type xs ys zs
1 1 .498518 .992054 .482338
2 1 .990931 .614281 .481483
3 1 .816787 .011258 .543866
4 1 .206741 .009664 .508701
5 1 .007596 .610710 .513396
6 1 .501130 .461330 .987298
7 1 .497798 .445579 .010215
ITEM: TIMESTEP
400
ITEM: NUMBER OF ATOMS
7
ITEM: BOX BOUNDS ss ss ss
-3.0288 3.2434
-2.9327 3.0734
-1.8663 2.1669
ITEM: ATOMS id type xs ys zs
1 1 .498409 .992051 .480740
2 1 .991119 .613853 .483256
3 1 .812839 .013170 .551142
4 1 .208255 .008908 .500712
5 1 .007541 .614754 .514785
6 1 .495896 .459095 .985696
7 1 .496721 .443495 .014132
ITEM: TIMESTEP
1
ITEM: NUMBER OF ATOMS
7
ITEM: BOX BOUNDS ss ss ss
-3.0270 3.2424
-2.9329 3.0649
-1.8501 2.1576
ITEM: ATOMS id type xs ys zs
1 1 .499377 .994141 .477415
2 1 .989516 .616553 .479431
3 1 .814116 .010364 .552165
4 1 .207227 .008324 .504272
5 1 .007124 .617975 .514903
6 1 .502123 .459938 .987232
7 1 .495919 .443934 .009431
ITEM: TIMESTEP
50
ITEM: NUMBER OF ATOMS
7
ITEM: BOX BOUNDS ss ss ss
-3.0270 3.2424
-2.9329 3.0649
-1.8501 2.1576
ITEM: ATOMS id type xs ys zs
1 1 .499027 .993350 .475656
2 1 .988149 .615604 .477968
3 1 .815628 .009999 .554850
4 1 .208580 .009321 .501193
5 1 .006016 .619833 .514986
6 1 .501476 .460738 .986315
7 1 .495216 .443098 .010866
ITEM: TIMESTEP
100
ITEM: NUMBER OF ATOMS
7
ITEM: BOX BOUNDS ss ss ss
-3.0270 3.2424
-2.9329 3.0695
-1.8558 2.1576
ITEM: ATOMS id type xs ys zs
1 1 .499951 .992925 .475702
2 1 .987422 .612593 .477064
3 1 .817797 .009112 .558887
4 1 .208159 .008744 .501034
5 1 .008474 .620835 .518680
6 1 .501935 .462020 .983688
7 1 .492486 .442361 .010611
ITEM: TIMESTEP
150
ITEM: NUMBER OF ATOMS
7
ITEM: BOX BOUNDS ss ss ss
-3.0270 3.2424
-2.9329 3.0753
-1.8567 2.1576
ITEM: ATOMS id type xs ys zs
1 1 .503569 .991455 .478745
2 1 .989613 .616449 .476828
3 1 .816258 .013358 .554263
4 1 .210412 .009288 .503984
5 1 .008073 .618233 .518212
6 1 .503516 .459996 .989609
7 1 .497464 .446913 .008769
ITEM: TIMESTEP
200
ITEM: NUMBER OF ATOMS
7
ITEM: BOX BOUNDS ss ss ss
-3.0291 3.2424
-2.9329 3.0784
-1.8556 2.1576
ITEM: ATOMS id type xs ys zs
1 1 .501928 .994047 .481525
2 1 .992181 .613053 .475431
3 1 .816076 .010979 .556284
4 1 .205756 .006640 .497908
5 1 .004524 .616691 .515628
6 1 .499870 .458445 .989330
7 1 .497538 .446848 .020054
ITEM: TIMESTEP
250
ITEM: NUMBER OF ATOMS
7
ITEM: BOX BOUNDS ss ss ss
-3.0321 3.2426
-2.9343 3.0835
-1.8561 2.1576
ITEM: ATOMS id type xs ys zs
1 1 .502416 .994006 .482148
2 1 .992469 .612654 .472977
3 1 .815901 .011681 .556375
4 1 .208645 .004799 .498788
5 1 .006317 .616170 .516224
6 1 .501689 .458315 .993348
7 1 .498750 .446069 .019720
ITEM: TIMESTEP
300
ITEM: NUMBER OF ATOMS
7
ITEM: BOX BOUNDS ss ss ss
-3.0408 3.2424
-2.9343 3.0825
-1.8520 2.1563
ITEM: ATOMS id type xs ys zs
1 1 .503210 .989129 .480475
2 1 .996903 .609219 .480075
3 1 .811106 .010093 .556750
4 1 .209267 .006454 .498928
5 1 .009145 .615162 .518853
6 1 .503358 .460090 .991510
7 1 .499285 .441431 .019561
ITEM: TIMESTEP
350
ITEM: NUMBER OF ATOMS
7
ITEM: BOX BOUNDS ss ss ss
-3.0332 3.2501
-2.9428 3.0905
-1.8544 2.1602
ITEM: ATOMS id type xs ys zs
1 1 .496965 .992611 .477982
2 1 .988614 .614002 .477330
3 1 .809293 .011357 .550858
4 1 .203986 .010348 .502007
5 1 .009746 .613046 .513241
6 1 .501167 .463209 .985870
7 1 .500088 .442471 .014277
ITEM: TIMESTEP
400
ITEM: NUMBER OF ATOMS
7
ITEM: BOX BOUNDS ss ss ss
-3.0351 3.2506
-2.9391 3.0834
-1.8490 2.1531
ITEM: ATOMS id type xs ys zs
1 1 .495562 .995363 .479620
2 1 .990609 .614765 .475469
3 1 .808707 .011041 .552346
4 1 .205444 .008458 .502010
5 1 .007992 .615010 .515944
6 1 .501688 .462447 .990413
7 1 .501217 .440797 .013173
ITEM: TIMESTEP
1
ITEM: NUMBER OF ATOMS
7
ITEM: BOX BOUNDS ss ss ss
-3.0284 3.2473
-2.9266 3.0822
-1.8374 2.1450
ITEM: ATOMS id type xs ys zs
1 1 .499079 .991224 .477209
2 1 .988897 .613951 .479410
3 1 .813724 .009394 .552262
4 1 .207318 .007357 .504247
5 1 .006953 .615539 .515093
6 1 .501909 .458274 .990266
7 1 .495756 .442264 .006331
ITEM: TIMESTEP
50
ITEM: NUMBER OF ATOMS
7
ITEM: BOX BOUNDS ss ss ss
-3.0284 3.2473
-2.9266 3.0822
-1.8393 2.1450
ITEM: ATOMS id type xs ys zs
1 1 .500564 .989126 .480870
2 1 .990321 .613464 .483062
3 1 .814608 .011017 .554268
4 1 .209305 .005929 .503373
5 1 .005219 .613393 .514136
6 1 .501732 .456175 .988074
7 1 .495246 .442913 .007518
ITEM: TIMESTEP
100
ITEM: NUMBER OF ATOMS
7
ITEM: BOX BOUNDS ss ss ss
-3.0284 3.2473
-2.9266 3.0822
-1.8562 2.1450
ITEM: ATOMS id type xs ys zs
1 1 .498942 .993792 .481017
2 1 .988718 .614067 .481994
3 1 .813422 .009503 .558235
4 1 .205640 .009176 .513336
5 1 .006412 .613927 .518217
6 1 .501244 .458465 .989920
7 1 .495577 .442304 .010584
ITEM: TIMESTEP
150
ITEM: NUMBER OF ATOMS
7
ITEM: BOX BOUNDS ss ss ss
-3.0284 3.2473
-2.9266 3.0822
-1.8519 2.1490
ITEM: ATOMS id type xs ys zs
1 1 .497121 .995949 .478784
2 1 .987123 .612606 .479455
3 1 .815780 .007585 .557331
4 1 .207989 .008763 .512392
5 1 .005066 .612833 .519391
6 1 .499657 .457671 .985417
7 1 .495507 .444154 .011478
ITEM: TIMESTEP
200
ITEM: NUMBER OF ATOMS
7
ITEM: BOX BOUNDS ss ss ss
-3.0286 3.2473
-2.9327 3.0930
-1.8617 2.1585
ITEM: ATOMS id type xs ys zs
1 1 .500381 .989933 .473536
2 1 .990174 .610225 .480355
3 1 .815599 .009897 .551511
4 1 .211372 .005278 .503282
5 1 .006870 .615510 .508327
6 1 .500505 .461229 .982967
7 1 .495787 .439103 .010692
ITEM: TIMESTEP
250
ITEM: NUMBER OF ATOMS
7
ITEM: BOX BOUNDS ss ss ss
-3.0392 3.2473
-2.9301 3.0779
-1.8591 2.1688
ITEM: ATOMS id type xs ys zs
1 1 .502175 .991410 .484802
2 1 .989578 .612586 .483191
3 1 .813672 .008144 .540148
4 1 .207863 .008818 .504267
5 1 .006246 .619129 .523426
6 1 .503436 .459673 .988009
7 1 .498495 .443449 .017018
ITEM: TIMESTEP
300
ITEM: NUMBER OF ATOMS
7
ITEM: BOX BOUNDS ss ss ss
-3.0357 3.2419
-2.9350 3.0764
-1.8546 2.1666
ITEM: ATOMS id type xs ys zs
1 1 .502923 .992380 .483940
2 1 .991129 .614234 .486226
3 1 .816541 .009850 .542066
4 1 .207557 .008071 .500792
5 1 .005182 .621894 .525512
6 1 .503577 .458787 .988393
7 1 .498738 .445276 .016182
ITEM: TIMESTEP
350
ITEM: NUMBER OF ATOMS
7
ITEM: BOX BOUNDS ss ss ss
-3.0513 3.2419
-2.9331 3.0787
-1.8554 2.1641
ITEM: ATOMS id type xs ys zs
1 1 .504870 .992226 .481700
2 1 .988375 .613195 .477374
3 1 .814291 .014790 .549912
4 1 .209586 .009788 .503629
5 1 .008971 .618592 .509880
6 1 .504511 .462772 .989867
7 1 .499535 .442041 .007457
ITEM: TIMESTEP
400
ITEM: NUMBER OF ATOMS
7
ITEM: BOX BOUNDS ss ss ss
-3.0319 3.2419
-2.9333 3.0798
-1.8591 2.1648
ITEM: ATOMS id type xs ys zs
1 1 .504648 .992399 .483706
2 1 .988685 .615158 .477677
3 1 .808013 .011301 .548946
4 1 .206897 .005496 .501967
5 1 .009583 .615462 .517437
6 1 .500874 .458215 .992506
7 1 .497750 .446974 .017775
ITEM: TIMESTEP
1
ITEM: NUMBER OF ATOMS
7
ITEM: BOX BOUNDS ss ss ss
-3.0380 3.2373
-2.9314 3.0869
-1.8427 2.1671
ITEM: ATOMS id type xs ys zs
1 1 .500766 .990542 .475326
2 1 .990344 .613797 .476677
3 1 .815419 .010060 .550069
4 1 .209020 .007997 .502526
5 1 .008679 .615629 .513253
6 1 .503428 .458351 .984630
7 1 .497483 .442335 .007399
ITEM: TIMESTEP
50
ITEM: NUMBER OF ATOMS
7
ITEM: BOX BOUNDS ss ss ss
-3.0380 3.2373
-2.9314 3.0869
-1.8488 2.1671
ITEM: ATOMS id type xs ys zs
1 1 .502415 .988273 .475645
2 1 .991408 .612412 .479079
3 1 .815913 .010259 .555967
4 1 .209199 .006846 .505419
5 1 .008534 .616056 .511033
6 1 .502183 .458202 .983961
7 1 .497020 .441990 .008424
ITEM: TIMESTEP
100
ITEM: NUMBER OF ATOMS
7
ITEM: BOX BOUNDS ss ss ss
-3.0380 3.2373
-2.9314 3.0869
-1.8522 2.1671
ITEM: ATOMS id type xs ys zs
1 1 .506307 .988803 .473868
2 1 .990228 .613482 .477758
3 1 .816089 .009559 .556026
4 1 .209473 .007770 .506462
5 1 .007874 .615509 .511327
6 1 .501473 .457110 .982051
7 1 .495823 .442063 .009445
ITEM: TIMESTEP
150
ITEM: NUMBER OF ATOMS
7
ITEM: BOX BOUNDS ss ss ss
-3.0380 3.2373
-2.9314 3.0869
-1.8575 2.1671
ITEM: ATOMS id type xs ys zs
1 1 .506818 .989759 .472597
2 1 .988576 .613706 .475315
3 1 .814537 .010475 .552536
4 1 .210241 .008867 .504392
5 1 .007019 .615780 .514653
6 1 .502100 .455980 .981289
7 1 .496593 .442196 .010540
ITEM: TIMESTEP
200
ITEM: NUMBER OF ATOMS
7
ITEM: BOX BOUNDS ss ss ss
-3.0382 3.2373
-2.9314 3.0869
-1.8586 2.1671
ITEM: ATOMS id type xs ys zs
1 1 .498112 .991982 .472277
2 1 .994694 .613084 .481585
3 1 .814347 .010565 .553305
4 1 .209455 .004988 .499435
5 1 .005757 .615013 .516356
6 1 .506147 .460958 .980787
7 1 .495143 .441388 .012516
ITEM: TIMESTEP
250
ITEM: NUMBER OF ATOMS
7
ITEM: BOX BOUNDS ss ss ss
-3.0380 3.2373
-2.9314 3.0779
-1.8675 2.1697
ITEM: ATOMS id type xs ys zs
1 1 .498691 .991550 .474248
2 1 .992864 .611346 .478472
3 1 .814856 .011210 .553381
4 1 .207893 .010340 .497612
5 1 .007696 .617567 .523670
6 1 .506558 .459585 .986319
7 1 .501488 .443133 .015689
ITEM: TIMESTEP
300
ITEM: NUMBER OF ATOMS
7
ITEM: BOX BOUNDS ss ss ss
-3.0273 3.2373
-2.9314 3.0734
-1.8536 2.1671
ITEM: ATOMS id type xs ys zs
1 1 .498785 .991631 .474899
2 1 .998058 .613929 .471797
3 1 .808683 .008684 .556415
4 1 .204890 .011417 .498677
5 1 .009473 .613284 .511484
6 1 .502635 .461356 .986602
7 1 .500332 .442145 .013691
ITEM: TIMESTEP
350
ITEM: NUMBER OF ATOMS
7
ITEM: BOX BOUNDS ss ss ss
-3.0326 3.2443
-2.9276 3.0766
-1.8466 2.1706
ITEM: ATOMS id type xs ys zs
1 1 .496441 .991625 .480735
2 1 .989142 .617852 .473324
3 1 .810641 .011836 .547612
4 1 .205725 .009868 .504171
5 1 .009744 .612533 .519969
6 1 .503363 .459122 .989676
7 1 .500032 .442804 .009104
ITEM: TIMESTEP
400
ITEM: NUMBER OF ATOMS
7
ITEM: BOX BOUNDS ss ss ss
-3.0282 3.2485
-2.9241 3.0835
-1.8563 2.1694
ITEM: ATOMS id type xs ys zs
1 1 .496989 .989130 .483034
2 1 .986386 .616635 .471786
3 1 .810563 .014202 .551951
4 1 .204442 .008637 .504301
5 1 .011743 .611050 .519316
6 1 .501219 .459476 .994110
7 1 .497955 .441136 .009460
ITEM: TIMESTEP
1
ITEM: NUMBER OF ATOMS
7
ITEM: BOX BOUNDS ss ss ss
-3.0267 3.2424
-2.9192 3.0748
-1.8450 2.1752
ITEM: ATOMS id type xs ys zs
1 1 .499273 .992184 .474794
2 1 .989536 .614324 .476944
3 1 .814499 .008014 .549074
4 1 .207435 .006039 .501256
5 1 .006785 .615997 .512707
6 1 .502013 .457935 .983075
7 1 .496316 .441995 .007836
ITEM: TIMESTEP
50
ITEM: NUMBER OF ATOMS
7
ITEM: BOX BOUNDS ss ss ss
-3.0267 3.2424
-2.9192 3.0748
-1.8462 2.1752
ITEM: ATOMS id type xs ys zs
1 1 .501296 .992797 .475391
2 1 .988265 .615948 .476727
3 1 .814336 .008795 .552951
4 1 .204216 .005514 .500267
5 1 .005280 .615495 .514441
6 1 .502002 .455261 .982608
7 1 .493606 .443384 .008150
ITEM: TIMESTEP
100
ITEM: NUMBER OF ATOMS
7
ITEM: BOX BOUNDS ss ss ss
-3.0267 3.2424
-2.9203 3.0768
-1.8513 2.1693
ITEM: ATOMS id type xs ys zs
1 1 .499969 .991689 .477028
2 1 .987793 .612511 .475067
3 1 .815328 .006793 .552957
4 1 .209550 .003819 .500861
5 1 .007962 .615646 .514363
6 1 .501705 .457343 .985241
7 1 .492074 .440288 .012018
ITEM: TIMESTEP
150
ITEM: NUMBER OF ATOMS
7
ITEM: BOX BOUNDS ss ss ss
-3.0280 3.2424
-2.9391 3.0748
-1.8609 2.1693
ITEM: ATOMS id type xs ys zs
1 1 .499877 .992054 .477693
2 1 .990797 .614404 .474776
3 1 .816098 .011232 .550909
4 1 .209925 .008512 .501057
5 1 .006083 .616818 .520443
6 1 .502612 .460987 .977589
7 1 .494691 .442603 .013902
ITEM: TIMESTEP
200
ITEM: NUMBER OF ATOMS
7
ITEM: BOX BOUNDS ss ss ss
-3.0296 3.2424
-2.9358 3.0772
-1.8631 2.1693
ITEM: ATOMS id type xs ys zs
1 1 .500234 .992666 .475357
2 1 .991598 .614471 .472892
3 1 .816064 .011191 .554786
4 1 .209062 .006386 .496906
5 1 .005224 .618786 .518031
6 1 .500297 .460612 .981336
7 1 .496305 .440685 .012781
ITEM: TIMESTEP
250
ITEM: NUMBER OF ATOMS
7
ITEM: BOX BOUNDS ss ss ss
-3.0374 3.2424
-2.9435 3.0794
-1.8606 2.1693
ITEM: ATOMS id type xs ys zs
1 1 .502774 .992107 .479911
2 1 .991729 .618887 .480957
3 1 .817394 .012197 .557055
4 1 .209308 .011622 .502387
5 1 .008557 .616676 .518509
6 1 .506604 .458079 .981596
7 1 .501154 .446590 .013931
ITEM: TIMESTEP
300
ITEM: NUMBER OF ATOMS
7
ITEM: BOX BOUNDS ss ss ss
-3.0307 3.2424
-2.9432 3.0804
-1.8525 2.1693
ITEM: ATOMS id type xs ys zs
1 1 .500442 .991500 .479345
2 1 .989083 .610846 .484365
3 1 .813471 .008017 .561086
4 1 .207166 .008880 .498287
5 1 .007713 .610416 .512236
6 1 .504381 .458358 .983213
7 1 .499586 .443606 .010940
ITEM: TIMESTEP
350
ITEM: NUMBER OF ATOMS
7
ITEM: BOX BOUNDS ss ss ss
-3.0296 3.2424
-2.9474 3.0833
-1.8536 2.1693
ITEM: ATOMS id type xs ys zs
1 1 .502319 .992545 .479304
2 1 .986703 .609878 .484086
3 1 .814558 .006117 .561644
4 1 .207493 .009701 .495943
5 1 .007651 .613355 .511488
6 1 .501908 .459752 .986252
7 1 .499519 .443207 .010110
ITEM: TIMESTEP
400
ITEM: NUMBER OF ATOMS
7
ITEM: BOX BOUNDS ss ss ss
-3.0307 3.2403
-2.9561 3.0888
-1.8580 2.1664
ITEM: ATOMS id type xs ys zs
1 1 .497641 .992009 .480847
2 1 .994201 .615630 .479347
3 1 .816276 .017176 .552160
4 1 .208527 .010083 .495577
5 1 .008316 .614935 .515401
6 1 .504524 .466169 .992330
7 1 .502722 .448261 .021018
ITEM: TIMESTEP
1
ITEM: NUMBER OF ATOMS
7
ITEM: BOX BOUNDS ss ss ss
-3.0309 3.2409
-2.9414 3.0720
-1.8459 2.1610
ITEM: ATOMS id type xs ys zs
1 1 .499766 .992573 .476788
2 1 .989833 .616046 .478483
3 1 .814840 .011858 .551011
4 1 .207828 .009832 .503706
5 1 .007910 .617840 .514669
6 1 .502478 .460157 .986524
7 1 .496708 .444159 .008297
ITEM: TIMESTEP
50
ITEM: NUMBER OF ATOMS
7
ITEM: BOX BOUNDS ss ss ss
-3.0309 3.2409
-2.9414 3.0720
-1.8459 2.1610
ITEM: ATOMS id type xs ys zs
1 1 .499173 .992163 .478138
2 1 .988301 .614036 .480519
3 1 .815654 .009629 .552056
4 1 .209327 .011214 .499973
5 1 .007666 .617648 .515345
6 1 .502845 .458983 .987444
7 1 .495147 .443287 .007087
ITEM: TIMESTEP
100
ITEM: NUMBER OF ATOMS
7
ITEM: BOX BOUNDS ss ss ss
-3.0309 3.2409
-2.9414 3.0742
-1.8534 2.1610
ITEM: ATOMS id type xs ys zs
1 1 .501401 .995230 .476035
2 1 .989109 .612578 .477347
3 1 .814626 .010490 .555867
4 1 .208611 .010778 .506486
5 1 .007779 .616866 .514904
6 1 .500513 .458638 .984245
7 1 .498897 .442894 .008490
ITEM: TIMESTEP
150
ITEM: NUMBER OF ATOMS
7
ITEM: BOX BOUNDS ss ss ss
-3.0309 3.2403
-2.9414 3.0769
-1.8644 2.1610
ITEM: ATOMS id type xs ys zs
1 1 .500118 .995226 .479561
2 1 .987743 .615025 .477135
3 1 .815201 .009965 .559484
4 1 .209472 .012966 .507903
5 1 .005845 .619931 .517248
6 1 .502091 .461197 .988447
7 1 .496153 .446051 .011287
ITEM: TIMESTEP
200
ITEM: NUMBER OF ATOMS
7
ITEM: BOX BOUNDS ss ss ss
-3.0328 3.2403
-2.9414 3.0806
-1.8606 2.1610
ITEM: ATOMS id type xs ys zs
1 1 .495435 .990734 .479286
2 1 .993210 .616321 .476347
3 1 .813395 .011615 .555519
4 1 .203486 .008891 .499331
5 1 .006096 .616047 .521796
6 1 .501440 .460637 .993224
7 1 .495814 .442485 .014504
ITEM: TIMESTEP
250
ITEM: NUMBER OF ATOMS
7
ITEM: BOX BOUNDS ss ss ss
-3.0393 3.2403
-2.9414 3.0852
-1.8692 2.1610
ITEM: ATOMS id type xs ys zs
1 1 .500873 .989846 .475770
2 1 .988448 .618659 .481199
3 1 .818893 .012527 .546948
4 1 .209420 .008452 .504861
5 1 .007477 .613820 .523219
6 1 .504572 .461831 .989707
7 1 .493972 .444546 .013575
ITEM: TIMESTEP
300
ITEM: NUMBER OF ATOMS
7
ITEM: BOX BOUNDS ss ss ss
-3.0473 3.2403
-2.9414 3.0769
-1.8635 2.1659
ITEM: ATOMS id type xs ys zs
1 1 .500691 .992809 .478469
2 1 .988123 .617261 .476303
3 1 .811680 .011452 .560632
4 1 .205704 .007020 .497925
5 1 .013573 .614108 .519545
6 1 .506116 .460787 .983436
7 1 .499347 .441215 .010991
ITEM: TIMESTEP
350
ITEM: NUMBER OF ATOMS
7
ITEM: BOX BOUNDS ss ss ss
-3.0445 3.2403
-2.9414 3.0820
-1.8702 2.1646
ITEM: ATOMS id type xs ys zs
1 1 .500540 .993453 .472654
2 1 .992136 .617891 .476658
3 1 .811086 .010813 .564618
4 1 .207216 .009459 .496670
5 1 .011482 .610990 .523104
6 1 .503228 .463476 .986710
7 1 .494829 .444818 .015062
ITEM: TIMESTEP
400
ITEM: NUMBER OF ATOMS
7
ITEM: BOX BOUNDS ss ss ss
-3.0299 3.2403
-2.9389 3.0880
-1.8528 2.1748
ITEM: ATOMS id type xs ys zs
1 1 .501348 .988025 .470859
2 1 .992571 .619354 .464474
3 1 .810584 .014792 .555145
4 1 .203634 .007574 .501093
5 1 .006763 .616372 .522464
6 1 .503889 .458199 .988237
7 1 .496147 .439504 .017293
ITEM: TIMESTEP
450
ITEM: NUMBER OF ATOMS
7
ITEM: BOX BOUNDS ss ss ss
-3.0371 3.2423
-2.9435 3.0838
-1.8562 2.1715
ITEM: ATOMS id type xs ys zs
1 1 .498845 .990431 .469079
2 1 .990789 .612792 .472980
3 1 .811094 .012685 .555253
4 1 .209622 .007855 .496121
5 1 .007372 .618051 .524999
6 1 .502830 .460745 .982629
7 1 .497149 .440867 .012561
ITEM: TIMESTEP
500
ITEM: NUMBER OF ATOMS
7
ITEM: BOX BOUNDS ss ss ss
-3.0445 3.2408
-2.9361 3.0872
-1.8578 2.1733
ITEM: ATOMS id type xs ys zs
1 1 .499894 .989677 .480973
2 1 .989607 .614526 .473004
3 1 .810650 .011926 .555230
4 1 .203163 .009768 .495885
5 1 .007885 .619276 .524764
6 1 .501399 .458888 .988010
7 1 .496494 .441300 .018122
ITEM: TIMESTEP
550
ITEM: NUMBER OF ATOMS
7
ITEM: BOX BOUNDS ss ss ss
-3.0361 3.2409
-2.9456 3.0945
-1.8846 2.1797
ITEM: ATOMS id type xs ys zs
1 1 .498602 .989128 .486419
2 1 .987841 .614422 .476771
3 1 .812995 .012554 .561448
4 1 .203435 .011757 .495592
5 1 .006759 .619842 .527715
6 1 .501148 .457826 .986467
7 1 .496272 .439249 .023548
ITEM: TIMESTEP
600
ITEM: NUMBER OF ATOMS
7
ITEM: BOX BOUNDS ss ss ss
-3.0479 3.2424
-2.9510 3.0988
-1.8478 2.1859
ITEM: ATOMS id type xs ys zs
1 1 .501223 .994886 .476665
2 1 .993768 .615447 .463519
3 1 .809137 .019399 .548335
4 1 .208272 .006102 .491392
5 1 .010605 .608913 .509135
6 1 .500118 .464154 .979795
7 1 .498995 .440738 .018684
ITEM: TIMESTEP
650
ITEM: NUMBER OF ATOMS
7
ITEM: BOX BOUNDS ss ss ss
-3.0511 3.2467
-2.9618 3.1003
-1.8442 2.1741
ITEM: ATOMS id type xs ys zs
1 1 .498942 .988963 .475353
2 1 .996372 .618927 .471245
3 1 .811810 .019676 .552410
4 1 .205346 .007525 .494233
5 1 .011267 .610369 .513602
6 1 .505414 .462740 .980859
7 1 .498716 .442932 .015917
ITEM: TIMESTEP
1
ITEM: NUMBER OF ATOMS
7
ITEM: BOX BOUNDS ss ss ss
-3.0520 3.2486
-2.9436 3.0829
-1.8395 2.1814
ITEM: ATOMS id type xs ys zs
1 1 .500623 .991226 .472819
2 1 .988652 .615151 .474934
3 1 .814053 .011942 .547757
4 1 .210167 .009974 .500123
5 1 .011014 .616423 .510963
6 1 .503717 .459487 .981319
7 1 .497490 .443507 .006699
ITEM: TIMESTEP
50
ITEM: NUMBER OF ATOMS
7
ITEM: BOX BOUNDS ss ss ss
-3.0520 3.2486
-2.9436 3.0829
-1.8462 2.1814
ITEM: ATOMS id type xs ys zs
1 1 .500413 .991275 .475894
2 1 .988630 .611941 .476184
3 1 .815130 .009291 .549285
4 1 .211264 .011419 .501554
5 1 .011917 .618445 .513868
6 1 .503099 .459548 .981812
7 1 .496909 .444672 .005446
ITEM: TIMESTEP
100
ITEM: NUMBER OF ATOMS
7
ITEM: BOX BOUNDS ss ss ss
-3.0520 3.2486
-2.9436 3.0829
-1.8517 2.1814
ITEM: ATOMS id type xs ys zs
1 1 .501448 .989714 .479599
2 1 .991055 .614451 .473563
3 1 .813972 .011562 .545298
4 1 .209481 .013771 .499743
5 1 .007493 .615380 .514980
6 1 .503292 .460468 .981705
7 1 .494022 .445439 .014514
ITEM: TIMESTEP
150
ITEM: NUMBER OF ATOMS
7
ITEM: BOX BOUNDS ss ss ss
-3.0520 3.2486
-2.9436 3.0829
-1.8616 2.1814
ITEM: ATOMS id type xs ys zs
1 1 .501700 .989402 .483330
2 1 .990110 .613853 .473896
3 1 .815316 .013731 .549475
4 1 .211862 .011851 .498936
5 1 .006848 .618359 .513273
6 1 .504626 .461241 .981621
7 1 .494197 .444204 .021310
ITEM: TIMESTEP
200
ITEM: NUMBER OF ATOMS
7
ITEM: BOX BOUNDS ss ss ss
-3.0520 3.2456
-2.9436 3.0829
-1.8651 2.1814
ITEM: ATOMS id type xs ys zs
1 1 .500513 .989420 .477755
2 1 .989879 .611282 .466884
3 1 .814723 .010497 .552651
4 1 .210821 .012450 .501823
5 1 .011958 .614079 .524067
6 1 .505090 .460926 .983260
7 1 .496659 .449071 .009145
ITEM: TIMESTEP
250
ITEM: NUMBER OF ATOMS
7
ITEM: BOX BOUNDS ss ss ss
-3.0520 3.2456
-2.9406 3.0836
-1.8715 2.1700
ITEM: ATOMS id type xs ys zs
1 1 .498771 .993121 .473644
2 1 .990549 .611107 .477281
3 1 .817043 .012117 .553155
4 1 .218296 .006491 .502062
5 1 .010648 .616577 .515326
6 1 .504792 .461377 .983790
7 1 .498685 .445081 .011660
ITEM: TIMESTEP
300
ITEM: NUMBER OF ATOMS
7
ITEM: BOX BOUNDS ss ss ss
-3.0520 3.2437
-2.9413 3.0857
-1.8540 2.1743
ITEM: ATOMS id type xs ys zs
1 1 .500871 .988126 .481440
2 1 .990241 .616100 .471932
3 1 .819840 .012436 .556061
4 1 .208120 .006726 .499527
5 1 .010643 .613923 .514869
6 1 .500697 .457029 .984528
7 1 .499289 .441363 .013368
ITEM: TIMESTEP
350
ITEM: NUMBER OF ATOMS
7
ITEM: BOX BOUNDS ss ss ss
-3.0520 3.2430
-2.9431 3.0796
-1.8538 2.1737
ITEM: ATOMS id type xs ys zs
1 1 .499643 .989602 .480605
2 1 .995047 .614974 .471588
3 1 .814121 .014661 .566369
4 1 .211683 .011724 .495951
5 1 .009176 .613423 .520495
6 1 .503827 .462314 .983294
7 1 .501638 .442780 .012467
ITEM: TIMESTEP
400
ITEM: NUMBER OF ATOMS
7
ITEM: BOX BOUNDS ss ss ss
-3.0520 3.2446
-2.9554 3.0882
-1.8524 2.1669
ITEM: ATOMS id type xs ys zs
1 1 .498875 .988088 .479936
2 1 .994469 .614088 .474107
3 1 .812620 .018211 .566904
4 1 .210233 .015428 .494840
5 1 .008183 .613103 .523267
6 1 .501079 .462827 .984501
7 1 .501209 .442656 .012468
ITEM: TIMESTEP
450
ITEM: NUMBER OF ATOMS
7
ITEM: BOX BOUNDS ss ss ss
-3.0520 3.2459
-2.9638 3.0885
-1.8506 2.1711
ITEM: ATOMS id type xs ys zs
1 1 .491914 .992009 .479154
2 1 .989191 .615019 .474023
3 1 .816014 .011271 .560950
4 1 .212477 .009955 .501165
5 1 .005167 .613073 .509673
6 1 .502165 .460314 .982586
7 1 .497936 .442602 .017362
ITEM: TIMESTEP
500
ITEM: NUMBER OF ATOMS
7
ITEM: BOX BOUNDS ss ss ss
-3.0520 3.2441
-2.9627 3.0971
-1.8510 2.1717
ITEM: ATOMS id type xs ys zs
1 1 .491069 .990208 .481464
2 1 .990843 .614811 .471926
3 1 .817278 .009297 .563682
4 1 .215731 .010019 .502081
5 1 .003334 .611240 .511059
6 1 .499825 .460655 .982099
7 1 .498469 .443279 .018641
ITEM: TIMESTEP
550
ITEM: NUMBER OF ATOMS
7
ITEM: BOX BOUNDS ss ss ss
-3.0520 3.2537
-2.9625 3.0949
-1.8500 2.1810
ITEM: ATOMS id type xs ys zs
1 1 .500148 .996528 .476516