ITEM: TIMESTEP
1
ITEM: NUMBER OF ATOMS
7
ITEM: BOX BOUNDS ss ss ss
-2.9865 3.1813
-2.8866 3.0335
-1.8166 2.1099
ITEM: ATOMS id type xs ys zs
1 1 .500982 .999314 .478784
2 1 .999435 .616712 .480743
3 1 .821137 .002686 .554930
4 1 .204122 .000681 .506250
5 1 .000621 .617986 .517210
6 1 .503910 .458348 .999078
7 1 .497730 .441939 .001062
ITEM: TIMESTEP
50
ITEM: NUMBER OF ATOMS
7
ITEM: BOX BOUNDS ss ss ss
-3.0138 3.2078
-2.9102 3.0568
-1.8404 2.1344
ITEM: ATOMS id type xs ys zs
1 1 .500862 .995296 .480147
2 1 .996062 .615207 .482094
3 1 .817723 .006297 .550124
4 1 .205999 .004866 .507433
5 1 .005535 .616165 .515681
6 1 .504943 .459820 .992466
7 1 .498344 .442297 .007813
ITEM: TIMESTEP
100
ITEM: NUMBER OF ATOMS
7
ITEM: BOX BOUNDS ss ss ss
-3.0188 3.2134
-2.9183 3.0641
-1.8491 2.1461
ITEM: ATOMS id type xs ys zs
1 1 .499564 .989319 .476580
2 1 .997783 .617444 .476728
3 1 .815259 .010189 .544685
4 1 .206840 .005308 .504554
5 1 .005200 .615537 .511506
6 1 .502927 .458389 .990738
7 1 .498675 .442609 .007125
ITEM: TIMESTEP
150
ITEM: NUMBER OF ATOMS
7
ITEM: BOX BOUNDS ss ss ss
-3.0276 3.2273
-2.9214 3.0705
-1.8541 2.1555
ITEM: ATOMS id type xs ys zs
1 1 .499716 .991056 .478530
2 1 .991962 .618076 .480318
3 1 .815192 .012012 .547420
4 1 .205129 .009517 .504422
5 1 .005387 .616375 .511213
6 1 .502053 .458854 .987309
7 1 .499277 .442220 .010273
ITEM: TIMESTEP
200
ITEM: NUMBER OF ATOMS
7
ITEM: BOX BOUNDS ss ss ss
-3.0351 3.2272
-2.9309 3.0770
-1.8565 2.1558
ITEM: ATOMS id type xs ys zs
1 1 .499049 .990876 .476531
2 1 .996029 .618371 .481733
3 1 .816265 .009576 .549426
4 1 .208158 .007425 .507576
5 1 .009717 .613262 .514157
6 1 .506228 .460191 .990721
7 1 .500579 .440047 .014221
ITEM: TIMESTEP
250
ITEM: NUMBER OF ATOMS
7
ITEM: BOX BOUNDS ss ss ss
-3.0280 3.2308
-2.9334 3.0766
-1.8596 2.1527
ITEM: ATOMS id type xs ys zs
1 1 .499067 .991780 .479613
2 1 .991966 .618829 .484131
3 1 .814656 .013139 .541610
4 1 .206542 .009609 .503600
5 1 .006628 .615160 .508008
6 1 .501199 .457728 .986940
7 1 .499398 .440538 .011302
ITEM: TIMESTEP
300
ITEM: NUMBER OF ATOMS
7
ITEM: BOX BOUNDS ss ss ss
-3.0320 3.2286
-2.9388 3.0734
-1.8595 2.1581
ITEM: ATOMS id type xs ys zs
1 1 .498733 .991712 .475828
2 1 .991568 .619876 .481057
3 1 .814396 .015988 .539631
4 1 .206878 .010946 .504336
5 1 .008336 .613772 .504978
6 1 .501830 .460379 .984100
7 1 .499049 .442706 .010307
ITEM: TIMESTEP
350
ITEM: NUMBER OF ATOMS
7
ITEM: BOX BOUNDS ss ss ss
-3.0327 3.2352
-2.9342 3.0808
-1.8608 2.1605
ITEM: ATOMS id type xs ys zs
1 1 .498383 .990239 .476695
2 1 .992346 .616217 .484246
3 1 .814594 .014651 .543273
4 1 .206313 .008213 .506834
5 1 .007251 .610940 .501874
6 1 .501803 .461018 .985736
7 1 .499256 .440693 .011109
ITEM: TIMESTEP
400
ITEM: NUMBER OF ATOMS
7
ITEM: BOX BOUNDS ss ss ss
-3.0272 3.2407
-2.9371 3.0736
-1.8696 2.1613
ITEM: ATOMS id type xs ys zs
1 1 .499150 .992708 .478945
2 1 .992806 .619923 .486652
3 1 .813300 .017074 .543168
4 1 .204640 .008525 .508346
5 1 .005748 .614393 .505462
6 1 .499685 .461276 .985690
7 1 .499582 .442045 .019102
ITEM: TIMESTEP
1
ITEM: NUMBER OF ATOMS
7
ITEM: BOX BOUNDS ss ss ss
-3.0243 3.2318
-2.9209 3.0691
-1.8498 2.1475
ITEM: ATOMS id type xs ys zs
1 1 .499962 .993379 .478596
2 1 .991376 .615239 .480520
3 1 .815606 .008376 .553389
4 1 .207276 .006392 .505585
5 1 .006648 .616505 .516345
6 1 .502848 .458736 .989677
7 1 .496758 .442511 .009340
ITEM: TIMESTEP
50
ITEM: NUMBER OF ATOMS
7
ITEM: BOX BOUNDS ss ss ss
-3.0243 3.2318
-2.9209 3.0619
-1.8498 2.1475
ITEM: ATOMS id type xs ys zs
1 1 .499940 .995237 .477894
2 1 .992293 .616864 .479938
3 1 .814676 .009779 .550951
4 1 .206432 .006288 .506871
5 1 .005847 .615196 .515276
6 1 .502062 .460108 .990754
7 1 .496795 .442525 .009805
ITEM: TIMESTEP
100
ITEM: NUMBER OF ATOMS
7
ITEM: BOX BOUNDS ss ss ss
-3.0243 3.2318
-2.9226 3.0708
-1.8498 2.1475
ITEM: ATOMS id type xs ys zs
1 1 .500722 .994307 .478963
2 1 .993277 .616041 .479371
3 1 .815339 .011355 .549891
4 1 .205813 .005533 .508160
5 1 .006076 .612553 .516167
6 1 .504208 .461114 .993048
7 1 .497478 .440912 .010895
ITEM: TIMESTEP
150
ITEM: NUMBER OF ATOMS
7
ITEM: BOX BOUNDS ss ss ss
-3.0243 3.2318
-2.9209 3.0769
-1.8541 2.1492
ITEM: ATOMS id type xs ys zs
1 1 .500557 .989486 .473984
2 1 .991255 .613656 .482988
3 1 .815762 .008998 .551394
4 1 .201875 .007418 .510297
5 1 .006051 .611872 .515973
6 1 .501204 .458478 .990421
7 1 .499611 .437130 .015116
ITEM: TIMESTEP
200
ITEM: NUMBER OF ATOMS
7
ITEM: BOX BOUNDS ss ss ss
-3.0357 3.2318
-2.9222 3.0723
-1.8557 2.1562
ITEM: ATOMS id type xs ys zs
1 1 .503281 .990399 .476911
2 1 .993983 .615539 .482712
3 1 .815668 .007927 .549020
4 1 .205442 .006010 .509229
5 1 .008292 .615244 .513575
6 1 .505172 .458714 .988571
7 1 .500560 .439672 .015848
ITEM: TIMESTEP
250
ITEM: NUMBER OF ATOMS
7
ITEM: BOX BOUNDS ss ss ss
-3.0431 3.2366
-2.9290 3.0734
-1.8498 2.1600
ITEM: ATOMS id type xs ys zs
1 1 .501770 .991333 .474958
2 1 .992795 .615507 .479922
3 1 .815230 .011040 .547543
4 1 .205565 .009977 .509161
5 1 .009769 .615302 .513485
6 1 .504593 .460913 .989399
7 1 .499708 .439274 .014820
ITEM: TIMESTEP
300
ITEM: NUMBER OF ATOMS
7
ITEM: BOX BOUNDS ss ss ss
-3.0423 3.2458
-2.9238 3.0698
-1.8498 2.1621
ITEM: ATOMS id type xs ys zs
1 1 .500315 .991968 .472130
2 1 .991826 .617161 .479226
3 1 .811282 .012209 .547851
4 1 .204150 .008969 .507271
5 1 .009034 .615816 .510300
6 1 .502150 .461817 .988396
7 1 .499954 .439951 .013005
ITEM: TIMESTEP
350
ITEM: NUMBER OF ATOMS
7
ITEM: BOX BOUNDS ss ss ss
-3.0361 3.2444
-2.9310 3.0776
-1.8560 2.1631
ITEM: ATOMS id type xs ys zs
1 1 .500835 .992915 .476785
2 1 .993143 .618794 .477349
3 1 .812228 .013984 .544403
4 1 .205372 .009225 .511237
5 1 .008489 .613003 .512705
6 1 .504864 .461609 .988515
7 1 .499056 .441245 .015093
ITEM: TIMESTEP
400
ITEM: NUMBER OF ATOMS
7
ITEM: BOX BOUNDS ss ss ss
-3.0414 3.2576
-2.9333 3.0934
-1.8536 2.1674
ITEM: ATOMS id type xs ys zs
1 1 .499654 .988980 .471940
2 1 .989997 .615575 .482898
3 1 .809396 .014338 .542671
4 1 .204525 .010339 .508572
5 1 .008072 .612955 .510578
6 1 .501855 .460243 .987739
7 1 .498924 .437808 .015212
ITEM: TIMESTEP
1
ITEM: NUMBER OF ATOMS
7
ITEM: BOX BOUNDS ss ss ss
-3.0274 3.2424
-2.9258 3.0655
-1.8469 2.1524
ITEM: ATOMS id type xs ys zs
1 1 .499347 .993972 .477634
2 1 .989704 .615925 .479563
3 1 .814309 .009202 .552385
4 1 .207323 .007219 .504610
5 1 .007121 .617182 .515360
6 1 .502236 .459450 .988464
7 1 .496170 .443231 .008606
ITEM: TIMESTEP
50
ITEM: NUMBER OF ATOMS
7
ITEM: BOX BOUNDS ss ss ss
-3.0274 3.2424
-2.9258 3.0655
-1.8469 2.1524
ITEM: ATOMS id type xs ys zs
1 1 .500260 .993857 .479371
2 1 .990562 .616667 .477142
3 1 .813464 .009967 .549623
4 1 .206227 .007171 .504585
5 1 .008060 .615485 .515460
6 1 .504452 .460467 .991575
7 1 .497466 .442619 .009032
ITEM: TIMESTEP
100
ITEM: NUMBER OF ATOMS
7
ITEM: BOX BOUNDS ss ss ss
-3.0270 3.2424
-2.9258 3.0686
-1.8615 2.1524
ITEM: ATOMS id type xs ys zs
1 1 .498910 .993551 .479201
2 1 .990930 .615462 .481419
3 1 .812606 .011307 .547296
4 1 .205850 .006553 .506263
5 1 .005028 .614096 .516027
6 1 .500442 .458111 .989653
7 1 .498141 .443308 .012460
ITEM: TIMESTEP
150
ITEM: NUMBER OF ATOMS
7
ITEM: BOX BOUNDS ss ss ss
-3.0270 3.2424
-2.9258 3.0744
-1.8516 2.1520
ITEM: ATOMS id type xs ys zs
1 1 .500020 .991336 .481220
2 1 .991443 .614770 .480656
3 1 .811811 .010861 .544890
4 1 .205849 .007261 .505804
5 1 .006752 .614092 .515369
6 1 .499969 .458043 .990559
7 1 .499735 .442853 .010515
ITEM: TIMESTEP
200
ITEM: NUMBER OF ATOMS
7
ITEM: BOX BOUNDS ss ss ss
-3.0274 3.2424
-2.9315 3.0860
-1.8539 2.1604
ITEM: ATOMS id type xs ys zs
1 1 .498841 .989301 .477705
2 1 .990921 .614333 .480876
3 1 .811637 .011039 .542860
4 1 .206465 .008828 .503897
5 1 .006496 .610938 .511900
6 1 .500946 .459900 .987884
7 1 .499020 .440730 .009208
ITEM: TIMESTEP
250
ITEM: NUMBER OF ATOMS
7
ITEM: BOX BOUNDS ss ss ss
-3.0316 3.2424
-2.9305 3.0744
-1.8511 2.1598
ITEM: ATOMS id type xs ys zs
1 1 .500218 .991989 .477313
2 1 .992047 .615601 .481048
3 1 .811450 .011267 .539313
4 1 .207469 .007274 .505566
5 1 .007840 .611598 .511114
6 1 .502512 .461084 .988788
7 1 .499560 .440518 .008729
ITEM: TIMESTEP
300
ITEM: NUMBER OF ATOMS
7
ITEM: BOX BOUNDS ss ss ss
-3.0301 3.2424
-2.9264 3.0740
-1.8498 2.1602
ITEM: ATOMS id type xs ys zs
1 1 .499386 .991293 .477950
2 1 .992200 .614446 .480572
3 1 .810353 .011075 .537287
4 1 .206868 .007225 .506404
5 1 .007226 .611468 .508353
6 1 .502130 .459959 .987270
7 1 .500391 .440730 .008535
ITEM: TIMESTEP
350
ITEM: NUMBER OF ATOMS
7
ITEM: BOX BOUNDS ss ss ss
-3.0308 3.2424
-2.9328 3.0712
-1.8642 2.1621
ITEM: ATOMS id type xs ys zs
1 1 .499514 .991034 .478802
2 1 .992550 .615069 .480389
3 1 .810966 .011242 .537109
4 1 .205711 .008118 .509678
5 1 .007943 .613166 .507541
6 1 .502436 .460460 .986726
7 1 .500984 .439634 .011861
ITEM: TIMESTEP
400
ITEM: NUMBER OF ATOMS
7
ITEM: BOX BOUNDS ss ss ss
-3.0288 3.2434
-2.9327 3.0734
-1.8663 2.1669
ITEM: ATOMS id type xs ys zs
1 1 .496555 .990216 .477803
2 1 .995813 .614976 .482216
3 1 .810972 .011120 .537502
4 1 .205117 .008677 .507273
5 1 .007079 .610933 .506294
6 1 .502153 .460271 .983945
7 1 .502213 .440327 .015449
ITEM: TIMESTEP
1
ITEM: NUMBER OF ATOMS
7
ITEM: BOX BOUNDS ss ss ss
-3.0270 3.2424
-2.9329 3.0649
-1.8501 2.1576
ITEM: ATOMS id type xs ys zs
1 1 .499326 .994085 .477443
2 1 .989694 .616438 .479344
3 1 .814299 .010365 .552031
4 1 .207267 .008388 .504356
5 1 .007066 .617696 .515078
6 1 .502210 .460134 .987197
7 1 .496130 .443930 .009400
ITEM: TIMESTEP
50
ITEM: NUMBER OF ATOMS
7
ITEM: BOX BOUNDS ss ss ss
-3.0270 3.2424
-2.9329 3.0649
-1.8501 2.1576
ITEM: ATOMS id type xs ys zs
1 1 .500618 .994115 .477334
2 1 .991281 .615796 .479863
3 1 .813590 .011733 .548559
4 1 .206762 .006874 .505026
5 1 .007342 .617291 .513100
6 1 .502751 .459376 .985839
7 1 .497040 .444157 .011875
ITEM: TIMESTEP
100
ITEM: NUMBER OF ATOMS
7
ITEM: BOX BOUNDS ss ss ss
-3.0270 3.2424
-2.9329 3.0695
-1.8558 2.1576
ITEM: ATOMS id type xs ys zs
1 1 .500521 .993830 .476707
2 1 .992820 .614918 .480293
3 1 .813945 .010937 .547729
4 1 .206801 .009433 .500702
5 1 .006332 .617438 .511914
6 1 .503176 .460412 .985311
7 1 .498202 .443373 .014691
ITEM: TIMESTEP
150
ITEM: NUMBER OF ATOMS
7
ITEM: BOX BOUNDS ss ss ss
-3.0270 3.2424
-2.9329 3.0753
-1.8567 2.1576
ITEM: ATOMS id type xs ys zs
1 1 .500863 .993015 .476865
2 1 .993659 .612078 .478748
3 1 .812629 .009487 .547923
4 1 .206506 .009357 .503460
5 1 .007870 .616625 .511765
6 1 .505127 .461938 .985962
7 1 .499231 .442278 .013494
ITEM: TIMESTEP
200
ITEM: NUMBER OF ATOMS
7
ITEM: BOX BOUNDS ss ss ss
-3.0291 3.2424
-2.9329 3.0784
-1.8556 2.1576
ITEM: ATOMS id type xs ys zs
1 1 .503012 .991753 .473304
2 1 .994874 .612423 .476730
3 1 .814419 .008816 .545840
4 1 .207485 .010536 .501639
5 1 .008154 .615135 .508690
6 1 .503662 .462183 .985509
7 1 .500466 .441017 .012953
ITEM: TIMESTEP
250
ITEM: NUMBER OF ATOMS
7
ITEM: BOX BOUNDS ss ss ss
-3.0321 3.2426
-2.9343 3.0835
-1.8561 2.1576
ITEM: ATOMS id type xs ys zs
1 1 .502125 .990617 .476880
2 1 .994929 .613116 .474439
3 1 .814397 .009847 .545891
4 1 .206991 .009753 .502367
5 1 .009194 .614782 .510016
6 1 .503998 .460185 .986745
7 1 .500195 .440471 .015307
ITEM: TIMESTEP
300
ITEM: NUMBER OF ATOMS
7
ITEM: BOX BOUNDS ss ss ss
-3.0408 3.2424
-2.9343 3.0825
-1.8520 2.1563
ITEM: ATOMS id type xs ys zs
1 1 .504577 .989869 .481096
2 1 .995551 .611317 .480552
3 1 .813489 .010040 .547396
4 1 .204959 .007755 .504715
5 1 .010351 .612251 .512078
6 1 .506592 .460051 .984171
7 1 .500809 .439391 .015380
ITEM: TIMESTEP
350
ITEM: NUMBER OF ATOMS
7
ITEM: BOX BOUNDS ss ss ss
-3.0332 3.2501
-2.9428 3.0905
-1.8544 2.1602
ITEM: ATOMS id type xs ys zs
1 1 .503287 .989481 .480263
2 1 .994934 .612297 .483324
3 1 .813819 .011829 .546595
4 1 .203323 .008954 .507805
5 1 .008685 .609887 .513672
6 1 .504686 .459414 .987420
7 1 .499029 .439595 .017749
ITEM: TIMESTEP
400
ITEM: NUMBER OF ATOMS
7
ITEM: BOX BOUNDS ss ss ss
-3.0351 3.2506
-2.9391 3.0834
-1.8490 2.1531
ITEM: ATOMS id type xs ys zs
1 1 .501641 .991188 .481525
2 1 .993042 .614286 .481551
3 1 .811765 .012095 .546066
4 1 .202851 .008310 .506178
5 1 .009609 .611212 .511359
6 1 .504087 .458775 .989881
7 1 .499089 .439843 .015186
ITEM: TIMESTEP
1
ITEM: NUMBER OF ATOMS
7
ITEM: BOX BOUNDS ss ss ss
-3.0284 3.2473
-2.9266 3.0822
-1.8374 2.1450
ITEM: ATOMS id type xs ys zs
1 1 .499042 .991210 .477269
2 1 .988929 .614268 .479208
3 1 .813715 .009304 .552329
4 1 .207271 .007320 .504361
5 1 .007271 .615519 .515152
6 1 .501926 .458247 .990260
7 1 .495860 .442067 .006268
ITEM: TIMESTEP
50
ITEM: NUMBER OF ATOMS
7
ITEM: BOX BOUNDS ss ss ss
-3.0284 3.2473
-2.9266 3.0822
-1.8393 2.1450
ITEM: ATOMS id type xs ys zs
1 1 .500919 .990357 .481885
2 1 .989455 .612781 .480738
3 1 .811614 .010186 .545489
4 1 .204909 .007350 .503672
5 1 .006857 .617352 .516251
6 1 .502946 .458125 .991002
7 1 .496886 .440779 .008338
ITEM: TIMESTEP
100
ITEM: NUMBER OF ATOMS
7
ITEM: BOX BOUNDS ss ss ss
-3.0284 3.2473
-2.9266 3.0822
-1.8562 2.1450
ITEM: ATOMS id type xs ys zs
1 1 .499969 .991171 .485569
2 1 .990374 .612828 .482986
3 1 .812040 .011374 .544011
4 1 .204734 .007012 .504000
5 1 .006752 .617036 .520611
6 1 .501087 .457201 .992244
7 1 .497398 .441711 .015479
ITEM: TIMESTEP
150
ITEM: NUMBER OF ATOMS
7
ITEM: BOX BOUNDS ss ss ss
-3.0284 3.2473
-2.9266 3.0822
-1.8519 2.1490
ITEM: ATOMS id type xs ys zs
1 1 .499762 .992824 .484925
2 1 .990915 .613200 .481826
3 1 .810907 .012079 .541597
4 1 .204400 .005972 .502913
5 1 .007278 .616599 .520952
6 1 .502063 .457567 .991551
7 1 .495937 .442438 .016257
ITEM: TIMESTEP
200
ITEM: NUMBER OF ATOMS
7
ITEM: BOX BOUNDS ss ss ss
-3.0286 3.2473
-2.9327 3.0930
-1.8617 2.1585
ITEM: ATOMS id type xs ys zs
1 1 .501294 .989903 .484474
2 1 .990604 .614980 .483916
3 1 .810001 .011731 .542452
4 1 .205344 .008799 .505319
5 1 .007218 .617085 .517195
6 1 .500487 .456347 .989812
7 1 .496966 .443954 .015485
ITEM: TIMESTEP
250
ITEM: NUMBER OF ATOMS
7
ITEM: BOX BOUNDS ss ss ss
-3.0392 3.2473
-2.9301 3.0779
-1.8591 2.1688
ITEM: ATOMS id type xs ys zs
1 1 .503447 .989818 .480785
2 1 .991227 .613955 .478685
3 1 .809170 .011495 .538721
4 1 .203150 .006644 .503105
5 1 .009618 .616206 .521053
6 1 .503093 .456274 .988572
7 1 .494267 .442503 .017561
ITEM: TIMESTEP
300
ITEM: NUMBER OF ATOMS
7
ITEM: BOX BOUNDS ss ss ss
-3.0357 3.2419
-2.9350 3.0764
-1.8546 2.1666
ITEM: ATOMS id type xs ys zs
1 1 .500455 .990905 .484300
2 1 .992292 .615011 .482054
3 1 .809664 .011423 .539040
4 1 .204066 .009935 .504132
5 1 .008851 .618396 .515838
6 1 .501752 .455643 .992134
7 1 .497499 .444591 .016648
ITEM: TIMESTEP
350
ITEM: NUMBER OF ATOMS
7
ITEM: BOX BOUNDS ss ss ss
-3.0513 3.2419
-2.9331 3.0787
-1.8554 2.1641
ITEM: ATOMS id type xs ys zs
1 1 .502400 .991327 .487095
2 1 .992768 .613998 .482288
3 1 .812111 .012814 .535354
4 1 .207503 .009953 .506276
5 1 .009454 .617694 .518849
6 1 .504366 .457232 .990265
7 1 .497753 .446290 .020597
ITEM: TIMESTEP
400
ITEM: NUMBER OF ATOMS
7
ITEM: BOX BOUNDS ss ss ss
-3.0319 3.2419
-2.9333 3.0798
-1.8591 2.1648
ITEM: ATOMS id type xs ys zs
1 1 .498143 .987595 .487883
2 1 .992157 .615881 .486820
3 1 .812128 .012729 .535272
4 1 .202538 .006283 .500793
5 1 .008042 .616925 .516101
6 1 .500092 .452766 .990559
7 1 .498568 .443238 .017876
ITEM: TIMESTEP
1
ITEM: NUMBER OF ATOMS
7
ITEM: BOX BOUNDS ss ss ss
-3.0380 3.2373
-2.9314 3.0869
-1.8427 2.1671
ITEM: ATOMS id type xs ys zs
1 1 .500602 .990447 .475331
2 1 .990522 .614087 .477251
3 1 .815292 .010095 .549895
4 1 .208818 .008112 .502247
5 1 .008797 .615341 .512975
6 1 .503484 .458319 .984837
7 1 .497417 .442173 .007541
ITEM: TIMESTEP
50
ITEM: NUMBER OF ATOMS
7
ITEM: BOX BOUNDS ss ss ss
-3.0380 3.2373
-2.9314 3.0869
-1.8488 2.1671
ITEM: ATOMS id type xs ys zs
1 1 .500496 .990940 .476750
2 1 .990135 .614468 .478694
3 1 .813979 .009700 .547551
4 1 .208528 .008088 .505639
5 1 .008331 .614185 .513169
6 1 .504172 .457697 .986708
7 1 .497028 .441524 .010139
ITEM: TIMESTEP
100
ITEM: NUMBER OF ATOMS
7
ITEM: BOX BOUNDS ss ss ss
-3.0380 3.2373
-2.9314 3.0869
-1.8522 2.1671
ITEM: ATOMS id type xs ys zs
1 1 .501166 .991884 .478192
2 1 .989818 .612068 .478570
3 1 .814754 .010460 .543690
4 1 .209788 .011585 .508000
5 1 .008484 .616827 .514876
6 1 .503584 .460523 .987640
7 1 .498792 .442887 .014684
ITEM: TIMESTEP
150
ITEM: NUMBER OF ATOMS
7
ITEM: BOX BOUNDS ss ss ss
-3.0380 3.2373
-2.9314 3.0869
-1.8575 2.1671
ITEM: ATOMS id type xs ys zs
1 1 .501267 .988922 .479448
2 1 .990575 .612521 .477558
3 1 .813065 .006903 .547889
4 1 .208002 .007473 .508187
5 1 .009647 .614748 .513423
6 1 .505995 .455332 .987226
7 1 .498707 .441709 .014789
ITEM: TIMESTEP
200
ITEM: NUMBER OF ATOMS
7
ITEM: BOX BOUNDS ss ss ss
-3.0382 3.2373
-2.9314 3.0869
-1.8586 2.1671
ITEM: ATOMS id type xs ys zs
1 1 .498952 .991548 .476342
2 1 .993216 .616559 .481013
3 1 .812402 .012413 .548435
4 1 .206220 .010480 .504023
5 1 .009990 .615744 .515961
6 1 .504689 .460733 .987880
7 1 .500362 .443513 .011809
ITEM: TIMESTEP
250
ITEM: NUMBER OF ATOMS
7
ITEM: BOX BOUNDS ss ss ss
-3.0380 3.2373
-2.9314 3.0779
-1.8675 2.1697
ITEM: ATOMS id type xs ys zs
1 1 .500402 .992556 .476487
2 1 .992988 .618270 .482460
3 1 .811873 .012304 .547885
4 1 .206639 .009808 .505062
5 1 .008207 .612658 .516944
6 1 .504966 .459160 .990878
7 1 .500733 .442317 .017113
ITEM: TIMESTEP
300
ITEM: NUMBER OF ATOMS
7
ITEM: BOX BOUNDS ss ss ss
-3.0273 3.2373
-2.9314 3.0734
-1.8536 2.1671
ITEM: ATOMS id type xs ys zs
1 1 .500385 .993863 .476247
2 1 .991874 .620056 .482172
3 1 .811460 .013193 .544052
4 1 .203555 .010931 .504713
5 1 .006311 .611629 .514330
6 1 .503200 .460149 .988334
7 1 .499973 .441604 .014925
ITEM: TIMESTEP
350
ITEM: NUMBER OF ATOMS
7
ITEM: BOX BOUNDS ss ss ss
-3.0326 3.2443
-2.9276 3.0766
-1.8466 2.1706
ITEM: ATOMS id type xs ys zs
1 1 .500399 .993912 .477184
2 1 .991344 .617837 .478025
3 1 .809382 .012969 .542852
4 1 .201607 .010116 .504160
5 1 .007263 .609637 .510248
6 1 .504313 .462366 .986221
7 1 .499923 .440575 .012905
ITEM: TIMESTEP
400
ITEM: NUMBER OF ATOMS
7
ITEM: BOX BOUNDS ss ss ss
-3.0282 3.2485
-2.9241 3.0835
-1.8563 2.1694
ITEM: ATOMS id type xs ys zs
1 1 .499655 .991584 .480501
2 1 .990155 .617410 .478459
3 1 .808697 .013915 .544081
4 1 .201923 .008677 .507076
5 1 .006781 .609030 .509818
6 1 .503814 .460618 .988080
7 1 .500074 .440652 .014195
ITEM: TIMESTEP
1
ITEM: NUMBER OF ATOMS
7
ITEM: BOX BOUNDS ss ss ss
-3.0267 3.2424
-2.9192 3.0748
-1.8450 2.1752
ITEM: ATOMS id type xs ys zs
1 1 .499314 .992429 .474692
2 1 .989702 .614559 .476597
3 1 .814291 .008103 .549037
4 1 .207239 .006107 .501519
5 1 .007021 .615813 .512197
6 1 .502183 .458152 .982857
7 1 .496118 .441931 .008098
ITEM: TIMESTEP
50
ITEM: NUMBER OF ATOMS
7
ITEM: BOX BOUNDS ss ss ss
-3.0267 3.2424
-2.9192 3.0748
-1.8462 2.1752
ITEM: ATOMS id type xs ys zs
1 1 .498611 .992468 .475002
2 1 .990703 .615353 .476402
3 1 .812457 .009344 .545577
4 1 .206515 .005666 .499738
5 1 .007469 .616365 .511631
6 1 .501278 .458966 .982649
7 1 .497832 .441993 .007502
ITEM: TIMESTEP
100
ITEM: NUMBER OF ATOMS
7
ITEM: BOX BOUNDS ss ss ss
-3.0267 3.2424
-2.9203 3.0768
-1.8513 2.1693
ITEM: ATOMS id type xs ys zs
1 1 .500708 .991768 .475961
2 1 .990850 .616340 .476696
3 1 .813392 .010179 .548571
4 1 .205647 .005816 .502723
5 1 .008194 .614166 .511844
6 1 .500073 .458573 .984566
7 1 .497624 .439257 .013644
ITEM: TIMESTEP
150
ITEM: NUMBER OF ATOMS
7
ITEM: BOX BOUNDS ss ss ss
-3.0280 3.2424
-2.9391 3.0748
-1.8609 2.1693
ITEM: ATOMS id type xs ys zs
1 1 .501537 .992252 .477023
2 1 .990247 .617386 .478635
3 1 .812768 .011942 .546799
4 1 .206311 .009053 .503682
5 1 .009539 .615606 .513701
6 1 .501145 .459651 .983426
7 1 .499341 .440960 .016410
ITEM: TIMESTEP
200
ITEM: NUMBER OF ATOMS
7
ITEM: BOX BOUNDS ss ss ss
-3.0296 3.2424
-2.9358 3.0772
-1.8631 2.1693
ITEM: ATOMS id type xs ys zs
1 1 .501789 .990463 .475136
2 1 .992170 .616781 .478909
3 1 .814004 .011046 .547133
4 1 .205500 .009093 .503229
5 1 .007622 .616837 .514130
6 1 .501548 .460282 .985203
7 1 .500887 .440614 .019560
ITEM: TIMESTEP
250
ITEM: NUMBER OF ATOMS
7
ITEM: BOX BOUNDS ss ss ss
-3.0374 3.2424
-2.9435 3.0794
-1.8606 2.1693
ITEM: ATOMS id type xs ys zs
1 1 .499981 .990914 .476302
2 1 .993150 .617552 .477521
3 1 .814202 .013210 .546518
4 1 .208319 .010426 .503407
5 1 .010483 .616514 .511482
6 1 .503352 .462163 .986369
7 1 .501268 .441821 .016641
ITEM: TIMESTEP
300
ITEM: NUMBER OF ATOMS
7
ITEM: BOX BOUNDS ss ss ss
-3.0307 3.2424
-2.9432 3.0804
-1.8525 2.1693
ITEM: ATOMS id type xs ys zs
1 1 .496818 .990796 .477424
2 1 .994542 .616832 .476105
3 1 .813399 .015674 .544325
4 1 .208616 .011935 .503296
5 1 .009663 .613770 .508452
6 1 .503013 .461075 .989138
7 1 .499161 .442211 .012556
ITEM: TIMESTEP
350
ITEM: NUMBER OF ATOMS
7
ITEM: BOX BOUNDS ss ss ss
-3.0296 3.2424
-2.9474 3.0833
-1.8536 2.1693
ITEM: ATOMS id type xs ys zs
1 1 .499380 .987225 .480872
2 1 .992742 .615008 .477333
3 1 .813545 .014611 .543529
4 1 .209559 .012316 .506742
5 1 .009717 .613877 .512101
6 1 .504877 .461057 .988274
7 1 .501443 .442041 .015106
ITEM: TIMESTEP
400
ITEM: NUMBER OF ATOMS
7
ITEM: BOX BOUNDS ss ss ss
-3.0307 3.2403
-2.9561 3.0888
-1.8580 2.1664
ITEM: ATOMS id type xs ys zs
1 1 .500068 .988633 .476655
2 1 .994650 .615759 .477632
3 1 .811548 .015797 .545879
4 1 .207690 .009884 .503768
5 1 .009178 .614991 .508428
6 1 .505786 .462607 .985259
7 1 .500653 .441718 .015535
ITEM: TIMESTEP
1
ITEM: NUMBER OF ATOMS
7
ITEM: BOX BOUNDS ss ss ss
-3.0309 3.2409
-2.9414 3.0720
-1.8459 2.1610
ITEM: ATOMS id type xs ys zs
1 1 .499758 .992906 .476485
2 1 .989944 .616255 .478393
3 1 .814614 .011767 .551088
4 1 .207815 .009785 .503390
5 1 .007681 .617508 .514126
6 1 .502636 .460361 .986332
7 1 .496565 .444193 .008336
ITEM: TIMESTEP
50
ITEM: NUMBER OF ATOMS
7
ITEM: BOX BOUNDS ss ss ss
-3.0309 3.2409
-2.9414 3.0720
-1.8459 2.1610
ITEM: ATOMS id type xs ys zs
1 1 .499133 .991329 .475269
2 1 .990477 .616074 .478631
3 1 .814694 .012219 .548490
4 1 .208162 .009974 .500995
5 1 .006681 .616439 .513487
6 1 .502043 .460182 .988579
7 1 .497883 .442932 .010433
ITEM: TIMESTEP
100
ITEM: NUMBER OF ATOMS
7
ITEM: BOX BOUNDS ss ss ss
-3.0309 3.2409
-2.9414 3.0742
-1.8534 2.1610
ITEM: ATOMS id type xs ys zs
1 1 .499297 .992645 .475801
2 1 .992130 .617356 .482365
3 1 .815304 .011126 .546687
4 1 .207273 .009946 .502291
5 1 .009052 .616763 .512701
6 1 .504055 .460474 .989189
7 1 .497042 .443296 .009841
ITEM: TIMESTEP
150
ITEM: NUMBER OF ATOMS
7
ITEM: BOX BOUNDS ss ss ss
-3.0309 3.2403
-2.9414 3.0769
-1.8644 2.1610
ITEM: ATOMS id type xs ys zs
1 1 .499337 .992279 .477705
2 1 .990257 .618336 .481327
3 1 .813227 .012591 .553391
4 1 .205330 .009238 .506356
5 1 .006960 .617637 .516039
6 1 .504076 .460159 .987212
7 1 .496505 .442853 .016682
ITEM: TIMESTEP
200
ITEM: NUMBER OF ATOMS
7
ITEM: BOX BOUNDS ss ss ss
-3.0328 3.2403
-2.9414 3.0806
-1.8606 2.1610
ITEM: ATOMS id type xs ys zs
1 1 .499746 .991235 .476723
2 1 .990995 .618385 .478601
3 1 .811336 .012467 .552352
4 1 .205454 .010150 .505499
5 1 .010117 .613797 .518683
6 1 .503786 .460831 .986467
7 1 .498509 .443229 .012411
ITEM: TIMESTEP
250
ITEM: NUMBER OF ATOMS
7
ITEM: BOX BOUNDS ss ss ss
-3.0393 3.2403
-2.9414 3.0852
-1.8692 2.1610
ITEM: ATOMS id type xs ys zs
1 1 .500618 .991522 .475492
2 1 .991278 .616532 .479772
3 1 .811080 .014046 .555449
4 1 .204785 .009514 .504842
5 1 .009345 .614783 .520566
6 1 .503450 .460497 .990196
7 1 .498971 .442156 .018718
ITEM: TIMESTEP
300
ITEM: NUMBER OF ATOMS
7
ITEM: BOX BOUNDS ss ss ss
-3.0473 3.2403
-2.9414 3.0769
-1.8635 2.1659
ITEM: ATOMS id type xs ys zs
1 1 .497666 .992602 .475373
2 1 .991491 .614796 .478021
3 1 .812656 .013744 .556077
4 1 .205164 .008472 .506090
5 1 .010500 .614554 .516678
6 1 .503472 .460844 .988232
7 1 .499797 .441427 .019010
ITEM: TIMESTEP
350
ITEM: NUMBER OF ATOMS
7
ITEM: BOX BOUNDS ss ss ss
-3.0445 3.2403
-2.9414 3.0820
-1.8702 2.1646
ITEM: ATOMS id type xs ys zs
1 1 .499077 .992441 .478632
2 1 .995033 .618812 .477118
3 1 .813029 .016436 .552332
4 1 .205245 .013648 .507433
5 1 .007585 .616297 .519756
6 1 .504963 .463662 .993142
7 1 .501241 .444228 .016401
ITEM: TIMESTEP
400
ITEM: NUMBER OF ATOMS
7
ITEM: BOX BOUNDS ss ss ss
-3.0299 3.2403
-2.9389 3.0880
-1.8528 2.1748
ITEM: ATOMS id type xs ys zs
1 1 .498102 .990440 .475813
2 1 .993936 .617788 .473026
3 1 .812740 .015024 .550006
4 1 .202906 .012952 .505105
5 1 .005938 .613288 .517926
6 1 .501748 .464603 .991711
7 1 .499506 .442771 .014475
ITEM: TIMESTEP
450
ITEM: NUMBER OF ATOMS
7
ITEM: BOX BOUNDS ss ss ss
-3.0371 3.2423
-2.9435 3.0838
-1.8562 2.1715
ITEM: ATOMS id type xs ys zs
1 1 .499493 .992135 .474087
2 1 .991990 .616518 .474777
3 1 .812411 .014103 .550328
4 1 .204217 .007286 .500931
5 1 .007280 .608753 .510834
6 1 .500899 .460048 .985905
7 1 .499154 .443110 .020021
ITEM: TIMESTEP
500
ITEM: NUMBER OF ATOMS
7
ITEM: BOX BOUNDS ss ss ss
-3.0445 3.2408
-2.9361 3.0872
-1.8578 2.1733
ITEM: ATOMS id type xs ys zs
1 1 .500572 .991787 .475338
2 1 .994064 .616406 .473831
3 1 .811334 .012341 .550708
4 1 .205923 .008966 .501333
5 1 .006638 .609928 .511397
6 1 .502577 .460788 .983649
7 1 .500308 .443170 .017904
ITEM: TIMESTEP
550
ITEM: NUMBER OF ATOMS
7
ITEM: BOX BOUNDS ss ss ss
-3.0361 3.2409
-2.9456 3.0945
-1.8846 2.1797
ITEM: ATOMS id type xs ys zs
1 1 .499807 .991032 .476584
2 1 .993086 .617904 .477917
3 1 .811832 .013550 .552387
4 1 .203278 .006874 .503741
5 1 .007167 .609068 .511767
6 1 .501490 .460784 .980727
7 1 .498501 .441443 .026559
ITEM: TIMESTEP
600
ITEM: NUMBER OF ATOMS
7
ITEM: BOX BOUNDS ss ss ss
-3.0479 3.2424
-2.9510 3.0988
-1.8478 2.1859
ITEM: ATOMS id type xs ys zs
1 1 .501018 .988927 .469970
2 1 .993955 .616290 .473533
3 1 .809112 .015787 .546519
4 1 .204810 .011533 .500067
5 1 .008113 .607062 .504693
6 1 .502402 .461738 .980652
7 1 .503353 .443033 .014063
ITEM: TIMESTEP
650
ITEM: NUMBER OF ATOMS
7
ITEM: BOX BOUNDS ss ss ss
-3.0511 3.2467
-2.9618 3.1003
-1.8442 2.1741
ITEM: ATOMS id type xs ys zs
1 1 .500654 .988676 .471898
2 1 .993581 .617546 .473482
3 1 .809542 .018310 .546384
4 1 .205669 .013903 .499725
5 1 .008403 .608594 .505326
6 1 .504491 .462461 .983904
7 1 .503265 .442365 .014063
ITEM: TIMESTEP
1
ITEM: NUMBER OF ATOMS
7
ITEM: BOX BOUNDS ss ss ss
-3.0520 3.2486
-2.9436 3.0829
-1.8395 2.1814
ITEM: ATOMS id type xs ys zs
1 1 .500814 .991117 .473228
2 1 .988768 .615289 .475143
3 1 .814231 .012108 .547545
4 1 .210206 .010137 .500042
5 1 .010981 .616525 .510745
6 1 .503684 .459739 .981308
7 1 .497654 .443589 .006728
ITEM: TIMESTEP
50
ITEM: NUMBER OF ATOMS
7
ITEM: BOX BOUNDS ss ss ss
-3.0520 3.2486
-2.9436 3.0829
-1.8462 2.1814
ITEM: ATOMS id type xs ys zs
1 1 .500343 .990499 .474714
2 1 .988844 .615770 .475583
3 1 .813744 .012801 .546557
4 1 .210246 .010405 .502046
5 1 .011566 .616417 .511397
6 1 .503367 .459614 .982563
7 1 .497957 .442625 .010560
ITEM: TIMESTEP
100
ITEM: NUMBER OF ATOMS
7
ITEM: BOX BOUNDS ss ss ss
-3.0520 3.2486
-2.9436 3.0829
-1.8517 2.1814
ITEM: ATOMS id type xs ys zs
1 1 .501989 .991747 .479582
2 1 .989308 .616591 .479463
3 1 .813171 .011688 .550250
4 1 .209117 .009350 .503274
5 1 .010694 .616091 .508818
6 1 .503080 .459945 .986501
7 1 .498281 .441870 .014125
ITEM: TIMESTEP
150
ITEM: NUMBER OF ATOMS
7
ITEM: BOX BOUNDS ss ss ss
-3.0520 3.2486
-2.9436 3.0829
-1.8616 2.1814
ITEM: ATOMS id type xs ys zs
1 1 .500318 .990893 .480437
2 1 .987705 .617314 .477647
3 1 .812954 .011207 .549408
4 1 .209845 .007824 .503589
5 1 .010391 .615519 .511045
6 1 .501201 .459074 .986060
7 1 .499241 .441133 .019202
ITEM: TIMESTEP
200
ITEM: NUMBER OF ATOMS
7
ITEM: BOX BOUNDS ss ss ss
-3.0520 3.2456
-2.9436 3.0829
-1.8651 2.1814
ITEM: ATOMS id type xs ys zs
1 1 .502373 .990540 .481572
2 1 .986700 .617827 .482344
3 1 .812482 .012197 .551622
4 1 .210592 .008984 .506004
5 1 .012686 .613483 .510900
6 1 .500909 .458085 .989024
7 1 .501424 .441284 .020261
ITEM: TIMESTEP
250
ITEM: NUMBER OF ATOMS
7
ITEM: BOX BOUNDS ss ss ss
-3.0520 3.2456
-2.9406 3.0836
-1.8715 2.1700
ITEM: ATOMS id type xs ys zs
1 1 .501117 .989413 .490956
2 1 .989281 .616306 .481563
3 1 .813480 .009014 .556961
4 1 .208153 .008836 .509511
5 1 .012122 .614278 .513170
6 1 .505371 .456759 .987974
7 1 .500074 .439946 .019917
ITEM: TIMESTEP
300
ITEM: NUMBER OF ATOMS
7
ITEM: BOX BOUNDS ss ss ss
-3.0520 3.2437
-2.9413 3.0857
-1.8540 2.1743
ITEM: ATOMS id type xs ys zs
1 1 .502093 .989975 .481996
2 1 .990455 .613301 .479114
3 1 .814332 .009750 .556619
4 1 .207727 .007746 .509854
5 1 .012237 .615367 .508399
6 1 .504455 .459719 .987306
7 1 .500822 .438630 .016264
ITEM: TIMESTEP
350
ITEM: NUMBER OF ATOMS
7
ITEM: BOX BOUNDS ss ss ss
-3.0520 3.2430
-2.9431 3.0796
-1.8538 2.1737
ITEM: ATOMS id type xs ys zs
1 1 .501767 .990588 .476330
2 1 .990912 .615994 .479438
3 1 .815465 .011059 .558204
4 1 .208310 .008716 .509627
5 1 .012572 .616051 .510512
6 1 .503870 .459374 .985237
7 1 .502808 .440997 .015639
ITEM: TIMESTEP
400
ITEM: NUMBER OF ATOMS
7
ITEM: BOX BOUNDS ss ss ss
-3.0520 3.2446
-2.9554 3.0882
-1.8524 2.1669
ITEM: ATOMS id type xs ys zs
1 1 .499864 .987922 .494515
2 1 .991631 .619860 .474826
3 1 .814860 .014610 .549905
4 1 .206163 .013451 .508786
5 1 .013541 .618445 .509879
6 1 .506585 .457691 .988034
7 1 .499783 .441739 .012888
ITEM: TIMESTEP
450
ITEM: NUMBER OF ATOMS
7
ITEM: BOX BOUNDS ss ss ss
-3.0520 3.2459
-2.9638 3.0885
-1.8506 2.1711
ITEM: ATOMS id type xs ys zs
1 1 .501062 .987735 .491022
2 1 .992439 .620683 .472195
3 1 .812866 .015220 .547003
4 1 .206672 .015605 .507961
5 1 .015454 .618657 .509193
6 1 .506698 .460448 .990627
7 1 .499150 .443704 .010647
ITEM: TIMESTEP
500
ITEM: NUMBER OF ATOMS
7
ITEM: BOX BOUNDS ss ss ss
-3.0520 3.2441
-2.9627 3.0971
-1.8510 2.1717
ITEM: ATOMS id type xs ys zs
1 1 .500401 .988266 .495387
2 1 .991776 .619363 .468771
3 1 .814097 .016159 .549331
4 1 .206751 .014953 .507457
5 1 .014179 .617079 .508456
6 1 .504952 .456682 .989077
7 1 .500737 .441355 .012802
ITEM: TIMESTEP
550
ITEM: NUMBER OF ATOMS
7
ITEM: BOX BOUNDS ss ss ss
-3.0520 3.2537
-2.9625 3.0949
-1.8500 2.1810
ITEM: ATOMS id type xs ys zs
1 1 .499841 .987450 .497241