ITEM: TIMESTEP
1
ITEM: NUMBER OF ATOMS
7
ITEM: BOX BOUNDS ss ss ss
-3.2463 2.9906
-2.9162 3.0311
-1.8113 2.0768
ITEM: ATOMS id type xs ys zs
1 1 .513684 .999439 .473954
2 1 .999541 .592581 .487830
3 1 .782904 .000521 .528779
4 1 .155445 .028889 .529620
5 1 .000655 .659667 .484479
6 1 .484914 .464834 .999188
7 1 .496749 .439372 .001495
ITEM: TIMESTEP
50
ITEM: NUMBER OF ATOMS
7
ITEM: BOX BOUNDS ss ss ss
-3.2729 3.0180
-2.9379 3.0536
-1.8368 2.0976
ITEM: ATOMS id type xs ys zs
1 1 .514389 .995660 .475773
2 1 .993981 .592451 .487111
3 1 .780756 .004425 .530808
4 1 .160095 .031653 .529170
5 1 .004415 .658761 .485091
6 1 .485600 .465533 .992825
7 1 .495476 .440387 .005632
ITEM: TIMESTEP
100
ITEM: NUMBER OF ATOMS
7
ITEM: BOX BOUNDS ss ss ss
-3.2787 3.0245
-2.9546 3.0608
-1.8355 2.1087
ITEM: ATOMS id type xs ys zs
1 1 .515056 .994579 .472760
2 1 .995379 .592705 .486850
3 1 .778952 .004169 .526127
4 1 .160421 .035808 .529500
5 1 .003525 .657574 .488236
6 1 .487186 .467439 .993427
7 1 .494676 .439763 .010844
ITEM: TIMESTEP
150
ITEM: NUMBER OF ATOMS
7
ITEM: BOX BOUNDS ss ss ss
-3.2818 3.0253
-2.9637 3.0661
-1.8357 2.1065
ITEM: ATOMS id type xs ys zs
1 1 .516750 .994562 .472977
2 1 .997254 .596427 .492069
3 1 .778194 .006751 .524551
4 1 .160285 .038035 .526114
5 1 .005116 .656913 .486776
6 1 .487161 .467274 .988401
7 1 .495562 .441899 .015228
ITEM: TIMESTEP
200
ITEM: NUMBER OF ATOMS
7
ITEM: BOX BOUNDS ss ss ss
-3.2819 3.0209
-2.9697 3.0656
-1.8310 2.1124
ITEM: ATOMS id type xs ys zs
1 1 .516519 .993936 .474374
2 1 .992758 .595663 .484476
3 1 .780988 .004248 .536850
4 1 .162797 .039930 .527800
5 1 .010194 .658572 .483949
6 1 .488384 .468072 .988599
7 1 .495374 .440645 .010599
ITEM: TIMESTEP
250
ITEM: NUMBER OF ATOMS
7
ITEM: BOX BOUNDS ss ss ss
-3.2832 3.0190
-2.9784 3.0752
-1.8375 2.1146
ITEM: ATOMS id type xs ys zs
1 1 .519699 .992300 .472097
2 1 .994416 .593384 .496447
3 1 .779880 .006063 .530835
4 1 .159744 .042353 .524085
5 1 .009072 .654939 .480556
6 1 .489558 .467022 .987463
7 1 .492795 .441353 .013334
ITEM: TIMESTEP
300
ITEM: NUMBER OF ATOMS
7
ITEM: BOX BOUNDS ss ss ss
-3.2858 3.0249
-2.9803 3.0710
-1.8365 2.1218
ITEM: ATOMS id type xs ys zs
1 1 .520480 .990072 .471340
2 1 .992110 .593299 .495008
3 1 .775235 .007467 .537840
4 1 .161166 .039224 .531187
5 1 .008975 .652809 .473675
6 1 .490559 .469092 .990813
7 1 .490781 .442402 .013143
ITEM: TIMESTEP
350
ITEM: NUMBER OF ATOMS
7
ITEM: BOX BOUNDS ss ss ss
-3.2860 3.0224
-2.9857 3.0684
-1.8431 2.1328
ITEM: ATOMS id type xs ys zs
1 1 .520356 .990724 .470704
2 1 .992037 .595748 .496555
3 1 .775729 .005939 .538334
4 1 .160961 .042112 .528866
5 1 .008010 .654286 .472063
6 1 .491120 .470884 .991321
7 1 .491457 .442733 .011756
ITEM: TIMESTEP
400
ITEM: NUMBER OF ATOMS
7
ITEM: BOX BOUNDS ss ss ss
-3.2838 3.0194
-2.9866 3.0754
-1.8497 2.1359
ITEM: ATOMS id type xs ys zs
1 1 .521069 .990541 .470277
2 1 .993291 .594369 .487699
3 1 .775244 .012039 .533244
4 1 .162594 .038631 .528619
5 1 .011197 .652912 .478965
6 1 .491089 .469137 .988705
7 1 .492532 .444939 .012067
ITEM: TIMESTEP
1
ITEM: NUMBER OF ATOMS
7
ITEM: BOX BOUNDS ss ss ss
-3.2848 3.0073
-2.9826 3.0756
-1.8480 2.1373
ITEM: ATOMS id type xs ys zs
1 1 .515311 .991927 .471839
2 1 .996812 .592593 .485013
3 1 .781851 .011573 .524808
4 1 .160133 .039003 .525820
5 1 .006767 .657946 .481681
6 1 .486972 .467662 .983827
7 1 .498519 .442176 .010244
ITEM: TIMESTEP
50
ITEM: NUMBER OF ATOMS
7
ITEM: BOX BOUNDS ss ss ss
-3.2848 3.0160
-2.9826 3.0756
-1.8439 2.1373
ITEM: ATOMS id type xs ys zs
1 1 .514598 .992435 .470046
2 1 .995891 .591837 .482781
3 1 .782719 .011170 .525978
4 1 .160842 .038183 .528782
5 1 .006832 .660068 .480479
6 1 .487711 .466578 .980765
7 1 .498576 .441724 .008865
ITEM: TIMESTEP
100
ITEM: NUMBER OF ATOMS
7
ITEM: BOX BOUNDS ss ss ss
-3.2848 3.0276
-2.9811 3.0756
-1.8439 2.1373
ITEM: ATOMS id type xs ys zs
1 1 .515113 .992435 .471253
2 1 .991094 .593890 .483823
3 1 .777729 .009854 .521760
4 1 .161164 .042435 .526384
5 1 .006549 .657073 .476009
6 1 .487106 .468024 .987805
7 1 .496433 .443298 .011875
ITEM: TIMESTEP
150
ITEM: NUMBER OF ATOMS
7
ITEM: BOX BOUNDS ss ss ss
-3.2820 3.0290
-2.9811 3.0756
-1.8439 2.1373
ITEM: ATOMS id type xs ys zs
1 1 .515919 .991643 .474305
2 1 .994921 .594260 .489319
3 1 .777698 .010261 .524246
4 1 .160796 .043058 .525872
5 1 .009667 .658080 .479640
6 1 .488752 .466786 .980498
7 1 .495334 .441698 .007967
ITEM: TIMESTEP
200
ITEM: NUMBER OF ATOMS
7
ITEM: BOX BOUNDS ss ss ss
-3.2909 3.0343
-2.9739 3.0756
-1.8439 2.1373
ITEM: ATOMS id type xs ys zs
1 1 .515966 .991575 .468291
2 1 .993240 .595523 .489888
3 1 .778044 .007480 .525870
4 1 .160379 .038779 .525082
5 1 .009742 .651799 .480169
6 1 .489926 .466733 .984698
7 1 .491346 .442060 .010967
ITEM: TIMESTEP
250
ITEM: NUMBER OF ATOMS
7
ITEM: BOX BOUNDS ss ss ss
-3.2951 3.0294
-2.9750 3.0756
-1.8394 2.1373
ITEM: ATOMS id type xs ys zs
1 1 .518985 .992621 .470983
2 1 .995502 .594856 .489666
3 1 .778328 .009905 .523817
4 1 .162072 .042110 .527989
5 1 .010045 .655466 .479176
6 1 .491149 .471160 .984403
7 1 .493657 .441795 .006787
ITEM: TIMESTEP
300
ITEM: NUMBER OF ATOMS
7
ITEM: BOX BOUNDS ss ss ss
-3.2845 3.0316
-2.9882 3.0728
-1.8507 2.1373
ITEM: ATOMS id type xs ys zs
1 1 .520758 .991711 .467765
2 1 .994625 .595278 .485792
3 1 .777954 .011254 .524475
4 1 .160760 .039207 .520184
5 1 .009462 .648689 .482695
6 1 .489251 .471459 .977630
7 1 .493741 .443785 .016025
ITEM: TIMESTEP
350
ITEM: NUMBER OF ATOMS
7
ITEM: BOX BOUNDS ss ss ss
-3.2853 3.0232
-2.9920 3.0765
-1.8466 2.1373
ITEM: ATOMS id type xs ys zs
1 1 .519309 .992512 .461211
2 1 .994236 .597700 .485248
3 1 .771549 .009896 .524592
4 1 .160829 .040787 .525833
5 1 .008843 .651240 .486102
6 1 .489505 .465385 .987796
7 1 .492648 .445682 .017105
ITEM: TIMESTEP
400
ITEM: NUMBER OF ATOMS
7
ITEM: BOX BOUNDS ss ss ss
-3.2903 3.0188
-2.9963 3.0770
-1.8516 2.1373
ITEM: ATOMS id type xs ys zs
1 1 .521408 .990825 .464412
2 1 .994846 .596037 .485117
3 1 .773518 .009548 .527106
4 1 .160036 .039255 .524782
5 1 .009205 .652089 .487753
6 1 .491416 .466257 .989719
7 1 .494808 .446360 .017671
ITEM: TIMESTEP
1
ITEM: NUMBER OF ATOMS
7
ITEM: BOX BOUNDS ss ss ss
-3.2772 3.0165
-2.9970 3.0745
-1.8400 2.1266
ITEM: ATOMS id type xs ys zs
1 1 .513615 .992305 .471499
2 1 .995369 .593863 .485616
3 1 .780442 .013947 .525442
4 1 .158804 .041276 .526409
5 1 .005415 .659083 .481645
6 1 .485585 .468787 .986521
7 1 .497136 .443588 .008336
ITEM: TIMESTEP
50
ITEM: NUMBER OF ATOMS
7
ITEM: BOX BOUNDS ss ss ss
-3.2772 3.0213
-2.9970 3.0745
-1.8400 2.1266
ITEM: ATOMS id type xs ys zs
1 1 .512653 .992879 .470465
2 1 .992596 .592676 .484392
3 1 .781151 .011966 .525487
4 1 .158993 .042302 .528824
5 1 .004366 .657920 .482277
6 1 .484571 .469596 .985415
7 1 .498275 .443318 .009191
ITEM: TIMESTEP
100
ITEM: NUMBER OF ATOMS
7
ITEM: BOX BOUNDS ss ss ss
-3.2802 3.0262
-2.9970 3.0741
-1.8400 2.1266
ITEM: ATOMS id type xs ys zs
1 1 .513085 .992039 .475487
2 1 .992751 .595054 .487643
3 1 .777857 .012617 .527366
4 1 .159552 .043578 .523881
5 1 .008183 .658591 .477978
6 1 .485409 .470652 .983572
7 1 .494783 .442524 .008815
ITEM: TIMESTEP
150
ITEM: NUMBER OF ATOMS
7
ITEM: BOX BOUNDS ss ss ss
-3.2802 3.0269
-2.9970 3.0707
-1.8483 2.1266
ITEM: ATOMS id type xs ys zs
1 1 .512860 .993120 .471938
2 1 .992984 .597922 .486783
3 1 .783395 .011244 .527367
4 1 .158008 .045438 .523541
5 1 .007382 .660178 .482815
6 1 .487884 .467251 .985937
7 1 .493498 .441080 .009987
ITEM: TIMESTEP
200
ITEM: NUMBER OF ATOMS
7
ITEM: BOX BOUNDS ss ss ss
-3.2828 3.0345
-2.9861 3.0725
-1.8407 2.1266
ITEM: ATOMS id type xs ys zs
1 1 .516496 .989227 .476413
2 1 .993142 .599255 .489878
3 1 .777813 .010159 .525569
4 1 .161810 .040910 .525491
5 1 .006063 .659959 .480726
6 1 .486422 .468118 .983963
7 1 .495422 .442552 .009746
ITEM: TIMESTEP
250
ITEM: NUMBER OF ATOMS
7
ITEM: BOX BOUNDS ss ss ss
-3.2922 3.0240
-2.9895 3.0707
-1.8450 2.1266
ITEM: ATOMS id type xs ys zs
1 1 .518758 .993312 .472808
2 1 .992638 .600120 .488189
3 1 .778775 .009028 .532938
4 1 .163126 .043117 .524053
5 1 .007707 .656748 .477183
6 1 .486696 .469081 .983772
7 1 .498170 .441548 .010464
ITEM: TIMESTEP
300
ITEM: NUMBER OF ATOMS
7
ITEM: BOX BOUNDS ss ss ss
-3.2902 3.0333
-2.9873 3.0720
-1.8480 2.1266
ITEM: ATOMS id type xs ys zs
1 1 .515830 .989416 .472037
2 1 .991448 .599240 .487927
3 1 .775730 .012095 .528034
4 1 .162459 .043873 .522436
5 1 .007820 .659021 .477590
6 1 .485979 .468596 .989548
7 1 .492256 .445536 .010483
ITEM: TIMESTEP
350
ITEM: NUMBER OF ATOMS
7
ITEM: BOX BOUNDS ss ss ss
-3.2888 3.0158
-2.9943 3.0663
-1.8538 2.1262
ITEM: ATOMS id type xs ys zs
1 1 .517308 .995221 .476479
2 1 .992460 .599584 .488718
3 1 .773990 .010781 .524889
4 1 .161461 .047072 .525502
5 1 .009500 .654743 .480453
6 1 .491160 .471204 .986117
7 1 .493777 .447304 .012630
ITEM: TIMESTEP
400
ITEM: NUMBER OF ATOMS
7
ITEM: BOX BOUNDS ss ss ss
-3.2835 3.0241
-2.9741 3.0781
-1.8498 2.1262
ITEM: ATOMS id type xs ys zs
1 1 .517114 .993819 .476521
2 1 .991385 .599991 .484222
3 1 .770205 .007597 .522011
4 1 .161889 .044803 .526250
5 1 .008905 .654576 .481040
6 1 .488505 .467287 .984263
7 1 .492264 .445007 .013029
ITEM: TIMESTEP
1
ITEM: NUMBER OF ATOMS
7
ITEM: BOX BOUNDS ss ss ss
-3.2821 3.0173
-2.9716 3.0757
-1.8533 2.1254
ITEM: ATOMS id type xs ys zs
1 1 .513816 .991968 .473524
2 1 .995221 .592426 .487614
3 1 .780435 .009637 .527357
4 1 .159132 .037148 .528021
5 1 .006279 .657875 .483323
6 1 .485871 .466714 .986484
7 1 .497771 .441177 .011707
ITEM: TIMESTEP
50
ITEM: NUMBER OF ATOMS
7
ITEM: BOX BOUNDS ss ss ss
-3.2821 3.0173
-2.9716 3.0757
-1.8533 2.1254
ITEM: ATOMS id type xs ys zs
1 1 .512418 .994271 .475047
2 1 .995788 .592509 .485439
3 1 .782095 .010328 .527564
4 1 .159934 .036942 .529284
5 1 .007959 .658309 .482714
6 1 .487039 .466629 .985272
7 1 .497275 .441339 .011457
ITEM: TIMESTEP
100
ITEM: NUMBER OF ATOMS
7
ITEM: BOX BOUNDS ss ss ss
-3.2821 3.0228
-2.9716 3.0757
-1.8533 2.1254
ITEM: ATOMS id type xs ys zs
1 1 .513800 .993207 .466709
2 1 .996446 .591437 .484772
3 1 .782088 .007433 .522167
4 1 .159172 .038576 .523331
5 1 .007426 .657466 .485485
6 1 .483723 .466196 .984013
7 1 .497587 .439471 .013361
ITEM: TIMESTEP
150
ITEM: NUMBER OF ATOMS
7
ITEM: BOX BOUNDS ss ss ss
-3.2821 3.0299
-2.9716 3.0757
-1.8442 2.1186
ITEM: ATOMS id type xs ys zs
1 1 .515429 .992400 .470060
2 1 .994087 .592722 .491120
3 1 .778058 .008517 .529410
4 1 .160095 .039381 .525423
5 1 .007998 .657348 .485461
6 1 .485671 .463681 .988130
7 1 .491822 .445096 .013047
ITEM: TIMESTEP
200
ITEM: NUMBER OF ATOMS
7
ITEM: BOX BOUNDS ss ss ss
-3.2836 3.0316
-2.9651 3.0710
-1.8442 2.1177
ITEM: ATOMS id type xs ys zs
1 1 .519080 .990493 .471828
2 1 .994016 .593159 .487246
3 1 .776921 .008257 .531749
4 1 .157942 .036859 .526132
5 1 .007479 .655088 .482081
6 1 .484648 .464203 .986909
7 1 .489085 .438074 .011717
ITEM: TIMESTEP
250
ITEM: NUMBER OF ATOMS
7
ITEM: BOX BOUNDS ss ss ss
-3.2915 3.0355
-2.9653 3.0710
-1.8445 2.1096
ITEM: ATOMS id type xs ys zs
1 1 .513927 .993296 .478861
2 1 .990421 .594509 .488881
3 1 .774464 .006068 .530879
4 1 .160196 .041269 .530352
5 1 .008115 .653118 .478294
6 1 .489637 .467628 .992213
7 1 .492095 .442708 .014179
ITEM: TIMESTEP
300
ITEM: NUMBER OF ATOMS
7
ITEM: BOX BOUNDS ss ss ss
-3.2883 3.0341
-2.9715 3.0710
-1.8448 2.1088
ITEM: ATOMS id type xs ys zs
1 1 .512877 .993176 .480858
2 1 .991244 .594243 .487068
3 1 .776313 .008086 .531045
4 1 .158815 .043695 .529795
5 1 .007086 .652003 .478589
6 1 .489798 .467072 .991203
7 1 .492745 .444281 .017974
ITEM: TIMESTEP
350
ITEM: NUMBER OF ATOMS
7
ITEM: BOX BOUNDS ss ss ss
-3.2844 3.0259
-2.9782 3.0828
-1.8434 2.1088
ITEM: ATOMS id type xs ys zs
1 1 .516755 .992956 .470764
2 1 .990460 .597744 .492654
3 1 .778321 .004925 .531030
4 1 .160423 .043771 .528643
5 1 .008965 .653381 .481809
6 1 .487774 .465893 .986264
7 1 .493218 .443251 .014066
ITEM: TIMESTEP
400
ITEM: NUMBER OF ATOMS
7
ITEM: BOX BOUNDS ss ss ss
-3.2955 3.0246
-2.9820 3.0808
-1.8485 2.1147
ITEM: ATOMS id type xs ys zs
1 1 .517101 .993344 .471178
2 1 .990187 .597769 .491736
3 1 .780697 .005690 .532070
4 1 .160369 .045047 .530635
5 1 .009253 .655556 .483134
6 1 .486057 .465379 .983642
7 1 .494396 .444520 .017410
ITEM: TIMESTEP
1
ITEM: NUMBER OF ATOMS
7
ITEM: BOX BOUNDS ss ss ss
-3.2745 3.0209
-2.9755 3.0745
-1.8458 2.1218
ITEM: ATOMS id type xs ys zs
1 1 .513203 .992472 .472652
2 1 .994625 .592385 .487047
3 1 .779901 .010232 .526573
4 1 .158345 .038208 .527692
5 1 .004718 .658143 .482904
6 1 .485153 .467086 .987712
7 1 .496589 .442070 .009390
ITEM: TIMESTEP
50
ITEM: NUMBER OF ATOMS
7
ITEM: BOX BOUNDS ss ss ss
-3.2745 3.0199
-2.9755 3.0745
-1.8458 2.1218
ITEM: ATOMS id type xs ys zs
1 1 .513791 .991888 .470777
2 1 .995884 .591269 .488673
3 1 .780431 .012186 .527271
4 1 .159150 .037670 .530423
5 1 .004476 .657741 .482452
6 1 .484957 .467353 .988504
7 1 .496173 .441387 .010244
ITEM: TIMESTEP
100
ITEM: NUMBER OF ATOMS
7
ITEM: BOX BOUNDS ss ss ss
-3.2797 3.0311
-2.9755 3.0745
-1.8458 2.1076
ITEM: ATOMS id type xs ys zs
1 1 .510353 .993066 .477352
2 1 .993610 .590606 .487439
3 1 .779606 .009108 .530385
4 1 .156497 .039583 .530307
5 1 .006239 .657782 .487900
6 1 .485105 .466933 .986797
7 1 .494678 .441874 .011771
ITEM: TIMESTEP
150
ITEM: NUMBER OF ATOMS
7
ITEM: BOX BOUNDS ss ss ss
-3.2805 3.0312
-2.9755 3.0745
-1.8457 2.1076
ITEM: ATOMS id type xs ys zs
1 1 .513550 .994970 .477219
2 1 .992025 .594616 .487409
3 1 .779680 .009296 .531304
4 1 .161761 .036044 .527396
5 1 .005821 .657566 .487581
6 1 .484887 .464507 .992860
7 1 .493986 .443991 .014183
ITEM: TIMESTEP
200
ITEM: NUMBER OF ATOMS
7
ITEM: BOX BOUNDS ss ss ss
-3.2846 3.0356
-2.9755 3.0788
-1.8457 2.1112
ITEM: ATOMS id type xs ys zs
1 1 .514829 .991665 .474290
2 1 .994454 .596362 .488497
3 1 .776285 .010683 .529086
4 1 .159212 .040853 .528133
5 1 .007735 .657324 .483372
6 1 .484092 .465732 .988982
7 1 .492801 .443507 .011489
ITEM: TIMESTEP
250
ITEM: NUMBER OF ATOMS
7
ITEM: BOX BOUNDS ss ss ss
-3.2853 3.0321
-2.9758 3.0722
-1.8433 2.1050
ITEM: ATOMS id type xs ys zs
1 1 .518051 .992990 .477826
2 1 .989895 .595199 .483761
3 1 .778225 .009090 .529625
4 1 .158774 .040512 .527374
5 1 .003160 .659572 .489629
6 1 .484989 .464603 .988863
7 1 .489561 .443872 .015177
ITEM: TIMESTEP
300
ITEM: NUMBER OF ATOMS
7
ITEM: BOX BOUNDS ss ss ss
-3.2840 3.0292
-2.9731 3.0786
-1.8385 2.1033
ITEM: ATOMS id type xs ys zs
1 1 .519233 .991545 .479272
2 1 .992615 .593342 .485664
3 1 .780042 .010937 .528959
4 1 .159014 .039876 .524345
5 1 .002430 .659538 .489064
6 1 .485138 .463331 .986649
7 1 .490386 .444224 .015311
ITEM: TIMESTEP
350
ITEM: NUMBER OF ATOMS
7
ITEM: BOX BOUNDS ss ss ss
-3.2797 3.0128
-2.9781 3.0880
-1.8343 2.1117
ITEM: ATOMS id type xs ys zs
1 1 .519960 .992374 .473336
2 1 .992308 .594812 .490666
3 1 .778513 .009700 .526407
4 1 .170703 .040847 .521494
5 1 .005434 .652351 .498113
6 1 .485741 .465918 .989756
7 1 .491140 .443689 .005559
ITEM: TIMESTEP
400
ITEM: NUMBER OF ATOMS
7
ITEM: BOX BOUNDS ss ss ss
-3.2925 3.0122
-2.9780 3.1000
-1.8391 2.1147
ITEM: ATOMS id type xs ys zs
1 1 .522052 .987263 .477607
2 1 .991568 .595193 .494266
3 1 .782128 .007496 .523804
4 1 .163629 .036750 .525708
5 1 .011337 .652556 .485249
6 1 .492143 .464677 .988060
7 1 .494074 .442384 .014042
ITEM: TIMESTEP
1
ITEM: NUMBER OF ATOMS
7
ITEM: BOX BOUNDS ss ss ss
-3.3006 3.0073
-2.9893 3.0908
-1.8408 2.1136
ITEM: ATOMS id type xs ys zs
1 1 .516374 .989633 .473425
2 1 .996786 .591899 .487628
3 1 .782420 .012889 .526850
4 1 .162474 .039777 .527902
5 1 .009045 .657256 .482944
6 1 .488286 .467025 .989792
7 1 .499943 .441891 .007994
ITEM: TIMESTEP
50
ITEM: NUMBER OF ATOMS
7
ITEM: BOX BOUNDS ss ss ss
-3.3006 3.0172
-2.9893 3.0908
-1.8408 2.1136
ITEM: ATOMS id type xs ys zs
1 1 .514540 .988183 .475080
2 1 .995252 .593661 .488343
3 1 .781040 .011846 .526371
4 1 .161376 .038453 .528021
5 1 .008624 .658609 .484646
6 1 .489920 .465298 .991268
7 1 .499655 .441668 .007444
ITEM: TIMESTEP
100
ITEM: NUMBER OF ATOMS
7
ITEM: BOX BOUNDS ss ss ss
-3.3006 3.0281
-2.9893 3.0878
-1.8415 2.1136
ITEM: ATOMS id type xs ys zs
1 1 .516117 .990271 .472562
2 1 .996519 .593320 .488571
3 1 .783410 .010949 .524069
4 1 .161659 .040902 .525287
5 1 .008631 .655654 .484338
6 1 .487105 .465272 .986887
7 1 .498392 .441896 .011603
ITEM: TIMESTEP
150
ITEM: NUMBER OF ATOMS
7
ITEM: BOX BOUNDS ss ss ss
-3.2992 3.0287
-2.9893 3.0854
-1.8398 2.1120
ITEM: ATOMS id type xs ys zs
1 1 .516525 .990626 .475624
2 1 .990659 .594713 .489946
3 1 .784369 .010444 .526380
4 1 .161738 .040765 .527697
5 1 .008385 .658589 .486003
6 1 .486035 .466384 .985826
7 1 .496439 .443076 .006771
ITEM: TIMESTEP
200
ITEM: NUMBER OF ATOMS
7
ITEM: BOX BOUNDS ss ss ss
-3.2854 3.0235
-2.9893 3.0854
-1.8484 2.1120
ITEM: ATOMS id type xs ys zs
1 1 .514128 .988183 .474755
2 1 .991421 .597517 .487704
3 1 .784718 .010973 .525749
4 1 .161532 .044441 .533917
5 1 .010163 .657293 .485073
6 1 .487519 .463746 .990694
7 1 .494611 .442913 .008542
ITEM: TIMESTEP
250
ITEM: NUMBER OF ATOMS
7
ITEM: BOX BOUNDS ss ss ss
-3.2835 3.0202
-2.9893 3.0854
-1.8447 2.1120
ITEM: ATOMS id type xs ys zs
1 1 .515734 .994791 .476676
2 1 .991566 .597295 .484029
3 1 .781211 .007095 .525482
4 1 .161714 .046326 .530831
5 1 .006991 .654570 .484428
6 1 .487079 .469996 .986561
7 1 .494817 .446063 .013798
ITEM: TIMESTEP
300
ITEM: NUMBER OF ATOMS
7
ITEM: BOX BOUNDS ss ss ss
-3.2869 3.0274
-2.9875 3.0847
-1.8459 2.1139
ITEM: ATOMS id type xs ys zs
1 1 .515543 .991455 .470512
2 1 .991468 .598094 .489760
3 1 .779566 .011217 .530138
4 1 .162974 .045536 .522759
5 1 .005165 .658816 .488633
6 1 .485271 .469401 .985329
7 1 .493687 .443564 .009606
ITEM: TIMESTEP
350
ITEM: NUMBER OF ATOMS
7
ITEM: BOX BOUNDS ss ss ss
-3.2968 3.0173
-2.9875 3.0847
-1.8450 2.1175
ITEM: ATOMS id type xs ys zs
1 1 .517011 .989404 .476497
2 1 .994850 .598849 .487653
3 1 .777424 .008182 .529649
4 1 .163547 .048193 .520040
5 1 .006812 .657412 .483523
6 1 .488655 .471079 .982276
7 1 .495277 .442686 .010651
ITEM: TIMESTEP
400
ITEM: NUMBER OF ATOMS
7
ITEM: BOX BOUNDS ss ss ss
-3.2866 3.0210
-2.9838 3.0782
-1.8493 2.1185
ITEM: ATOMS id type xs ys zs
1 1 .516376 .992366 .466529
2 1 .992588 .598033 .486552
3 1 .780661 .007830 .532844
4 1 .166240 .046356 .520652
5 1 .006280 .657250 .484449
6 1 .488794 .468913 .988922
7 1 .494699 .442854 .010674
ITEM: TIMESTEP
1
ITEM: NUMBER OF ATOMS
7
ITEM: BOX BOUNDS ss ss ss
-3.2823 3.0157
-2.9829 3.0736
-1.8474 2.1172
ITEM: ATOMS id type xs ys zs
1 1 .514281 .992304 .474036
2 1 .995215 .593036 .487454
3 1 .780993 .011624 .528084
4 1 .159378 .039173 .527920
5 1 .006380 .658600 .483956
6 1 .485825 .467965 .988815
7 1 .498015 .442350 .010282
ITEM: TIMESTEP
50
ITEM: NUMBER OF ATOMS
7
ITEM: BOX BOUNDS ss ss ss
-3.2814 3.0163
-2.9829 3.0736
-1.8452 2.1172
ITEM: ATOMS id type xs ys zs
1 1 .512357 .994062 .474295
2 1 .994547 .592124 .487386
3 1 .782026 .010902 .530611
4 1 .158255 .040487 .526488
5 1 .004052 .660369 .484956
6 1 .486755 .469773 .985947
7 1 .499528 .441745 .008309
ITEM: TIMESTEP
100
ITEM: NUMBER OF ATOMS
7
ITEM: BOX BOUNDS ss ss ss
-3.2871 3.0327
-2.9829 3.0710
-1.8452 2.1172
ITEM: ATOMS id type xs ys zs
1 1 .514550 .993528 .470381
2 1 .995170 .594668 .484166
3 1 .779669 .011681 .530527
4 1 .161772 .038272 .528556
5 1 .004674 .659369 .479928
6 1 .484295 .467807 .984997
7 1 .496167 .439260 .009253
ITEM: TIMESTEP
150
ITEM: NUMBER OF ATOMS
7
ITEM: BOX BOUNDS ss ss ss
-3.2919 3.0389
-2.9829 3.0710
-1.8512 2.1172
ITEM: ATOMS id type xs ys zs
1 1 .515654 .990593 .474237
2 1 .989853 .595118 .485699
3 1 .778240 .011910 .528491
4 1 .160934 .041950 .532305
5 1 .006138 .659847 .476560
6 1 .482457 .465081 .989236
7 1 .493070 .439999 .013992
ITEM: TIMESTEP
200
ITEM: NUMBER OF ATOMS
7
ITEM: BOX BOUNDS ss ss ss
-3.2862 3.0306
-2.9829 3.0775
-1.8457 2.1108
ITEM: ATOMS id type xs ys zs
1 1 .516740 .989874 .475718
2 1 .990504 .596429 .486288
3 1 .781821 .011933 .527149
4 1 .161305 .040769 .529288
5 1 .003423 .658023 .476806
6 1 .481930 .465096 .989163
7 1 .492268 .437715 .013907
ITEM: TIMESTEP
250
ITEM: NUMBER OF ATOMS
7
ITEM: BOX BOUNDS ss ss ss
-3.3018 3.0302
-2.9829 3.0788
-1.8439 2.1108
ITEM: ATOMS id type xs ys zs
1 1 .517871 .992187 .469567
2 1 .994235 .594915 .492742
3 1 .779845 .011643 .527839
4 1 .164057 .044712 .526679
5 1 .007191 .659070 .479790
6 1 .485192 .470070 .988507
7 1 .496274 .440445 .013008
ITEM: TIMESTEP
300
ITEM: NUMBER OF ATOMS
7
ITEM: BOX BOUNDS ss ss ss
-3.2950 3.0277
-2.9829 3.0718
-1.8401 2.1193
ITEM: ATOMS id type xs ys zs
1 1 .517181 .996310 .473720
2 1 .994028 .597907 .489864
3 1 .780979 .009976 .531083
4 1 .165294 .043045 .524175
5 1 .005563 .659023 .479301
6 1 .486772 .468021 .985660
7 1 .492452 .441075 .012491
ITEM: TIMESTEP
350
ITEM: NUMBER OF ATOMS
7
ITEM: BOX BOUNDS ss ss ss
-3.2939 3.0243
-2.9793 3.0810
-1.8333 2.1108
ITEM: ATOMS id type xs ys zs
1 1 .520851 .991577 .471568
2 1 .992715 .598106 .491128
3 1 .784871 .006263 .532859
4 1 .163498 .044619 .527375
5 1 .007924 .657128 .480207
6 1 .486237 .471349 .986064
7 1 .494711 .438813 .007964
ITEM: TIMESTEP
400
ITEM: NUMBER OF ATOMS
7
ITEM: BOX BOUNDS ss ss ss
-3.3022 3.0204
-2.9797 3.0806
-1.8399 2.1049
ITEM: ATOMS id type xs ys zs
1 1 .516174 .989839 .478596
2 1 .992697 .595550 .489217
3 1 .781140 .005703 .530269
4 1 .168045 .037323 .530617
5 1 .008247 .657771 .482973
6 1 .487949 .468879 .989413
7 1 .493097 .443290 .011663
ITEM: TIMESTEP
1
ITEM: NUMBER OF ATOMS
7
ITEM: BOX BOUNDS ss ss ss
-3.2876 3.0174
-2.9807 3.0833
-1.8360 2.1045
ITEM: ATOMS id type xs ys zs
1 1 .514260 .991045 .473768
2 1 .995015 .591919 .487719
3 1 .780798 .011155 .527718
4 1 .160372 .039020 .528929
5 1 .007389 .657247 .483994
6 1 .486469 .466670 .992004
7 1 .498075 .441718 .007044
ITEM: TIMESTEP
50
ITEM: NUMBER OF ATOMS
7
ITEM: BOX BOUNDS ss ss ss
-3.2876 3.0174
-2.9807 3.0833
-1.8360 2.1045
ITEM: ATOMS id type xs ys zs
1 1 .513118 .990078 .472213
2 1 .995281 .592619 .487262
3 1 .780171 .010023 .525865
4 1 .159947 .038986 .529861
5 1 .007836 .658411 .484193
6 1 .485556 .466251 .988176
7 1 .498266 .442558 .008739
ITEM: TIMESTEP
100
ITEM: NUMBER OF ATOMS
7
ITEM: BOX BOUNDS ss ss ss
-3.2890 3.0320
-2.9807 3.0833
-1.8399 2.1058
ITEM: ATOMS id type xs ys zs
1 1 .510013 .990549 .472147
2 1 .992536 .589966 .489539
3 1 .777702 .009275 .528027
4 1 .160622 .040212 .530579
5 1 .009744 .658869 .491057
6 1 .482825 .466328 .984555
7 1 .497205 .439687 .009820
ITEM: TIMESTEP
150
ITEM: NUMBER OF ATOMS
7
ITEM: BOX BOUNDS ss ss ss
-3.2876 3.0411
-2.9807 3.0833
-1.8354 2.0995
ITEM: ATOMS id type xs ys zs
1 1 .513612 .991859 .471366
2 1 .993483 .593195 .484616
3 1 .778847 .010387 .533818
4 1 .164396 .038147 .525414
5 1 .006192 .659390 .482907
6 1 .484916 .464653 .989605
7 1 .495199 .438134 .011481
ITEM: TIMESTEP
200
ITEM: NUMBER OF ATOMS
7
ITEM: BOX BOUNDS ss ss ss
-3.2974 3.0425
-2.9807 3.0833
-1.8367 2.0995
ITEM: ATOMS id type xs ys zs
1 1 .517245 .991530 .471544
2 1 .991724 .595100 .487144
3 1 .779893 .009569 .527169
4 1 .162359 .039477 .525103
5 1 .008455 .657576 .488808
6 1 .483529 .465768 .989005
7 1 .499375 .440231 .013975
ITEM: TIMESTEP
250
ITEM: NUMBER OF ATOMS
7
ITEM: BOX BOUNDS ss ss ss
-3.2889 3.0489
-2.9807 3.0833
-1.8349 2.0972
ITEM: ATOMS id type xs ys zs
1 1 .514724 .990097 .474801
2 1 .994206 .596805 .490309
3 1 .778818 .012327 .528617
4 1 .162217 .043268 .515157
5 1 .003319 .659715 .487284
6 1 .486353 .467435 .987081
7 1 .491285 .444068 .008424
ITEM: TIMESTEP
300
ITEM: NUMBER OF ATOMS
7
ITEM: BOX BOUNDS ss ss ss
-3.2962 3.0348
-2.9807 3.0833
-1.8427 2.1047
ITEM: ATOMS id type xs ys zs
1 1 .517976 .989124 .469907
2 1 .992875 .596990 .487311
3 1 .777016 .008522 .537676
4 1 .158518 .042317 .526199
5 1 .009416 .654487 .482783
6 1 .484623 .464894 .988692
7 1 .494193 .441480 .005504
ITEM: TIMESTEP
350
ITEM: NUMBER OF ATOMS
7
ITEM: BOX BOUNDS ss ss ss
-3.2872 3.0335
-2.9807 3.0785
-1.8507 2.1008
ITEM: ATOMS id type xs ys zs
1 1 .517549 .993513 .457978
2 1 .988887 .596123 .487762
3 1 .777928 .006377 .530032
4 1 .158286 .040120 .530045
5 1 .007258 .654496 .480581
6 1 .488699 .466778 .986286
7 1 .492078 .441503 .013958
ITEM: TIMESTEP
400
ITEM: NUMBER OF ATOMS
7
ITEM: BOX BOUNDS ss ss ss
-3.2817 3.0289
-2.9807 3.0785
-1.8420 2.1069
ITEM: ATOMS id type xs ys zs
1 1 .516165 .990918 .455252
2 1 .989149 .600560 .492057
3 1 .778673 .011245 .534066
4 1 .158292 .038638 .528588
5 1 .006505 .652393 .484500
6 1 .487444 .467870 .992979
7 1 .493139 .438350 .016689
ITEM: TIMESTEP
1
ITEM: NUMBER OF ATOMS
7
ITEM: BOX BOUNDS ss ss ss
-3.2848 3.0270
-2.9737 3.0785
-1.8371 2.1030
ITEM: ATOMS id type xs ys zs
1 1 .513062 .991562 .474361
2 1 .993559 .591666 .488020
3 1 .779422 .009807 .528424
4 1 .159596 .037506 .529433
5 1 .006769 .657381 .484098
6 1 .485256 .466203 .992400
7 1 .497088 .441415 .007468
ITEM: TIMESTEP
50
ITEM: NUMBER OF ATOMS
7
ITEM: BOX BOUNDS ss ss ss
-3.2772 3.0270
-2.9737 3.0785
-1.8371 2.1030
ITEM: ATOMS id type xs ys zs
1 1 .513059 .989359 .475482
2 1 .994454 .590864 .486947
3 1 .778741 .010757 .524530
4 1 .156012 .038293 .527628
5 1 .006277 .659774 .484431
6 1 .482319 .466574 .991066
7 1 .496930 .440975 .010858
ITEM: TIMESTEP
100
ITEM: NUMBER OF ATOMS
7
ITEM: BOX BOUNDS ss ss ss
-3.2799 3.0317
-2.9737 3.0785
-1.8426 2.1030
ITEM: ATOMS id type xs ys zs
1 1 .510952 .989717 .475028
2 1 .992510 .594663 .490248
3 1 .779649 .009437 .527741
4 1 .159314 .034931 .528438
5 1 .002590 .660636 .488015
6 1 .484091 .464279 .989970
7 1 .495660 .439736 .013123
ITEM: TIMESTEP
150
ITEM: NUMBER OF ATOMS
7
ITEM: BOX BOUNDS ss ss ss
-3.2897 3.0381
-2.9737 3.0785
-1.8521 2.1036
ITEM: ATOMS id type xs ys zs
1 1 .514376 .987272 .473762
2 1 .989875 .593543 .488179
3 1 .779693 .007877 .530454
4 1 .158279 .039946 .529472
5 1 .010052 .654366 .491224
6 1 .482035 .464311 .991771
7 1 .495287 .440333 .010344
ITEM: TIMESTEP
200
ITEM: NUMBER OF ATOMS
7
ITEM: BOX BOUNDS ss ss ss
-3.2826 3.0486
-2.9737 3.0785
-1.8567 2.1116
ITEM: ATOMS id type xs ys zs
1 1 .511727 .988871 .482761
2 1 .989815 .591477 .480918
3 1 .776180 .009809 .532760
4 1 .159732 .038793 .530455
5 1 .006799 .652317 .479560
6 1 .485974 .463366 .987761
7 1 .491270 .441163 .010626
ITEM: TIMESTEP
250
ITEM: NUMBER OF ATOMS
7
ITEM: BOX BOUNDS ss ss ss
-3.2903 3.0401
-2.9771 3.0785
-1.8511 2.1130
ITEM: ATOMS id type xs ys zs
1 1 .516886 .987772 .472763
2 1 .990155 .595830 .487818
3 1 .777669 .008204 .528725
4 1 .157679 .042879 .527075
5 1 .006999 .661074 .482257
6 1 .485770 .467830 .983676
7 1 .493523 .437719 .009782
ITEM: TIMESTEP
300
ITEM: NUMBER OF ATOMS
7
ITEM: BOX BOUNDS ss ss ss
-3.2908 3.0523
-2.9835 3.0785
-1.8505 2.1266
ITEM: ATOMS id type xs ys zs
1 1 .513510 .991704 .475382
2 1 .986216 .596590 .486986
3 1 .779944 .003913 .524694
4 1 .163681 .042342 .524093
5 1 .004968 .654163 .482259
6 1 .486200 .466852 .983555
7 1 .494635 .441441 .012615
ITEM: TIMESTEP
350
ITEM: NUMBER OF ATOMS
7
ITEM: BOX BOUNDS ss ss ss
-3.2897 3.0525
-2.9875 3.0785
-1.8432 2.1274
ITEM: ATOMS id type xs ys zs
1 1 .519232 .992699 .468664
2 1 .989562 .594946 .489637
3 1 .777972 .009232 .531268
4 1 .160257 .045370 .527115
5 1 .004399 .659112 .475484
6 1 .491249 .465923 .988295
7 1 .485369 .440119 .020086
ITEM: TIMESTEP
400
ITEM: NUMBER OF ATOMS
7
ITEM: BOX BOUNDS ss ss ss
-3.2977 3.0444
-2.9900 3.0715
-1.8501 2.1328
ITEM: ATOMS id type xs ys zs
1 1 .516469 .989913 .476453
2 1 .988628 .599508 .478163
3 1 .775539 .009930 .530988
4 1 .158733 .044852 .513748
5 1 .010651 .653500 .478839
6 1 .491823 .468084 .986511
7 1 .493824 .439382 .013220
ITEM: TIMESTEP
1
ITEM: NUMBER OF ATOMS
7
ITEM: BOX BOUNDS ss ss ss
-3.2831 3.0357
-2.9896 3.0669
-1.8449 2.1234
ITEM: ATOMS id type xs ys zs
1 1 .512390 .993569 .472625
2 1 .992447 .594168 .486484
3 1 .778376 .012697 .526422
4 1 .159435 .040374 .527431
5 1 .006389 .659639 .482652
6 1 .484882 .468805 .987405
7 1 .495958 .443702 .009510
ITEM: TIMESTEP
50
ITEM: NUMBER OF ATOMS
7
ITEM: BOX BOUNDS ss ss ss
-3.2831 3.0357
-2.9896 3.0669
-1.8449 2.1234
ITEM: ATOMS id type xs ys zs
1 1 .510994 .995833 .471810
2 1 .995561 .594113 .486660
3 1 .776899 .012661 .528148
4 1 .158008 .039579 .530416
5 1 .005496 .660321 .485781
6 1 .483396 .468156 .987156
7 1 .498325 .442601 .007279
ITEM: TIMESTEP
100
ITEM: NUMBER OF ATOMS
7
ITEM: BOX BOUNDS ss ss ss
-3.2882 3.0357
-2.9896 3.0669
-1.8451 2.1204
ITEM: ATOMS id type xs ys zs
1 1 .510621 .994329 .469885
2 1 .994949 .593803 .484616
3 1 .780288 .013432 .532700
4 1 .156733 .043257 .532942
5 1 .005257 .659520 .481560
6 1 .482279 .469038 .988258
7 1 .495704 .443643 .012121
ITEM: TIMESTEP
150
ITEM: NUMBER OF ATOMS
7
ITEM: BOX BOUNDS ss ss ss
-3.2985 3.0357
-2.9842 3.0669
-1.8391 2.1204
ITEM: ATOMS id type xs ys zs
1 1 .515154 .990768 .472826
2 1 .992172 .596143 .488059
3 1 .779345 .010969 .530361
4 1 .163562 .040195 .524965
5 1 .010856 .659539 .481826
6 1 .485923 .469283 .988392
7 1 .496611 .444632 .007836
ITEM: TIMESTEP
200
ITEM: NUMBER OF ATOMS
7
ITEM: BOX BOUNDS ss ss ss
-3.3123 3.0367
-2.9823 3.0651
-1.8397 2.1204
ITEM: ATOMS id type xs ys zs
1 1 .514734 .987970 .468581
2 1 .996831 .593813 .480611
3 1 .780270 .006484 .524343
4 1 .162297 .041276 .522737
5 1 .010782 .656818 .478155
6 1 .485577 .460850 .984911
7 1 .499683 .442215 .010315
ITEM: TIMESTEP
250
ITEM: NUMBER OF ATOMS
7
ITEM: BOX BOUNDS ss ss ss
-3.3187 3.0357
-2.9823 3.0651
-1.8414 2.1212
ITEM: ATOMS id type xs ys zs
1 1 .515499 .992516 .477069
2 1 .991636 .596645 .492589
3 1 .782676 .009046 .529854
4 1 .158128 .046405 .526434
5 1 .007705 .659884 .487257
6 1 .488494 .465216 .986055
7 1 .495355 .443963 .015590
ITEM: TIMESTEP
300
ITEM: NUMBER OF ATOMS
7
ITEM: BOX BOUNDS ss ss ss
-3.3190 3.0357
-2.9773 3.0651
-1.8287 2.1195
ITEM: ATOMS id type xs ys zs
1 1 .514287 .992702 .477401
2 1 .992648 .595779 .493128
3 1 .784024 .009263 .526416
4 1 .158557 .045953 .526408
5 1 .006779 .662538 .485042
6 1 .488925 .463003 .987657
7 1 .494995 .444887 .011817
ITEM: TIMESTEP
350
ITEM: NUMBER OF ATOMS
7
ITEM: BOX BOUNDS ss ss ss
-3.3238 3.0404
-2.9759 3.0651
-1.8397 2.1195
ITEM: ATOMS id type xs ys zs
1 1 .516731 .992139 .469759