ITEM: TIMESTEP
1
ITEM: NUMBER OF ATOMS
7
ITEM: BOX BOUNDS ss ss ss
-3.2463 2.9906
-2.9162 3.0311
-1.8113 2.0768
ITEM: ATOMS id type xs ys zs
1 1 .513512 .999375 .473861
2 1 .999344 .592753 .488109
3 1 .782565 .000490 .528742
4 1 .155534 .028795 .529407
5 1 .000613 .659349 .484062
6 1 .485051 .465157 .998957
7 1 .496725 .439431 .000994
ITEM: TIMESTEP
50
ITEM: NUMBER OF ATOMS
7
ITEM: BOX BOUNDS ss ss ss
-3.2729 3.0180
-2.9379 3.0536
-1.8368 2.0976
ITEM: ATOMS id type xs ys zs
1 1 .515275 .994698 .474391
2 1 .995803 .592680 .490891
3 1 .778834 .003264 .527675
4 1 .159992 .032230 .527325
5 1 .004740 .657165 .485669
6 1 .485878 .466464 .993560
7 1 .495259 .439893 .010631
ITEM: TIMESTEP
100
ITEM: NUMBER OF ATOMS
7
ITEM: BOX BOUNDS ss ss ss
-3.2787 3.0245
-2.9546 3.0608
-1.8355 2.1087
ITEM: ATOMS id type xs ys zs
1 1 .515799 .995304 .472077
2 1 .994018 .592986 .489816
3 1 .777354 .004649 .527062
4 1 .161128 .035636 .525167
5 1 .007065 .656137 .484148
6 1 .485645 .467232 .989302
7 1 .494104 .441288 .010315
ITEM: TIMESTEP
150
ITEM: NUMBER OF ATOMS
7
ITEM: BOX BOUNDS ss ss ss
-3.2818 3.0253
-2.9637 3.0661
-1.8357 2.1065
ITEM: ATOMS id type xs ys zs
1 1 .517157 .993061 .472830
2 1 .991672 .593584 .490989
3 1 .776783 .005139 .535613
4 1 .160900 .037959 .527540
5 1 .009521 .654959 .479984
6 1 .489274 .467768 .992451
7 1 .493293 .441354 .009524
ITEM: TIMESTEP
200
ITEM: NUMBER OF ATOMS
7
ITEM: BOX BOUNDS ss ss ss
-3.2819 3.0209
-2.9697 3.0656
-1.8310 2.1124
ITEM: ATOMS id type xs ys zs
1 1 .515161 .992131 .467835
2 1 .991417 .597454 .487183
3 1 .776302 .007171 .530856
4 1 .164668 .038011 .525397
5 1 .007706 .652696 .475470
6 1 .487374 .468286 .992606
7 1 .492396 .440116 .007304
ITEM: TIMESTEP
250
ITEM: NUMBER OF ATOMS
7
ITEM: BOX BOUNDS ss ss ss
-3.2832 3.0190
-2.9784 3.0752
-1.8375 2.1146
ITEM: ATOMS id type xs ys zs
1 1 .515555 .991333 .469143
2 1 .989785 .597997 .492591
3 1 .773519 .008586 .537891
4 1 .163154 .039899 .526718
5 1 .007800 .652547 .478893
6 1 .485527 .469916 .992356
7 1 .492066 .441628 .010701
ITEM: TIMESTEP
300
ITEM: NUMBER OF ATOMS
7
ITEM: BOX BOUNDS ss ss ss
-3.2858 3.0249
-2.9803 3.0710
-1.8365 2.1218
ITEM: ATOMS id type xs ys zs
1 1 .516858 .992363 .464077
2 1 .989415 .598137 .488545
3 1 .772986 .009382 .536656
4 1 .165344 .040111 .526498
5 1 .008672 .652741 .477225
6 1 .487172 .472245 .987917
7 1 .490792 .442454 .007379
ITEM: TIMESTEP
350
ITEM: NUMBER OF ATOMS
7
ITEM: BOX BOUNDS ss ss ss
-3.2860 3.0224
-2.9857 3.0684
-1.8431 2.1328
ITEM: ATOMS id type xs ys zs
1 1 .514720 .993891 .465697
2 1 .986462 .599058 .491793
3 1 .770840 .009488 .532217
4 1 .164370 .042639 .527137
5 1 .006529 .653536 .476809
6 1 .486262 .471609 .987817
7 1 .489552 .443672 .008255
ITEM: TIMESTEP
400
ITEM: NUMBER OF ATOMS
7
ITEM: BOX BOUNDS ss ss ss
-3.2838 3.0194
-2.9866 3.0754
-1.8497 2.1359
ITEM: ATOMS id type xs ys zs
1 1 .513713 .993376 .465265
2 1 .986506 .597830 .493172
3 1 .770365 .009641 .532441
4 1 .164261 .042585 .524612
5 1 .005546 .651699 .478482
6 1 .485463 .471758 .986841
7 1 .488996 .444533 .009841
ITEM: TIMESTEP
1
ITEM: NUMBER OF ATOMS
7
ITEM: BOX BOUNDS ss ss ss
-3.2848 3.0073
-2.9826 3.0756
-1.8480 2.1373
ITEM: ATOMS id type xs ys zs
1 1 .515131 .992032 .471502
2 1 .996684 .592847 .485390
3 1 .781816 .011468 .525066
4 1 .160286 .039238 .525717
5 1 .006727 .658244 .481464
6 1 .486890 .467590 .983795
7 1 .498474 .442345 .010201
ITEM: TIMESTEP
50
ITEM: NUMBER OF ATOMS
7
ITEM: BOX BOUNDS ss ss ss
-3.2848 3.0160
-2.9826 3.0756
-1.8439 2.1373
ITEM: ATOMS id type xs ys zs
1 1 .515672 .993243 .473278
2 1 .994331 .595251 .485325
3 1 .781252 .010339 .523669
4 1 .160323 .041380 .523258
5 1 .006540 .656239 .478758
6 1 .488747 .466808 .984923
7 1 .495561 .441350 .007691
ITEM: TIMESTEP
100
ITEM: NUMBER OF ATOMS
7
ITEM: BOX BOUNDS ss ss ss
-3.2848 3.0276
-2.9811 3.0756
-1.8439 2.1373
ITEM: ATOMS id type xs ys zs
1 1 .515148 .992716 .472902
2 1 .993501 .595097 .486517
3 1 .777733 .009584 .525952
4 1 .160775 .041588 .523756
5 1 .008292 .655566 .480152
6 1 .488845 .467580 .984109
7 1 .495259 .442661 .012178
ITEM: TIMESTEP
150
ITEM: NUMBER OF ATOMS
7
ITEM: BOX BOUNDS ss ss ss
-3.2820 3.0290
-2.9811 3.0756
-1.8439 2.1373
ITEM: ATOMS id type xs ys zs
1 1 .515467 .991750 .466651
2 1 .993479 .594607 .487987
3 1 .776492 .008587 .527317
4 1 .161654 .041157 .525691
5 1 .008893 .652561 .481748
6 1 .487321 .467478 .983108
7 1 .492924 .442374 .010192
ITEM: TIMESTEP
200
ITEM: NUMBER OF ATOMS
7
ITEM: BOX BOUNDS ss ss ss
-3.2909 3.0343
-2.9739 3.0756
-1.8439 2.1373
ITEM: ATOMS id type xs ys zs
1 1 .516654 .992904 .465110
2 1 .990722 .595784 .488151
3 1 .774753 .003794 .528330
4 1 .163825 .036672 .523501
5 1 .010007 .651317 .483569
6 1 .488997 .466489 .983848
7 1 .494723 .441917 .013604
ITEM: TIMESTEP
250
ITEM: NUMBER OF ATOMS
7
ITEM: BOX BOUNDS ss ss ss
-3.2951 3.0294
-2.9750 3.0756
-1.8394 2.1373
ITEM: ATOMS id type xs ys zs
1 1 .518326 .991149 .464803
2 1 .991297 .595431 .489036
3 1 .774332 .003363 .522745
4 1 .163656 .039486 .523000
5 1 .011484 .650485 .485559
6 1 .491572 .466193 .987003
7 1 .494842 .441296 .011527
ITEM: TIMESTEP
300
ITEM: NUMBER OF ATOMS
7
ITEM: BOX BOUNDS ss ss ss
-3.2845 3.0316
-2.9882 3.0728
-1.8507 2.1373
ITEM: ATOMS id type xs ys zs
1 1 .516166 .992007 .466124
2 1 .990183 .596721 .489957
3 1 .772805 .006631 .524160
4 1 .163026 .042233 .525194
5 1 .009803 .651448 .487298
6 1 .490345 .467338 .986773
7 1 .492369 .442810 .013255
ITEM: TIMESTEP
350
ITEM: NUMBER OF ATOMS
7
ITEM: BOX BOUNDS ss ss ss
-3.2853 3.0232
-2.9920 3.0765
-1.8466 2.1373
ITEM: ATOMS id type xs ys zs
1 1 .518562 .991684 .466057
2 1 .991498 .595716 .490786
3 1 .773038 .005935 .523576
4 1 .164255 .042834 .524613
5 1 .009624 .651583 .486556
6 1 .491571 .467241 .987228
7 1 .493338 .443326 .011810
ITEM: TIMESTEP
400
ITEM: NUMBER OF ATOMS
7
ITEM: BOX BOUNDS ss ss ss
-3.2903 3.0188
-2.9963 3.0770
-1.8516 2.1373
ITEM: ATOMS id type xs ys zs
1 1 .520117 .992997 .467201
2 1 .992229 .596788 .488832
3 1 .773997 .008220 .523934
4 1 .166644 .044292 .525795
5 1 .010684 .652670 .487597
6 1 .492504 .469561 .985529
7 1 .491960 .445007 .013280
ITEM: TIMESTEP
1
ITEM: NUMBER OF ATOMS
7
ITEM: BOX BOUNDS ss ss ss
-3.2772 3.0165
-2.9970 3.0745
-1.8400 2.1266
ITEM: ATOMS id type xs ys zs
1 1 .513792 .992221 .471765
2 1 .995197 .593947 .485716
3 1 .780406 .013798 .525571
4 1 .159031 .041488 .526196
5 1 .005541 .659131 .481726
6 1 .485605 .468920 .986432
7 1 .497128 .443758 .008164
ITEM: TIMESTEP
50
ITEM: NUMBER OF ATOMS
7
ITEM: BOX BOUNDS ss ss ss
-3.2772 3.0213
-2.9970 3.0745
-1.8400 2.1266
ITEM: ATOMS id type xs ys zs
1 1 .513416 .991875 .471681
2 1 .994608 .596111 .486883
3 1 .778909 .012376 .526263
4 1 .160557 .043559 .525113
5 1 .005857 .658258 .479587
6 1 .485236 .469344 .985219
7 1 .496178 .443221 .008035
ITEM: TIMESTEP
100
ITEM: NUMBER OF ATOMS
7
ITEM: BOX BOUNDS ss ss ss
-3.2802 3.0262
-2.9970 3.0741
-1.8400 2.1266
ITEM: ATOMS id type xs ys zs
1 1 .513477 .992930 .470707
2 1 .994292 .596162 .487518
3 1 .777557 .010319 .527260
4 1 .162939 .043421 .522810
5 1 .006362 .657041 .480241
6 1 .487093 .468632 .986828
7 1 .495950 .445541 .010008
ITEM: TIMESTEP
150
ITEM: NUMBER OF ATOMS
7
ITEM: BOX BOUNDS ss ss ss
-3.2802 3.0269
-2.9970 3.0707
-1.8483 2.1266
ITEM: ATOMS id type xs ys zs
1 1 .515859 .991022 .471440
2 1 .990561 .597118 .488959
3 1 .777086 .011938 .529768
4 1 .162557 .043762 .524402
5 1 .009360 .658741 .480403
6 1 .487445 .471020 .985193
7 1 .494703 .443830 .009274
ITEM: TIMESTEP
200
ITEM: NUMBER OF ATOMS
7
ITEM: BOX BOUNDS ss ss ss
-3.2828 3.0345
-2.9861 3.0725
-1.8407 2.1266
ITEM: ATOMS id type xs ys zs
1 1 .515872 .992016 .470932
2 1 .991983 .598391 .486869
3 1 .773121 .009656 .527729
4 1 .162598 .042868 .523303
5 1 .008022 .657266 .483467
6 1 .489582 .467835 .986189
7 1 .492731 .444277 .007401
ITEM: TIMESTEP
250
ITEM: NUMBER OF ATOMS
7
ITEM: BOX BOUNDS ss ss ss
-3.2922 3.0240
-2.9895 3.0707
-1.8450 2.1266
ITEM: ATOMS id type xs ys zs
1 1 .515944 .993680 .470954
2 1 .990644 .599477 .487160
3 1 .772650 .012347 .528326
4 1 .165854 .043434 .522953
5 1 .009689 .657172 .485218
6 1 .489996 .469874 .988794
7 1 .491493 .445060 .009042
ITEM: TIMESTEP
300
ITEM: NUMBER OF ATOMS
7
ITEM: BOX BOUNDS ss ss ss
-3.2902 3.0333
-2.9873 3.0720
-1.8480 2.1266
ITEM: ATOMS id type xs ys zs
1 1 .516823 .993236 .472866
2 1 .988924 .598464 .486430
3 1 .771908 .010390 .526811
4 1 .164453 .042562 .523852
5 1 .009995 .654503 .484202
6 1 .490515 .470334 .987692
7 1 .491224 .444986 .011693
ITEM: TIMESTEP
350
ITEM: NUMBER OF ATOMS
7
ITEM: BOX BOUNDS ss ss ss
-3.2888 3.0158
-2.9943 3.0663
-1.8538 2.1262
ITEM: ATOMS id type xs ys zs
1 1 .518608 .995034 .471676
2 1 .992596 .600074 .489873
3 1 .774714 .010718 .527890
4 1 .165027 .044765 .526262
5 1 .010790 .653774 .483317
6 1 .492170 .471632 .988225
7 1 .493171 .446284 .012167
ITEM: TIMESTEP
400
ITEM: NUMBER OF ATOMS
7
ITEM: BOX BOUNDS ss ss ss
-3.2835 3.0241
-2.9741 3.0781
-1.8498 2.1262
ITEM: ATOMS id type xs ys zs
1 1 .518179 .993268 .473120
2 1 .990558 .598181 .487903
3 1 .773268 .007763 .526837
4 1 .165114 .040695 .524246
5 1 .009735 .651144 .484702
6 1 .492047 .468707 .988096
7 1 .491750 .444078 .010899
ITEM: TIMESTEP
1
ITEM: NUMBER OF ATOMS
7
ITEM: BOX BOUNDS ss ss ss
-3.2821 3.0173
-2.9716 3.0757
-1.8533 2.1254
ITEM: ATOMS id type xs ys zs
1 1 .514124 .992037 .473551
2 1 .995089 .592098 .487607
3 1 .780479 .009611 .527334
4 1 .159690 .037497 .527873
5 1 .006264 .657605 .483628
6 1 .485952 .466629 .986730
7 1 .497442 .441320 .011565
ITEM: TIMESTEP
50
ITEM: NUMBER OF ATOMS
7
ITEM: BOX BOUNDS ss ss ss
-3.2821 3.0173
-2.9716 3.0757
-1.8533 2.1254
ITEM: ATOMS id type xs ys zs
1 1 .516003 .991408 .470439
2 1 .996340 .592621 .489888
3 1 .779451 .008073 .527699
4 1 .160142 .038319 .525276
5 1 .007875 .656659 .483628
6 1 .486580 .465789 .986422
7 1 .495636 .442211 .013516
ITEM: TIMESTEP
100
ITEM: NUMBER OF ATOMS
7
ITEM: BOX BOUNDS ss ss ss
-3.2821 3.0228
-2.9716 3.0757
-1.8533 2.1254
ITEM: ATOMS id type xs ys zs
1 1 .516194 .991642 .472432
2 1 .994617 .593447 .490232
3 1 .777486 .007607 .529202
4 1 .160362 .039383 .524786
5 1 .008377 .656550 .482849
6 1 .487467 .465392 .985104
7 1 .493518 .442413 .013566
ITEM: TIMESTEP
150
ITEM: NUMBER OF ATOMS
7
ITEM: BOX BOUNDS ss ss ss
-3.2821 3.0299
-2.9716 3.0757
-1.8442 2.1186
ITEM: ATOMS id type xs ys zs
1 1 .516289 .990735 .470865
2 1 .992304 .595008 .491472
3 1 .775829 .007018 .530791
4 1 .160634 .039109 .523849
5 1 .007771 .654570 .480341
6 1 .486671 .466066 .985578
7 1 .494353 .441388 .010880
ITEM: TIMESTEP
200
ITEM: NUMBER OF ATOMS
7
ITEM: BOX BOUNDS ss ss ss
-3.2836 3.0316
-2.9651 3.0710
-1.8442 2.1177
ITEM: ATOMS id type xs ys zs
1 1 .517363 .989940 .468216
2 1 .992573 .595926 .496920
3 1 .775350 .006286 .530976
4 1 .161502 .040233 .525023
5 1 .008862 .652770 .478698
6 1 .488264 .468348 .985499
7 1 .495828 .441391 .008876
ITEM: TIMESTEP
250
ITEM: NUMBER OF ATOMS
7
ITEM: BOX BOUNDS ss ss ss
-3.2915 3.0355
-2.9653 3.0710
-1.8445 2.1096
ITEM: ATOMS id type xs ys zs
1 1 .517846 .990674 .466342
2 1 .991040 .595527 .495709
3 1 .773565 .004819 .529468
4 1 .162773 .041833 .526906
5 1 .009095 .652741 .482064
6 1 .488165 .467907 .987532
7 1 .494306 .442572 .007537
ITEM: TIMESTEP
300
ITEM: NUMBER OF ATOMS
7
ITEM: BOX BOUNDS ss ss ss
-3.2883 3.0341
-2.9715 3.0710
-1.8448 2.1088
ITEM: ATOMS id type xs ys zs
1 1 .517738 .991890 .471654
2 1 .990236 .596209 .494155
3 1 .774766 .006753 .532946
4 1 .163487 .039983 .524113
5 1 .009392 .653151 .479153
6 1 .488177 .467517 .990689
7 1 .494743 .441963 .010343
ITEM: TIMESTEP
350
ITEM: NUMBER OF ATOMS
7
ITEM: BOX BOUNDS ss ss ss
-3.2844 3.0259
-2.9782 3.0828
-1.8434 2.1088
ITEM: ATOMS id type xs ys zs
1 1 .519980 .990712 .473634
2 1 .993294 .596199 .498880
3 1 .775847 .008333 .534632
4 1 .165577 .041522 .519026
5 1 .010550 .653090 .479197
6 1 .490287 .469282 .994984
7 1 .497009 .443079 .010228
ITEM: TIMESTEP
400
ITEM: NUMBER OF ATOMS
7
ITEM: BOX BOUNDS ss ss ss
-3.2955 3.0246
-2.9820 3.0808
-1.8485 2.1147
ITEM: ATOMS id type xs ys zs
1 1 .521019 .990857 .472728
2 1 .992912 .596778 .502325
3 1 .776917 .010238 .535287
4 1 .167674 .041959 .518175
5 1 .014071 .653390 .478787
6 1 .491164 .469978 .993740
7 1 .498685 .444759 .009355
ITEM: TIMESTEP
1
ITEM: NUMBER OF ATOMS
7
ITEM: BOX BOUNDS ss ss ss
-3.2745 3.0209
-2.9755 3.0745
-1.8458 2.1218
ITEM: ATOMS id type xs ys zs
1 1 .513238 .992199 .473029
2 1 .994541 .592503 .487065
3 1 .779782 .010298 .526832
4 1 .158576 .038134 .527490
5 1 .005091 .657986 .483043
6 1 .485008 .467068 .987627
7 1 .496572 .441741 .009662
ITEM: TIMESTEP
50
ITEM: NUMBER OF ATOMS
7
ITEM: BOX BOUNDS ss ss ss
-3.2745 3.0199
-2.9755 3.0745
-1.8458 2.1218
ITEM: ATOMS id type xs ys zs
1 1 .513969 .992599 .470727
2 1 .994167 .594734 .487489
3 1 .778205 .009573 .528273
4 1 .159310 .037737 .527073
5 1 .005170 .657530 .483697
6 1 .484819 .466356 .987508
7 1 .495449 .440120 .012541
ITEM: TIMESTEP
100
ITEM: NUMBER OF ATOMS
7
ITEM: BOX BOUNDS ss ss ss
-3.2797 3.0311
-2.9755 3.0745
-1.8458 2.1076
ITEM: ATOMS id type xs ys zs
1 1 .513761 .992462 .473383
2 1 .991785 .594217 .492367
3 1 .778019 .008803 .530734
4 1 .160323 .038283 .528404
5 1 .006870 .656631 .484479
6 1 .485635 .467479 .990502
7 1 .493800 .440323 .012895
ITEM: TIMESTEP
150
ITEM: NUMBER OF ATOMS
7
ITEM: BOX BOUNDS ss ss ss
-3.2805 3.0312
-2.9755 3.0745
-1.8457 2.1076
ITEM: ATOMS id type xs ys zs
1 1 .515325 .994536 .476539
2 1 .991865 .596570 .491081
3 1 .777211 .008778 .531668
4 1 .161958 .037113 .528009
5 1 .005457 .656416 .488693
6 1 .486288 .466611 .990149
7 1 .492996 .443752 .016063
ITEM: TIMESTEP
200
ITEM: NUMBER OF ATOMS
7
ITEM: BOX BOUNDS ss ss ss
-3.2846 3.0356
-2.9755 3.0788
-1.8457 2.1112
ITEM: ATOMS id type xs ys zs
1 1 .515405 .994900 .477555
2 1 .989852 .597269 .494881
3 1 .776796 .008687 .527958
4 1 .163842 .037965 .528565
5 1 .007069 .653754 .491077
6 1 .487748 .467661 .992594
7 1 .492428 .444592 .014309
ITEM: TIMESTEP
250
ITEM: NUMBER OF ATOMS
7
ITEM: BOX BOUNDS ss ss ss
-3.2853 3.0321
-2.9758 3.0722
-1.8433 2.1050
ITEM: ATOMS id type xs ys zs
1 1 .516742 .995046 .478124
2 1 .989003 .597175 .495043
3 1 .776679 .009668 .528174
4 1 .166797 .040928 .524702
5 1 .007983 .654085 .490841
6 1 .486698 .468458 .992276
7 1 .492193 .446264 .012156
ITEM: TIMESTEP
300
ITEM: NUMBER OF ATOMS
7
ITEM: BOX BOUNDS ss ss ss
-3.2840 3.0292
-2.9731 3.0786
-1.8385 2.1033
ITEM: ATOMS id type xs ys zs
1 1 .517718 .992454 .477071
2 1 .988702 .596439 .495048
3 1 .776181 .008670 .525375
4 1 .167331 .039265 .525535
5 1 .007460 .651466 .489269
6 1 .487278 .467130 .993503
7 1 .492961 .445564 .008577
ITEM: TIMESTEP
350
ITEM: NUMBER OF ATOMS
7
ITEM: BOX BOUNDS ss ss ss
-3.2797 3.0128
-2.9781 3.0880
-1.8343 2.1117
ITEM: ATOMS id type xs ys zs
1 1 .519085 .990790 .476085
2 1 .991869 .595415 .493642
3 1 .777606 .009039 .523920
4 1 .167260 .039931 .522627
5 1 .007543 .651435 .489001
6 1 .489789 .467012 .993197
7 1 .492338 .445512 .008204
ITEM: TIMESTEP
400
ITEM: NUMBER OF ATOMS
7
ITEM: BOX BOUNDS ss ss ss
-3.2925 3.0122
-2.9780 3.1000
-1.8391 2.1147
ITEM: ATOMS id type xs ys zs
1 1 .519990 .989948 .476104
2 1 .991090 .593925 .494330
3 1 .777872 .008053 .521736
4 1 .169536 .040360 .522077
5 1 .009490 .648609 .490685
6 1 .491054 .465132 .992840
7 1 .492680 .445153 .008058
ITEM: TIMESTEP
1
ITEM: NUMBER OF ATOMS
7
ITEM: BOX BOUNDS ss ss ss
-3.3006 3.0073
-2.9893 3.0908
-1.8408 2.1136
ITEM: ATOMS id type xs ys zs
1 1 .516347 .989585 .473357
2 1 .996709 .591833 .487381
3 1 .782395 .012497 .527368
4 1 .162403 .040190 .528024
5 1 .009235 .656960 .483378
6 1 .488177 .467014 .989680
7 1 .499720 .441843 .008445
ITEM: TIMESTEP
50
ITEM: NUMBER OF ATOMS
7
ITEM: BOX BOUNDS ss ss ss
-3.3006 3.0172
-2.9893 3.0908
-1.8408 2.1136
ITEM: ATOMS id type xs ys zs
1 1 .515705 .989266 .474315
2 1 .995029 .591097 .489007
3 1 .779669 .011584 .528268
4 1 .163930 .040074 .529053
5 1 .010163 .656006 .482676
6 1 .488118 .466644 .987952
7 1 .497136 .442074 .007700
ITEM: TIMESTEP
100
ITEM: NUMBER OF ATOMS
7
ITEM: BOX BOUNDS ss ss ss
-3.3006 3.0281
-2.9893 3.0878
-1.8415 2.1136
ITEM: ATOMS id type xs ys zs
1 1 .515651 .990710 .474422
2 1 .992575 .595857 .486364
3 1 .779387 .011603 .525304
4 1 .164547 .042207 .528891
5 1 .009575 .655417 .486190
6 1 .488673 .467198 .990743
7 1 .496880 .443813 .007355
ITEM: TIMESTEP
150
ITEM: NUMBER OF ATOMS
7
ITEM: BOX BOUNDS ss ss ss
-3.2992 3.0287
-2.9893 3.0854
-1.8398 2.1120
ITEM: ATOMS id type xs ys zs
1 1 .515785 .991661 .474952
2 1 .990611 .595668 .488647
3 1 .779817 .011075 .527298
4 1 .163322 .043295 .528309
5 1 .009257 .654343 .485198
6 1 .488474 .467428 .990201
7 1 .494746 .444739 .008805
ITEM: TIMESTEP
200
ITEM: NUMBER OF ATOMS
7
ITEM: BOX BOUNDS ss ss ss
-3.2854 3.0235
-2.9893 3.0854
-1.8484 2.1120
ITEM: ATOMS id type xs ys zs
1 1 .516376 .990584 .475114
2 1 .992211 .595453 .492625
3 1 .774952 .010040 .527877
4 1 .162472 .043502 .528075
5 1 .007603 .652066 .487142
6 1 .485007 .466052 .990857
7 1 .494201 .444670 .012802
ITEM: TIMESTEP
250
ITEM: NUMBER OF ATOMS
7
ITEM: BOX BOUNDS ss ss ss
-3.2835 3.0202
-2.9893 3.0854
-1.8447 2.1120
ITEM: ATOMS id type xs ys zs
1 1 .515513 .990581 .468769
2 1 .991316 .596214 .487329
3 1 .777339 .009931 .530218
4 1 .164131 .044163 .520075
5 1 .007277 .655707 .489692
6 1 .488911 .469379 .987935
7 1 .493247 .443733 .010046
ITEM: TIMESTEP
300
ITEM: NUMBER OF ATOMS
7
ITEM: BOX BOUNDS ss ss ss
-3.2869 3.0274
-2.9875 3.0847
-1.8459 2.1139
ITEM: ATOMS id type xs ys zs
1 1 .516926 .993338 .476680
2 1 .990341 .595174 .489320
3 1 .774147 .010832 .526450
4 1 .164052 .042996 .523556
5 1 .011451 .651730 .488741
6 1 .486464 .467354 .991479
7 1 .492677 .445749 .011009
ITEM: TIMESTEP
350
ITEM: NUMBER OF ATOMS
7
ITEM: BOX BOUNDS ss ss ss
-3.2968 3.0173
-2.9875 3.0847
-1.8450 2.1175
ITEM: ATOMS id type xs ys zs
1 1 .517856 .990346 .470343
2 1 .991660 .597352 .486368
3 1 .777273 .008040 .529413
4 1 .166578 .042930 .515899
5 1 .009272 .654486 .491899
6 1 .492406 .468374 .988543
7 1 .492687 .444715 .009869
ITEM: TIMESTEP
400
ITEM: NUMBER OF ATOMS
7
ITEM: BOX BOUNDS ss ss ss
-3.2866 3.0210
-2.9838 3.0782
-1.8493 2.1185
ITEM: ATOMS id type xs ys zs
1 1 .516989 .991603 .468970
2 1 .991045 .597835 .490628
3 1 .775659 .008434 .529045
4 1 .164664 .042779 .521585
5 1 .007294 .653954 .485946
6 1 .489423 .468555 .989536
7 1 .491334 .443896 .010589
ITEM: TIMESTEP
1
ITEM: NUMBER OF ATOMS
7
ITEM: BOX BOUNDS ss ss ss
-3.2823 3.0157
-2.9829 3.0736
-1.8474 2.1172
ITEM: ATOMS id type xs ys zs
1 1 .514250 .992344 .473815
2 1 .995344 .593093 .487790
3 1 .780670 .011516 .527654
4 1 .159739 .039311 .528309
5 1 .006332 .658497 .483793
6 1 .486056 .467773 .988806
7 1 .497573 .442508 .010055
ITEM: TIMESTEP
50
ITEM: NUMBER OF ATOMS
7
ITEM: BOX BOUNDS ss ss ss
-3.2814 3.0163
-2.9829 3.0736
-1.8452 2.1172
ITEM: ATOMS id type xs ys zs
1 1 .513430 .992156 .472877
2 1 .994725 .592614 .491465
3 1 .779901 .009283 .526514
4 1 .159832 .039837 .524996
5 1 .005829 .657436 .486309
6 1 .487183 .469118 .990260
7 1 .496361 .441580 .010719
ITEM: TIMESTEP
100
ITEM: NUMBER OF ATOMS
7
ITEM: BOX BOUNDS ss ss ss
-3.2871 3.0327
-2.9829 3.0710
-1.8452 2.1172
ITEM: ATOMS id type xs ys zs
1 1 .513134 .994919 .471285
2 1 .992148 .596306 .488093
3 1 .776581 .009165 .527195
4 1 .164495 .039948 .525849
5 1 .007554 .657580 .481525
6 1 .484803 .465814 .986426
7 1 .496335 .441534 .012541
ITEM: TIMESTEP
150
ITEM: NUMBER OF ATOMS
7
ITEM: BOX BOUNDS ss ss ss
-3.2919 3.0389
-2.9829 3.0710
-1.8512 2.1172
ITEM: ATOMS id type xs ys zs
1 1 .513763 .996334 .472920
2 1 .988827 .596614 .488504
3 1 .776411 .008544 .527918
4 1 .165283 .039226 .526420
5 1 .008149 .657355 .483387
6 1 .485375 .467184 .986003
7 1 .495832 .441390 .012079
ITEM: TIMESTEP
200
ITEM: NUMBER OF ATOMS
7
ITEM: BOX BOUNDS ss ss ss
-3.2862 3.0306
-2.9829 3.0775
-1.8457 2.1108
ITEM: ATOMS id type xs ys zs
1 1 .513659 .993714 .472167
2 1 .990757 .597324 .490736
3 1 .778799 .009142 .530721
4 1 .167102 .037992 .529985
5 1 .005206 .656357 .480103
6 1 .486782 .467338 .988067
7 1 .494750 .441545 .012674
ITEM: TIMESTEP
250
ITEM: NUMBER OF ATOMS
7
ITEM: BOX BOUNDS ss ss ss
-3.3018 3.0302
-2.9829 3.0788
-1.8439 2.1108
ITEM: ATOMS id type xs ys zs
1 1 .514728 .994027 .474735
2 1 .990290 .597078 .489639
3 1 .779315 .008648 .532589
4 1 .169216 .040882 .528546
5 1 .009591 .655804 .478384
6 1 .486569 .468160 .989728
7 1 .495074 .441914 .010509
ITEM: TIMESTEP
300
ITEM: NUMBER OF ATOMS
7
ITEM: BOX BOUNDS ss ss ss
-3.2950 3.0277
-2.9829 3.0718
-1.8401 2.1193
ITEM: ATOMS id type xs ys zs
1 1 .514277 .996072 .471674
2 1 .991093 .599221 .485884
3 1 .778664 .009500 .529783
4 1 .168442 .040604 .526009
5 1 .009349 .656521 .476666
6 1 .486185 .469295 .985883
7 1 .493517 .443255 .009066
ITEM: TIMESTEP
350
ITEM: NUMBER OF ATOMS
7
ITEM: BOX BOUNDS ss ss ss
-3.2939 3.0243
-2.9793 3.0810
-1.8333 2.1108
ITEM: ATOMS id type xs ys zs
1 1 .515162 .994559 .469544
2 1 .990422 .598405 .483594
3 1 .778579 .009537 .530314
4 1 .168629 .040251 .525393
5 1 .007782 .654142 .477995
6 1 .486408 .469069 .987981
7 1 .493938 .443322 .004831
ITEM: TIMESTEP
400
ITEM: NUMBER OF ATOMS
7
ITEM: BOX BOUNDS ss ss ss
-3.3022 3.0204
-2.9797 3.0806
-1.8399 2.1049
ITEM: ATOMS id type xs ys zs
1 1 .517148 .992083 .476621
2 1 .991756 .596323 .491299
3 1 .780270 .007817 .530805
4 1 .170766 .038432 .528385
5 1 .011524 .651982 .477859
6 1 .489940 .468463 .988536
7 1 .496337 .441362 .011246
ITEM: TIMESTEP
1
ITEM: NUMBER OF ATOMS
7
ITEM: BOX BOUNDS ss ss ss
-3.2876 3.0174
-2.9807 3.0833
-1.8360 2.1045
ITEM: ATOMS id type xs ys zs
1 1 .514583 .990772 .473820
2 1 .994982 .592042 .487834
3 1 .780694 .011115 .527949
4 1 .160421 .038964 .528510
5 1 .007164 .657221 .483938
6 1 .486361 .466820 .992009
7 1 .497853 .441667 .007281
ITEM: TIMESTEP
50
ITEM: NUMBER OF ATOMS
7
ITEM: BOX BOUNDS ss ss ss
-3.2876 3.0174
-2.9807 3.0833
-1.8360 2.1045
ITEM: ATOMS id type xs ys zs
1 1 .515114 .989482 .473039
2 1 .996472 .593185 .489143
3 1 .781662 .009840 .526502
4 1 .162550 .039861 .527896
5 1 .007599 .656976 .483398
6 1 .486904 .466399 .988948
7 1 .497954 .441165 .008573
ITEM: TIMESTEP
100
ITEM: NUMBER OF ATOMS
7
ITEM: BOX BOUNDS ss ss ss
-3.2890 3.0320
-2.9807 3.0833
-1.8399 2.1058
ITEM: ATOMS id type xs ys zs
1 1 .515268 .989720 .469769
2 1 .993955 .594100 .487210
3 1 .777833 .010138 .528905
4 1 .161499 .041666 .524525
5 1 .008006 .656955 .485281
6 1 .485666 .466103 .988978
7 1 .495336 .442753 .011529
ITEM: TIMESTEP
150
ITEM: NUMBER OF ATOMS
7
ITEM: BOX BOUNDS ss ss ss
-3.2876 3.0411
-2.9807 3.0833
-1.8354 2.0995
ITEM: ATOMS id type xs ys zs
1 1 .514528 .990043 .468847
2 1 .992517 .594095 .487816
3 1 .776269 .008752 .530613
4 1 .161302 .040731 .527571
5 1 .008943 .656352 .483871
6 1 .485640 .467081 .990800
7 1 .494007 .441699 .008916
ITEM: TIMESTEP
200
ITEM: NUMBER OF ATOMS
7
ITEM: BOX BOUNDS ss ss ss
-3.2974 3.0425
-2.9807 3.0833
-1.8367 2.0995
ITEM: ATOMS id type xs ys zs
1 1 .517506 .991311 .463978
2 1 .990158 .595418 .490243
3 1 .776352 .008553 .533325
4 1 .161336 .040800 .526682
5 1 .009999 .655394 .484558
6 1 .485623 .466709 .992248
7 1 .494254 .441155 .006708
ITEM: TIMESTEP
250
ITEM: NUMBER OF ATOMS
7
ITEM: BOX BOUNDS ss ss ss
-3.2889 3.0489
-2.9807 3.0833
-1.8349 2.0972
ITEM: ATOMS id type xs ys zs
1 1 .516561 .990607 .464499
2 1 .988895 .595896 .490009
3 1 .775378 .008901 .533834
4 1 .159969 .041611 .524581
5 1 .009241 .653641 .483823
6 1 .485219 .467426 .991215
7 1 .492405 .441619 .007781
ITEM: TIMESTEP
300
ITEM: NUMBER OF ATOMS
7
ITEM: BOX BOUNDS ss ss ss
-3.2962 3.0348
-2.9807 3.0833
-1.8427 2.1047
ITEM: ATOMS id type xs ys zs
1 1 .518531 .991423 .464794
2 1 .990984 .595851 .490592
3 1 .776415 .008754 .534163
4 1 .162678 .042113 .524767
5 1 .010840 .653239 .482613
6 1 .487405 .467284 .988696
7 1 .493710 .441435 .010321
ITEM: TIMESTEP
350
ITEM: NUMBER OF ATOMS
7
ITEM: BOX BOUNDS ss ss ss
-3.2872 3.0335
-2.9807 3.0785
-1.8507 2.1008
ITEM: ATOMS id type xs ys zs
1 1 .519611 .992091 .467901
2 1 .991179 .596244 .493207
3 1 .776145 .008434 .537853
4 1 .162482 .042161 .525514
5 1 .010192 .653750 .484271
6 1 .487137 .468352 .989464
7 1 .493387 .442063 .010130
ITEM: TIMESTEP
400
ITEM: NUMBER OF ATOMS
7
ITEM: BOX BOUNDS ss ss ss
-3.2817 3.0289
-2.9807 3.0785
-1.8420 2.1069
ITEM: ATOMS id type xs ys zs
1 1 .520807 .992364 .467959
2 1 .990768 .597214 .492118
3 1 .775714 .008617 .538428
4 1 .164478 .043603 .521108
5 1 .010178 .654632 .477960
6 1 .485941 .469646 .987218
7 1 .494039 .443608 .008628
ITEM: TIMESTEP
1
ITEM: NUMBER OF ATOMS
7
ITEM: BOX BOUNDS ss ss ss
-3.2848 3.0270
-2.9737 3.0785
-1.8371 2.1030
ITEM: ATOMS id type xs ys zs
1 1 .513544 .991529 .474077
2 1 .993581 .592000 .488194
3 1 .779397 .009986 .528331
4 1 .159815 .037811 .528975
5 1 .006720 .657411 .484163
6 1 .485370 .466598 .992328
7 1 .496900 .441278 .007579
ITEM: TIMESTEP
50
ITEM: NUMBER OF ATOMS
7
ITEM: BOX BOUNDS ss ss ss
-3.2772 3.0270
-2.9737 3.0785
-1.8371 2.1030
ITEM: ATOMS id type xs ys zs
1 1 .514142 .990054 .474740
2 1 .995022 .592396 .487055
3 1 .778135 .010980 .530772
4 1 .158573 .040100 .529292
5 1 .006877 .656185 .481907
6 1 .486386 .464440 .991497
7 1 .494115 .441577 .009052
ITEM: TIMESTEP
100
ITEM: NUMBER OF ATOMS
7
ITEM: BOX BOUNDS ss ss ss
-3.2799 3.0317
-2.9737 3.0785
-1.8426 2.1030
ITEM: ATOMS id type xs ys zs
1 1 .514499 .989926 .477489
2 1 .993139 .592732 .488063
3 1 .778269 .009289 .527940
4 1 .158713 .039333 .528277
5 1 .009047 .655889 .482611
6 1 .487131 .464994 .989538
7 1 .493111 .441996 .009744
ITEM: TIMESTEP
150
ITEM: NUMBER OF ATOMS
7
ITEM: BOX BOUNDS ss ss ss
-3.2897 3.0381
-2.9737 3.0785
-1.8521 2.1036
ITEM: ATOMS id type xs ys zs
1 1 .517383 .987798 .472359
2 1 .990623 .593077 .490189
3 1 .777672 .007856 .533232
4 1 .161806 .041256 .529887
5 1 .008102 .656287 .489093
6 1 .485550 .466430 .990921
7 1 .495266 .440051 .010352
ITEM: TIMESTEP
200
ITEM: NUMBER OF ATOMS
7
ITEM: BOX BOUNDS ss ss ss
-3.2826 3.0486
-2.9737 3.0785
-1.8567 2.1116
ITEM: ATOMS id type xs ys zs
1 1 .513729 .991056 .477103
2 1 .986632 .595369 .492688
3 1 .777037 .005911 .529754
4 1 .162202 .040475 .528792
5 1 .007054 .655772 .485957
6 1 .484557 .464988 .988952
7 1 .494368 .439005 .013653
ITEM: TIMESTEP
250
ITEM: NUMBER OF ATOMS
7
ITEM: BOX BOUNDS ss ss ss
-3.2903 3.0401
-2.9771 3.0785
-1.8511 2.1130
ITEM: ATOMS id type xs ys zs
1 1 .514815 .990835 .478706
2 1 .987244 .595062 .490747
3 1 .779195 .003169 .528099
4 1 .163447 .040388 .526733
5 1 .009305 .654278 .482521
6 1 .489292 .464883 .987619
7 1 .494247 .441538 .011342
ITEM: TIMESTEP
300
ITEM: NUMBER OF ATOMS
7
ITEM: BOX BOUNDS ss ss ss
-3.2908 3.0523
-2.9835 3.0785
-1.8505 2.1266
ITEM: ATOMS id type xs ys zs
1 1 .516427 .987121 .469683
2 1 .985725 .596260 .489274
3 1 .776323 .007652 .528653
4 1 .163439 .042953 .523880
5 1 .006591 .654471 .480622
6 1 .485862 .466408 .990046
7 1 .491050 .441335 .010654
ITEM: TIMESTEP
350
ITEM: NUMBER OF ATOMS
7
ITEM: BOX BOUNDS ss ss ss
-3.2897 3.0525
-2.9875 3.0785
-1.8432 2.1274
ITEM: ATOMS id type xs ys zs
1 1 .513472 .990304 .473846
2 1 .986464 .600603 .485908
3 1 .774759 .006256 .525051
4 1 .162556 .043432 .523539
5 1 .009228 .652839 .475963
6 1 .489355 .466371 .982128
7 1 .493049 .442250 .010302
ITEM: TIMESTEP
400
ITEM: NUMBER OF ATOMS
7
ITEM: BOX BOUNDS ss ss ss
-3.2977 3.0444
-2.9900 3.0715
-1.8501 2.1328
ITEM: ATOMS id type xs ys zs
1 1 .518238 .993085 .472553
2 1 .987949 .599309 .485525
3 1 .777260 .007577 .526289
4 1 .163560 .039927 .524766
5 1 .013522 .653873 .475605
6 1 .491800 .465790 .987566
7 1 .492882 .443607 .013393
ITEM: TIMESTEP
1
ITEM: NUMBER OF ATOMS
7
ITEM: BOX BOUNDS ss ss ss
-3.2831 3.0357
-2.9896 3.0669
-1.8449 2.1234
ITEM: ATOMS id type xs ys zs
1 1 .512681 .993450 .472706
2 1 .992216 .594178 .486691
3 1 .778252 .012610 .526528
4 1 .159355 .040404 .527208
5 1 .006449 .659580 .482752
6 1 .484568 .468896 .987227
7 1 .496103 .443622 .009399
ITEM: TIMESTEP
50
ITEM: NUMBER OF ATOMS
7
ITEM: BOX BOUNDS ss ss ss
-3.2831 3.0357
-2.9896 3.0669
-1.8449 2.1234
ITEM: ATOMS id type xs ys zs
1 1 .512549 .993598 .472903
2 1 .993436 .594971 .489171
3 1 .778220 .012721 .529455
4 1 .160273 .041898 .527584
5 1 .007650 .659392 .484699
6 1 .484525 .469709 .986449
7 1 .495052 .442094 .010567
ITEM: TIMESTEP
100
ITEM: NUMBER OF ATOMS
7
ITEM: BOX BOUNDS ss ss ss
-3.2882 3.0357
-2.9896 3.0669
-1.8451 2.1204
ITEM: ATOMS id type xs ys zs
1 1 .511961 .991914 .472793
2 1 .991420 .595649 .489476
3 1 .779945 .011742 .531861
4 1 .162538 .042895 .525523
5 1 .009748 .656959 .482043
6 1 .484335 .469881 .989151
7 1 .495311 .440013 .012741
ITEM: TIMESTEP
150
ITEM: NUMBER OF ATOMS
7
ITEM: BOX BOUNDS ss ss ss
-3.2985 3.0357
-2.9842 3.0669
-1.8391 2.1204
ITEM: ATOMS id type xs ys zs
1 1 .514941 .990859 .472612
2 1 .992092 .596186 .487851
3 1 .779252 .010921 .529739
4 1 .163399 .040351 .524931
5 1 .010595 .659427 .481483
6 1 .485772 .469182 .987838
7 1 .496446 .444590 .007859
ITEM: TIMESTEP
200
ITEM: NUMBER OF ATOMS
7
ITEM: BOX BOUNDS ss ss ss
-3.3123 3.0367
-2.9823 3.0651
-1.8397 2.1204
ITEM: ATOMS id type xs ys zs
1 1 .514145 .991643 .470678
2 1 .990795 .595952 .486210
3 1 .778510 .008310 .529878
4 1 .161759 .044964 .525514
5 1 .007030 .657076 .479158
6 1 .486895 .468767 .985412
7 1 .493819 .444065 .013895
ITEM: TIMESTEP
250
ITEM: NUMBER OF ATOMS
7
ITEM: BOX BOUNDS ss ss ss
-3.3187 3.0357
-2.9823 3.0651
-1.8414 2.1212
ITEM: ATOMS id type xs ys zs
1 1 .514242 .990661 .466873
2 1 .991230 .595775 .486316
3 1 .776873 .009400 .528769
4 1 .162798 .043386 .526529
5 1 .009481 .656867 .478334
6 1 .488084 .468296 .987801
7 1 .493320 .444432 .014739
ITEM: TIMESTEP
300
ITEM: NUMBER OF ATOMS
7
ITEM: BOX BOUNDS ss ss ss
-3.3190 3.0357
-2.9773 3.0651
-1.8287 2.1195
ITEM: ATOMS id type xs ys zs
1 1 .515899 .992011 .467296
2 1 .992259 .596223 .481839
3 1 .775764 .009311 .527736
4 1 .161805 .044285 .523773
5 1 .008575 .655397 .477828
6 1 .487285 .468970 .987459
7 1 .493353 .444171 .010055
ITEM: TIMESTEP
350
ITEM: NUMBER OF ATOMS
7
ITEM: BOX BOUNDS ss ss ss
-3.3238 3.0404
-2.9759 3.0651
-1.8397 2.1195
ITEM: ATOMS id type xs ys zs
1 1 .516807 .989932 .472017