ITEM: TIMESTEP
1
ITEM: NUMBER OF ATOMS
7
ITEM: BOX BOUNDS ss ss ss
-3.2463 2.9906
-2.9162 3.0311
-1.8113 2.0768
ITEM: ATOMS id type xs ys zs
1 1 .513413 .999384 .473875
2 1 .999401 .592636 .488010
3 1 .782679 .000593 .528704
4 1 .155434 .028701 .529486
5 1 .000584 .659483 .484085
6 1 .484961 .465140 .998992
7 1 .496871 .439396 .000934
ITEM: TIMESTEP
50
ITEM: NUMBER OF ATOMS
7
ITEM: BOX BOUNDS ss ss ss
-3.2729 3.0180
-2.9379 3.0536
-1.8368 2.0976
ITEM: ATOMS id type xs ys zs
1 1 .513311 .995453 .474864
2 1 .995276 .592135 .488741
3 1 .780312 .004021 .529174
4 1 .158369 .032501 .529819
5 1 .004767 .658229 .484791
6 1 .484832 .465172 .993203
7 1 .496568 .439786 .007730
ITEM: TIMESTEP
100
ITEM: NUMBER OF ATOMS
7
ITEM: BOX BOUNDS ss ss ss
-3.2787 3.0245
-2.9546 3.0608
-1.8355 2.1087
ITEM: ATOMS id type xs ys zs
1 1 .514183 .994003 .473080
2 1 .994286 .593382 .487999
3 1 .779268 .005910 .527357
4 1 .159561 .036176 .527367
5 1 .005722 .657659 .483311
6 1 .485190 .466396 .989697
7 1 .495309 .440891 .008778
ITEM: TIMESTEP
150
ITEM: NUMBER OF ATOMS
7
ITEM: BOX BOUNDS ss ss ss
-3.2818 3.0253
-2.9637 3.0661
-1.8357 2.1065
ITEM: ATOMS id type xs ys zs
1 1 .515420 .992905 .473291
2 1 .994368 .594683 .488699
3 1 .778894 .006589 .527908
4 1 .160634 .038630 .527178
5 1 .006742 .656579 .483736
6 1 .486347 .466921 .990219
7 1 .494794 .441055 .009680
ITEM: TIMESTEP
200
ITEM: NUMBER OF ATOMS
7
ITEM: BOX BOUNDS ss ss ss
-3.2819 3.0209
-2.9697 3.0656
-1.8310 2.1124
ITEM: ATOMS id type xs ys zs
1 1 .517078 .993095 .472111
2 1 .994048 .595799 .487300
3 1 .779037 .007031 .529398
4 1 .161088 .040354 .526322
5 1 .007938 .656101 .480649
6 1 .488136 .467548 .989433
7 1 .494273 .441178 .008851
ITEM: TIMESTEP
250
ITEM: NUMBER OF ATOMS
7
ITEM: BOX BOUNDS ss ss ss
-3.2832 3.0190
-2.9784 3.0752
-1.8375 2.1146
ITEM: ATOMS id type xs ys zs
1 1 .518095 .991577 .472247
2 1 .993089 .595675 .488667
3 1 .778154 .007820 .531698
4 1 .161788 .041413 .526534
5 1 .008760 .654888 .479499
6 1 .489123 .467731 .989911
7 1 .493440 .441381 .010600
ITEM: TIMESTEP
300
ITEM: NUMBER OF ATOMS
7
ITEM: BOX BOUNDS ss ss ss
-3.2858 3.0249
-2.9803 3.0710
-1.8365 2.1218
ITEM: ATOMS id type xs ys zs
1 1 .518053 .992246 .470767
2 1 .991278 .596725 .488230
3 1 .776507 .007817 .531383
4 1 .162559 .041632 .525204
5 1 .009083 .654894 .477966
6 1 .489024 .468354 .988721
7 1 .492688 .441826 .010199
ITEM: TIMESTEP
350
ITEM: NUMBER OF ATOMS
7
ITEM: BOX BOUNDS ss ss ss
-3.2860 3.0224
-2.9857 3.0684
-1.8431 2.1328
ITEM: ATOMS id type xs ys zs
1 1 .518328 .992793 .470137
2 1 .990983 .597716 .488251
3 1 .775820 .008693 .531349
4 1 .163201 .042399 .524437
5 1 .008975 .654984 .477143
6 1 .488984 .469456 .986458
7 1 .492649 .442555 .011525
ITEM: TIMESTEP
400
ITEM: NUMBER OF ATOMS
7
ITEM: BOX BOUNDS ss ss ss
-3.2838 3.0194
-2.9866 3.0754
-1.8497 2.1359
ITEM: ATOMS id type xs ys zs
1 1 .518391 .991858 .470390
2 1 .990892 .597253 .489266
3 1 .775279 .009063 .532653
4 1 .163586 .042256 .524830
5 1 .008491 .653701 .477563
6 1 .488722 .469519 .986169
7 1 .492372 .442394 .012807
ITEM: TIMESTEP
1
ITEM: NUMBER OF ATOMS
7
ITEM: BOX BOUNDS ss ss ss
-3.2848 3.0073
-2.9826 3.0756
-1.8480 2.1373
ITEM: ATOMS id type xs ys zs
1 1 .515021 .992046 .471532
2 1 .996748 .592743 .485324
3 1 .781928 .011552 .525025
4 1 .160184 .039146 .525797
5 1 .006693 .658369 .481499
6 1 .486824 .467588 .983830
7 1 .498627 .442317 .010144
ITEM: TIMESTEP
50
ITEM: NUMBER OF ATOMS
7
ITEM: BOX BOUNDS ss ss ss
-3.2848 3.0160
-2.9826 3.0756
-1.8439 2.1373
ITEM: ATOMS id type xs ys zs
1 1 .514281 .991923 .471131
2 1 .995712 .592930 .484606
3 1 .781032 .011364 .524571
4 1 .159894 .039359 .525442
5 1 .006668 .658365 .480927
6 1 .485983 .467405 .983346
7 1 .497775 .442316 .009386
ITEM: TIMESTEP
100
ITEM: NUMBER OF ATOMS
7
ITEM: BOX BOUNDS ss ss ss
-3.2848 3.0276
-2.9811 3.0756
-1.8439 2.1373
ITEM: ATOMS id type xs ys zs
1 1 .514485 .992271 .472126
2 1 .993773 .593818 .485097
3 1 .779621 .010220 .524660
4 1 .159638 .040480 .524990
5 1 .006557 .656985 .479649
6 1 .486036 .467011 .982320
7 1 .495334 .442256 .010068
ITEM: TIMESTEP
150
ITEM: NUMBER OF ATOMS
7
ITEM: BOX BOUNDS ss ss ss
-3.2820 3.0290
-2.9811 3.0756
-1.8439 2.1373
ITEM: ATOMS id type xs ys zs
1 1 .514956 .992220 .473024
2 1 .993384 .594769 .485708
3 1 .779183 .009874 .524457
4 1 .159575 .041576 .523835
5 1 .006175 .656151 .478984
6 1 .486630 .466932 .982153
7 1 .493654 .442216 .011083
ITEM: TIMESTEP
200
ITEM: NUMBER OF ATOMS
7
ITEM: BOX BOUNDS ss ss ss
-3.2909 3.0343
-2.9739 3.0756
-1.8439 2.1373
ITEM: ATOMS id type xs ys zs
1 1 .515570 .991664 .472322
2 1 .991982 .595801 .486520
3 1 .778520 .008447 .524120
4 1 .161047 .040593 .523360
5 1 .007637 .655344 .478940
6 1 .487463 .466141 .982198
7 1 .492944 .441499 .011698
ITEM: TIMESTEP
250
ITEM: NUMBER OF ATOMS
7
ITEM: BOX BOUNDS ss ss ss
-3.2951 3.0294
-2.9750 3.0756
-1.8394 2.1373
ITEM: ATOMS id type xs ys zs
1 1 .516920 .991539 .471589
2 1 .992061 .596890 .486647
3 1 .778331 .008394 .524574
4 1 .162168 .041135 .522813
5 1 .008624 .654826 .478149
6 1 .488643 .466466 .982492
7 1 .493093 .442069 .010661
ITEM: TIMESTEP
300
ITEM: NUMBER OF ATOMS
7
ITEM: BOX BOUNDS ss ss ss
-3.2845 3.0316
-2.9882 3.0728
-1.8507 2.1373
ITEM: ATOMS id type xs ys zs
1 1 .516611 .992250 .472181
2 1 .991203 .598377 .488253
3 1 .776740 .010089 .526896
4 1 .161306 .043254 .524277
5 1 .007347 .655205 .480025
6 1 .488153 .468165 .982901
7 1 .491818 .443807 .013641
ITEM: TIMESTEP
350
ITEM: NUMBER OF ATOMS
7
ITEM: BOX BOUNDS ss ss ss
-3.2853 3.0232
-2.9920 3.0765
-1.8466 2.1373
ITEM: ATOMS id type xs ys zs
1 1 .517889 .991645 .470365
2 1 .992203 .598149 .488245
3 1 .776728 .009916 .526359
4 1 .162349 .043545 .523615
5 1 .008004 .654019 .480487
6 1 .489436 .468149 .983842
7 1 .492702 .443944 .012701
ITEM: TIMESTEP
400
ITEM: NUMBER OF ATOMS
7
ITEM: BOX BOUNDS ss ss ss
-3.2903 3.0188
-2.9963 3.0770
-1.8516 2.1373
ITEM: ATOMS id type xs ys zs
1 1 .518862 .991204 .469962
2 1 .992624 .597890 .490135
3 1 .776257 .009801 .526071
4 1 .163475 .044084 .524111
5 1 .009335 .653005 .482715
6 1 .490833 .468260 .985039
7 1 .493594 .444300 .013850
ITEM: TIMESTEP
1
ITEM: NUMBER OF ATOMS
7
ITEM: BOX BOUNDS ss ss ss
-3.2772 3.0165
-2.9970 3.0745
-1.8400 2.1266
ITEM: ATOMS id type xs ys zs
1 1 .513687 .992243 .471743
2 1 .995298 .593812 .485600
3 1 .780531 .013898 .525486
4 1 .158936 .041424 .526261
5 1 .005484 .659298 .481752
6 1 .485496 .468932 .986464
7 1 .497301 .443714 .008153
ITEM: TIMESTEP
50
ITEM: NUMBER OF ATOMS
7
ITEM: BOX BOUNDS ss ss ss
-3.2772 3.0213
-2.9970 3.0745
-1.8400 2.1266
ITEM: ATOMS id type xs ys zs
1 1 .513166 .992156 .471833
2 1 .994926 .594017 .485516
3 1 .780192 .013817 .525595
4 1 .158755 .041674 .526369
5 1 .005432 .659400 .481769
6 1 .484808 .468814 .986034
7 1 .496806 .443655 .008346
ITEM: TIMESTEP
100
ITEM: NUMBER OF ATOMS
7
ITEM: BOX BOUNDS ss ss ss
-3.2802 3.0262
-2.9970 3.0741
-1.8400 2.1266
ITEM: ATOMS id type xs ys zs
1 1 .513336 .992038 .471534
2 1 .994320 .595607 .486085
3 1 .778914 .012909 .526623
4 1 .160116 .043167 .525397
5 1 .006073 .658983 .480729
6 1 .485063 .469138 .984366
7 1 .495749 .443332 .009112
ITEM: TIMESTEP
150
ITEM: NUMBER OF ATOMS
7
ITEM: BOX BOUNDS ss ss ss
-3.2802 3.0269
-2.9970 3.0707
-1.8483 2.1266
ITEM: ATOMS id type xs ys zs
1 1 .513612 .992553 .472842
2 1 .993696 .596811 .487473
3 1 .778509 .011671 .528492
4 1 .160711 .043897 .525219
5 1 .006247 .658829 .480048
6 1 .485862 .469781 .983901
7 1 .494909 .443429 .011865
ITEM: TIMESTEP
200
ITEM: NUMBER OF ATOMS
7
ITEM: BOX BOUNDS ss ss ss
-3.2828 3.0345
-2.9861 3.0725
-1.8407 2.1266
ITEM: ATOMS id type xs ys zs
1 1 .513773 .992060 .471846
2 1 .992051 .596396 .486799
3 1 .777494 .009541 .528122
4 1 .161426 .042668 .524013
5 1 .006624 .657403 .477747
6 1 .486335 .468892 .984132
7 1 .493924 .442514 .010281
ITEM: TIMESTEP
250
ITEM: NUMBER OF ATOMS
7
ITEM: BOX BOUNDS ss ss ss
-3.2922 3.0240
-2.9895 3.0707
-1.8450 2.1266
ITEM: ATOMS id type xs ys zs
1 1 .516131 .992144 .472163
2 1 .992784 .597695 .487007
3 1 .778766 .010334 .528824
4 1 .163467 .044153 .524397
5 1 .008204 .657479 .476938
6 1 .488677 .469536 .984754
7 1 .494626 .443161 .010797
ITEM: TIMESTEP
300
ITEM: NUMBER OF ATOMS
7
ITEM: BOX BOUNDS ss ss ss
-3.2902 3.0333
-2.9873 3.0720
-1.8480 2.1266
ITEM: ATOMS id type xs ys zs
1 1 .515955 .991768 .472603
2 1 .990713 .598317 .486956
3 1 .776172 .010230 .529332
4 1 .163633 .044088 .524278
5 1 .008288 .656820 .478008
6 1 .488596 .469403 .985816
7 1 .492973 .443290 .011021
ITEM: TIMESTEP
350
ITEM: NUMBER OF ATOMS
7
ITEM: BOX BOUNDS ss ss ss
-3.2888 3.0158
-2.9943 3.0663
-1.8538 2.1262
ITEM: ATOMS id type xs ys zs
1 1 .517799 .993323 .474359
2 1 .993116 .599948 .487999
3 1 .776103 .011495 .529066
4 1 .164175 .044726 .524684
5 1 .008923 .656389 .481346
6 1 .491227 .470684 .986803
7 1 .493423 .445160 .012739
ITEM: TIMESTEP
400
ITEM: NUMBER OF ATOMS
7
ITEM: BOX BOUNDS ss ss ss
-3.2835 3.0241
-2.9741 3.0781
-1.8498 2.1262
ITEM: ATOMS id type xs ys zs
1 1 .517002 .992175 .474457
2 1 .991614 .597591 .487177
3 1 .773889 .007801 .527918
4 1 .163248 .041297 .524195
5 1 .008587 .652774 .481883
6 1 .490946 .468278 .987185
7 1 .492020 .443179 .011900
ITEM: TIMESTEP
1
ITEM: NUMBER OF ATOMS
7
ITEM: BOX BOUNDS ss ss ss
-3.2821 3.0173
-2.9716 3.0757
-1.8533 2.1254
ITEM: ATOMS id type xs ys zs
1 1 .514002 .992010 .473651
2 1 .995173 .591983 .487463
3 1 .780603 .009752 .527232
4 1 .159573 .037389 .527995
5 1 .006264 .657738 .483634
6 1 .485833 .466604 .986805
7 1 .497631 .441286 .011484
ITEM: TIMESTEP
50
ITEM: NUMBER OF ATOMS
7
ITEM: BOX BOUNDS ss ss ss
-3.2821 3.0173
-2.9716 3.0757
-1.8533 2.1254
ITEM: ATOMS id type xs ys zs
1 1 .513866 .991900 .473819
2 1 .995635 .592053 .487273
3 1 .781044 .009726 .527292
4 1 .159404 .037596 .528129
5 1 .006216 .657976 .483640
6 1 .485565 .466469 .986375
7 1 .497634 .441173 .011676
ITEM: TIMESTEP
100
ITEM: NUMBER OF ATOMS
7
ITEM: BOX BOUNDS ss ss ss
-3.2821 3.0228
-2.9716 3.0757
-1.8533 2.1254
ITEM: ATOMS id type xs ys zs
1 1 .514921 .991260 .472495
2 1 .995131 .592646 .488505
3 1 .779854 .008554 .528028
4 1 .160012 .038970 .526102
5 1 .006820 .657254 .483034
6 1 .485791 .466334 .985130
7 1 .495922 .441674 .013222
ITEM: TIMESTEP
150
ITEM: NUMBER OF ATOMS
7
ITEM: BOX BOUNDS ss ss ss
-3.2821 3.0299
-2.9716 3.0757
-1.8442 2.1186
ITEM: ATOMS id type xs ys zs
1 1 .515592 .991377 .471574
2 1 .994016 .593232 .488373
3 1 .778683 .008103 .528467
4 1 .160026 .039451 .525214
5 1 .007103 .656594 .482070
6 1 .485843 .466147 .985632
7 1 .493607 .442013 .011842
ITEM: TIMESTEP
200
ITEM: NUMBER OF ATOMS
7
ITEM: BOX BOUNDS ss ss ss
-3.2836 3.0316
-2.9651 3.0710
-1.8442 2.1177
ITEM: ATOMS id type xs ys zs
1 1 .516353 .991935 .471760
2 1 .993154 .594273 .489443
3 1 .777722 .006788 .529676
4 1 .160167 .038541 .524719
5 1 .007364 .655963 .480479
6 1 .486110 .465418 .985754
7 1 .492917 .441584 .012002
ITEM: TIMESTEP
250
ITEM: NUMBER OF ATOMS
7
ITEM: BOX BOUNDS ss ss ss
-3.2915 3.0355
-2.9653 3.0710
-1.8445 2.1096
ITEM: ATOMS id type xs ys zs
1 1 .516981 .991423 .473097
2 1 .992026 .595446 .491848
3 1 .776591 .006384 .531713
4 1 .161526 .038758 .525491
5 1 .008464 .655218 .480061
6 1 .486894 .465519 .987411
7 1 .493398 .441311 .011481
ITEM: TIMESTEP
300
ITEM: NUMBER OF ATOMS
7
ITEM: BOX BOUNDS ss ss ss
-3.2883 3.0341
-2.9715 3.0710
-1.8448 2.1088
ITEM: ATOMS id type xs ys zs
1 1 .517189 .991404 .473156
2 1 .991512 .596816 .492387
3 1 .776197 .006956 .532018
4 1 .161517 .039899 .525415
5 1 .008099 .654882 .479131
6 1 .487166 .466225 .987862
7 1 .493227 .441634 .011193
ITEM: TIMESTEP
350
ITEM: NUMBER OF ATOMS
7
ITEM: BOX BOUNDS ss ss ss
-3.2844 3.0259
-2.9782 3.0828
-1.8434 2.1088
ITEM: ATOMS id type xs ys zs
1 1 .517807 .989639 .472568
2 1 .992098 .596562 .492527
3 1 .776681 .007568 .532113
4 1 .161488 .041123 .525433
5 1 .007761 .653310 .478384
6 1 .487867 .466166 .988388
7 1 .493519 .441128 .010683
ITEM: TIMESTEP
400
ITEM: NUMBER OF ATOMS
7
ITEM: BOX BOUNDS ss ss ss
-3.2955 3.0246
-2.9820 3.0808
-1.8485 2.1147
ITEM: ATOMS id type xs ys zs
1 1 .519195 .990128 .472025
2 1 .991839 .597370 .493232
3 1 .776714 .007962 .531830
4 1 .163146 .042122 .525454
5 1 .009859 .653308 .478259
6 1 .489481 .467055 .987691
7 1 .494480 .441534 .011705
ITEM: TIMESTEP
1
ITEM: NUMBER OF ATOMS
7
ITEM: BOX BOUNDS ss ss ss
-3.2745 3.0209
-2.9755 3.0745
-1.8458 2.1218
ITEM: ATOMS id type xs ys zs
1 1 .513115 .992226 .473092
2 1 .994601 .592374 .486937
3 1 .779893 .010400 .526813
4 1 .158461 .038025 .527582
5 1 .005050 .658105 .483096
6 1 .484931 .467052 .987669
7 1 .496736 .441744 .009627
ITEM: TIMESTEP
50
ITEM: NUMBER OF ATOMS
7
ITEM: BOX BOUNDS ss ss ss
-3.2745 3.0199
-2.9755 3.0745
-1.8458 2.1218
ITEM: ATOMS id type xs ys zs
1 1 .512964 .992093 .473283
2 1 .995193 .592358 .486587
3 1 .780446 .010434 .526778
4 1 .158189 .038100 .527855
5 1 .004899 .658416 .483101
6 1 .484612 .466932 .987164
7 1 .496929 .441682 .009826
ITEM: TIMESTEP
100
ITEM: NUMBER OF ATOMS
7
ITEM: BOX BOUNDS ss ss ss
-3.2797 3.0311
-2.9755 3.0745
-1.8458 2.1076
ITEM: ATOMS id type xs ys zs
1 1 .513291 .991685 .474391
2 1 .993420 .593411 .488765
3 1 .779170 .009731 .529020
4 1 .158764 .039051 .529494
5 1 .005843 .657860 .484559
6 1 .484179 .466621 .989703
7 1 .495104 .441509 .011464
ITEM: TIMESTEP
150
ITEM: NUMBER OF ATOMS
7
ITEM: BOX BOUNDS ss ss ss
-3.2805 3.0312
-2.9755 3.0745
-1.8457 2.1076
ITEM: ATOMS id type xs ys zs
1 1 .513533 .991919 .474343
2 1 .993008 .594134 .489389
3 1 .779090 .008968 .530417
4 1 .159372 .039184 .528813
5 1 .006031 .657570 .484344
6 1 .484751 .466075 .990021
7 1 .493992 .441053 .013068
ITEM: TIMESTEP
200
ITEM: NUMBER OF ATOMS
7
ITEM: BOX BOUNDS ss ss ss
-3.2846 3.0356
-2.9755 3.0788
-1.8457 2.1112
ITEM: ATOMS id type xs ys zs
1 1 .514485 .991016 .474943
2 1 .992397 .594447 .489299
3 1 .778441 .008147 .531307
4 1 .160233 .039351 .528659
5 1 .006565 .656869 .484386
6 1 .485891 .465489 .988783
7 1 .492941 .440763 .013892
ITEM: TIMESTEP
250
ITEM: NUMBER OF ATOMS
7
ITEM: BOX BOUNDS ss ss ss
-3.2853 3.0321
-2.9758 3.0722
-1.8433 2.1050
ITEM: ATOMS id type xs ys zs
1 1 .515815 .992937 .476280
2 1 .991995 .596361 .491286
3 1 .778572 .007848 .531561
4 1 .161592 .039189 .529293
5 1 .006846 .657210 .486630
6 1 .486900 .466798 .989940
7 1 .492620 .442315 .014077
ITEM: TIMESTEP
300
ITEM: NUMBER OF ATOMS
7
ITEM: BOX BOUNDS ss ss ss
-3.2840 3.0292
-2.9731 3.0786
-1.8385 2.1033
ITEM: ATOMS id type xs ys zs
1 1 .517370 .993580 .478338
2 1 .989921 .596560 .493705
3 1 .778130 .007081 .527583
4 1 .164190 .037481 .528321
5 1 .007937 .655127 .488629
6 1 .487659 .466586 .991488
7 1 .491646 .443237 .013582
ITEM: TIMESTEP
350
ITEM: NUMBER OF ATOMS
7
ITEM: BOX BOUNDS ss ss ss
-3.2797 3.0128
-2.9781 3.0880
-1.8343 2.1117
ITEM: ATOMS id type xs ys zs
1 1 .519010 .992147 .477098
2 1 .992004 .596386 .492506
3 1 .779813 .007693 .525603
4 1 .164602 .038455 .526469
5 1 .007726 .653876 .486916
6 1 .489036 .466031 .989881
7 1 .491990 .443238 .012182
ITEM: TIMESTEP
400
ITEM: NUMBER OF ATOMS
7
ITEM: BOX BOUNDS ss ss ss
-3.2925 3.0122
-2.9780 3.1000
-1.8391 2.1147
ITEM: ATOMS id type xs ys zs
1 1 .520343 .990050 .477475
2 1 .991910 .595270 .492991
3 1 .779824 .007627 .525919
4 1 .166684 .038901 .526487
5 1 .009818 .652114 .486766
6 1 .490464 .465116 .989645
7 1 .492787 .442435 .012657
ITEM: TIMESTEP
1
ITEM: NUMBER OF ATOMS
7
ITEM: BOX BOUNDS ss ss ss
-3.3006 3.0073
-2.9893 3.0908
-1.8408 2.1136
ITEM: ATOMS id type xs ys zs
1 1 .516239 .989583 .473401
2 1 .996770 .591706 .487297
3 1 .782491 .012611 .527302
4 1 .162294 .040093 .528088
5 1 .009189 .657107 .483442
6 1 .488115 .467002 .989703
7 1 .499897 .441823 .008393
ITEM: TIMESTEP
50
ITEM: NUMBER OF ATOMS
7
ITEM: BOX BOUNDS ss ss ss
-3.3006 3.0172
-2.9893 3.0908
-1.8408 2.1136
ITEM: ATOMS id type xs ys zs
1 1 .515102 .989475 .473597
2 1 .995711 .591661 .487067
3 1 .781726 .012628 .527303
4 1 .161712 .040103 .528543
5 1 .008979 .657494 .483517
6 1 .486909 .466793 .989294
7 1 .499328 .441698 .008501
ITEM: TIMESTEP
100
ITEM: NUMBER OF ATOMS
7
ITEM: BOX BOUNDS ss ss ss
-3.3006 3.0281
-2.9893 3.0878
-1.8415 2.1136
ITEM: ATOMS id type xs ys zs
1 1 .514373 .989693 .473927
2 1 .994200 .593299 .487340
3 1 .780440 .011805 .527518
4 1 .161743 .041210 .528431
5 1 .008730 .656904 .483503
6 1 .486109 .466459 .988693
7 1 .497518 .442132 .009529
ITEM: TIMESTEP
150
ITEM: NUMBER OF ATOMS
7
ITEM: BOX BOUNDS ss ss ss
-3.2992 3.0287
-2.9893 3.0854
-1.8398 2.1120
ITEM: ATOMS id type xs ys zs
1 1 .515183 .989845 .474993
2 1 .992402 .595736 .487241
3 1 .780886 .011316 .526970
4 1 .162628 .042284 .529505
5 1 .009295 .656583 .484474
6 1 .486854 .466120 .987770
7 1 .496257 .443408 .008601
ITEM: TIMESTEP
200
ITEM: NUMBER OF ATOMS
7
ITEM: BOX BOUNDS ss ss ss
-3.2854 3.0235
-2.9893 3.0854
-1.8484 2.1120
ITEM: ATOMS id type xs ys zs
1 1 .515144 .989889 .476662
2 1 .992245 .596293 .488938
3 1 .781402 .010994 .527775
4 1 .161171 .042854 .529733
5 1 .007111 .655942 .485387
6 1 .486924 .465914 .987678
7 1 .494406 .443713 .011197
ITEM: TIMESTEP
250
ITEM: NUMBER OF ATOMS
7
ITEM: BOX BOUNDS ss ss ss
-3.2835 3.0202
-2.9893 3.0854
-1.8447 2.1120
ITEM: ATOMS id type xs ys zs
1 1 .516481 .990022 .475205
2 1 .992329 .596242 .489562
3 1 .781090 .010140 .527835
4 1 .160648 .043231 .527548
5 1 .006434 .655530 .484526
6 1 .487617 .465793 .988619
7 1 .493190 .443548 .011993
ITEM: TIMESTEP
300
ITEM: NUMBER OF ATOMS
7
ITEM: BOX BOUNDS ss ss ss
-3.2869 3.0274
-2.9875 3.0847
-1.8459 2.1139
ITEM: ATOMS id type xs ys zs
1 1 .516242 .990522 .474655
2 1 .990786 .596782 .490474
3 1 .779814 .009652 .528436
4 1 .161365 .043398 .525755
5 1 .007083 .656000 .485201
6 1 .487853 .465888 .988064
7 1 .492024 .443147 .012853
ITEM: TIMESTEP
350
ITEM: NUMBER OF ATOMS
7
ITEM: BOX BOUNDS ss ss ss
-3.2968 3.0173
-2.9875 3.0847
-1.8450 2.1175
ITEM: ATOMS id type xs ys zs
1 1 .518064 .990344 .473297
2 1 .992310 .596959 .489579
3 1 .780644 .009336 .528276
4 1 .163561 .043773 .523204
5 1 .008775 .655927 .485533
6 1 .490172 .466351 .987037
7 1 .493180 .443169 .012210
ITEM: TIMESTEP
400
ITEM: NUMBER OF ATOMS
7
ITEM: BOX BOUNDS ss ss ss
-3.2866 3.0210
-2.9838 3.0782
-1.8493 2.1185
ITEM: ATOMS id type xs ys zs
1 1 .517329 .990847 .471934
2 1 .991675 .597282 .488621
3 1 .778801 .008222 .529479
4 1 .162815 .043453 .520841
5 1 .007217 .656053 .487580
6 1 .489667 .466921 .987195
7 1 .491885 .443097 .012644
ITEM: TIMESTEP
1
ITEM: NUMBER OF ATOMS
7
ITEM: BOX BOUNDS ss ss ss
-3.2823 3.0157
-2.9829 3.0736
-1.8474 2.1172
ITEM: ATOMS id type xs ys zs
1 1 .514138 .992379 .473849
2 1 .995421 .592960 .487707
3 1 .780807 .011616 .527617
4 1 .159633 .039205 .528394
5 1 .006291 .658619 .483866
6 1 .485969 .467774 .988836
7 1 .497775 .442492 .010023
ITEM: TIMESTEP
50
ITEM: NUMBER OF ATOMS
7
ITEM: BOX BOUNDS ss ss ss
-3.2814 3.0163
-2.9829 3.0736
-1.8452 2.1172
ITEM: ATOMS id type xs ys zs
1 1 .513632 .992345 .473721
2 1 .995961 .592830 .487149
3 1 .781260 .011742 .527306
4 1 .159162 .039149 .528411
5 1 .006043 .659132 .483607
6 1 .485417 .467532 .988506
7 1 .497974 .442364 .009538
ITEM: TIMESTEP
100
ITEM: NUMBER OF ATOMS
7
ITEM: BOX BOUNDS ss ss ss
-3.2871 3.0327
-2.9829 3.0710
-1.8452 2.1172
ITEM: ATOMS id type xs ys zs
1 1 .513288 .992500 .473827
2 1 .993874 .593721 .487293
3 1 .779697 .011219 .528087
4 1 .160155 .039768 .528216
5 1 .006806 .658990 .482956
6 1 .484283 .467268 .987945
7 1 .496489 .442134 .009729
ITEM: TIMESTEP
150
ITEM: NUMBER OF ATOMS
7
ITEM: BOX BOUNDS ss ss ss
-3.2919 3.0389
-2.9829 3.0710
-1.8512 2.1172
ITEM: ATOMS id type xs ys zs
1 1 .513961 .992478 .474637
2 1 .992002 .594129 .487953
3 1 .779572 .010821 .530153
4 1 .161310 .040417 .529229
5 1 .007819 .658575 .482914
6 1 .484067 .467236 .987171
7 1 .495624 .441697 .011397
ITEM: TIMESTEP
200
ITEM: NUMBER OF ATOMS
7
ITEM: BOX BOUNDS ss ss ss
-3.2862 3.0306
-2.9829 3.0775
-1.8457 2.1108
ITEM: ATOMS id type xs ys zs
1 1 .515358 .990992 .473968
2 1 .992254 .595364 .487468
3 1 .780531 .010502 .529183
4 1 .160679 .040574 .530446
5 1 .006223 .658676 .480147
6 1 .483793 .466240 .988553
7 1 .494274 .440194 .012173
ITEM: TIMESTEP
250
ITEM: NUMBER OF ATOMS
7
ITEM: BOX BOUNDS ss ss ss
-3.3018 3.0302
-2.9829 3.0788
-1.8439 2.1108
ITEM: ATOMS id type xs ys zs
1 1 .517217 .990638 .473736
2 1 .992250 .595816 .488309
3 1 .781425 .010557 .528289
4 1 .163178 .041010 .529337
5 1 .008371 .658741 .478887
6 1 .485147 .466461 .988407
7 1 .494495 .440202 .012595
ITEM: TIMESTEP
300
ITEM: NUMBER OF ATOMS
7
ITEM: BOX BOUNDS ss ss ss
-3.2950 3.0277
-2.9829 3.0718
-1.8401 2.1193
ITEM: ATOMS id type xs ys zs
1 1 .517386 .992466 .471144
2 1 .992254 .597454 .489706
3 1 .782305 .009973 .526581
4 1 .163265 .041150 .526513
5 1 .007956 .659504 .477967
6 1 .485791 .466502 .985248
7 1 .493395 .440977 .012892
ITEM: TIMESTEP
350
ITEM: NUMBER OF ATOMS
7
ITEM: BOX BOUNDS ss ss ss
-3.2939 3.0243
-2.9793 3.0810
-1.8333 2.1108
ITEM: ATOMS id type xs ys zs
1 1 .517546 .991320 .471415
2 1 .991980 .597128 .490726
3 1 .783100 .008733 .527246
4 1 .164088 .040041 .526614
5 1 .008482 .657940 .478366
6 1 .486645 .465532 .986878
7 1 .493516 .439892 .011258
ITEM: TIMESTEP
400
ITEM: NUMBER OF ATOMS
7
ITEM: BOX BOUNDS ss ss ss
-3.3022 3.0204
-2.9797 3.0806
-1.8399 2.1049
ITEM: ATOMS id type xs ys zs
1 1 .517761 .992019 .474700
2 1 .991949 .597534 .491751
3 1 .783189 .008243 .530619
4 1 .166844 .039518 .528086
5 1 .009920 .656951 .478984
6 1 .488218 .466641 .988526
7 1 .494761 .440427 .012545
ITEM: TIMESTEP
1
ITEM: NUMBER OF ATOMS
7
ITEM: BOX BOUNDS ss ss ss
-3.2876 3.0174
-2.9807 3.0833
-1.8360 2.1045
ITEM: ATOMS id type xs ys zs
1 1 .514417 .990784 .473849
2 1 .995166 .591855 .487784
3 1 .780789 .011241 .527942
4 1 .160308 .038791 .528724
5 1 .007132 .657436 .483928
6 1 .486275 .466825 .991972
7 1 .498072 .441579 .007198
ITEM: TIMESTEP
50
ITEM: NUMBER OF ATOMS
7
ITEM: BOX BOUNDS ss ss ss
-3.2876 3.0174
-2.9807 3.0833
-1.8360 2.1045
ITEM: ATOMS id type xs ys zs
1 1 .513987 .990733 .474170
2 1 .995749 .591682 .487377
3 1 .781427 .011446 .527877
4 1 .159877 .038680 .529131
5 1 .006887 .658055 .484117
6 1 .485805 .466599 .991510
7 1 .498467 .441440 .007305
ITEM: TIMESTEP
100
ITEM: NUMBER OF ATOMS
7
ITEM: BOX BOUNDS ss ss ss
-3.2890 3.0320
-2.9807 3.0833
-1.8399 2.1058
ITEM: ATOMS id type xs ys zs
1 1 .513766 .990020 .473732
2 1 .994492 .592642 .487741
3 1 .779959 .010313 .528007
4 1 .160866 .039673 .528682
5 1 .007323 .657938 .484922
6 1 .485061 .466142 .988646
7 1 .496740 .441270 .009724
ITEM: TIMESTEP
150
ITEM: NUMBER OF ATOMS
7
ITEM: BOX BOUNDS ss ss ss
-3.2876 3.0411
-2.9807 3.0833
-1.8354 2.0995
ITEM: ATOMS id type xs ys zs
1 1 .513878 .989366 .472035
2 1 .993654 .593581 .487886
3 1 .778806 .009706 .528257
4 1 .161816 .040298 .527473
5 1 .006856 .657921 .485077
6 1 .484644 .465894 .989106
7 1 .495567 .441149 .009694
ITEM: TIMESTEP
200
ITEM: NUMBER OF ATOMS
7
ITEM: BOX BOUNDS ss ss ss
-3.2974 3.0425
-2.9807 3.0833
-1.8367 2.0995
ITEM: ATOMS id type xs ys zs
1 1 .514823 .989028 .471552
2 1 .993348 .594494 .487995
3 1 .778949 .009633 .529056
4 1 .163367 .040882 .526373
5 1 .007880 .657457 .484640
6 1 .485798 .465704 .989271
7 1 .495508 .441291 .010627
ITEM: TIMESTEP
250
ITEM: NUMBER OF ATOMS
7
ITEM: BOX BOUNDS ss ss ss
-3.2889 3.0489
-2.9807 3.0833
-1.8349 2.0972
ITEM: ATOMS id type xs ys zs
1 1 .515023 .989509 .470447
2 1 .991406 .595126 .488776
3 1 .777860 .009403 .531099
4 1 .162147 .041717 .526487
5 1 .006653 .656366 .484534
6 1 .484808 .466321 .990322
7 1 .493872 .441723 .010144
ITEM: TIMESTEP
300
ITEM: NUMBER OF ATOMS
7
ITEM: BOX BOUNDS ss ss ss
-3.2962 3.0348
-2.9807 3.0833
-1.8427 2.1047
ITEM: ATOMS id type xs ys zs
1 1 .517985 .990675 .467709
2 1 .992167 .595730 .489016
3 1 .778877 .009087 .533642
4 1 .161482 .041992 .525699
5 1 .008882 .655120 .484582
6 1 .486610 .466580 .988193
7 1 .494970 .441730 .010952
ITEM: TIMESTEP
350
ITEM: NUMBER OF ATOMS
7
ITEM: BOX BOUNDS ss ss ss
-3.2872 3.0335
-2.9807 3.0785
-1.8507 2.1008
ITEM: ATOMS id type xs ys zs
1 1 .517861 .991600 .467063
2 1 .991585 .597030 .490533
3 1 .778013 .008819 .535691
4 1 .159404 .041905 .526188
5 1 .007923 .654818 .485087
6 1 .486416 .467175 .988391
7 1 .493244 .441355 .012995
ITEM: TIMESTEP
400
ITEM: NUMBER OF ATOMS
7
ITEM: BOX BOUNDS ss ss ss
-3.2817 3.0289
-2.9807 3.0785
-1.8420 2.1069
ITEM: ATOMS id type xs ys zs
1 1 .518513 .991387 .464720
2 1 .991997 .597394 .489879
3 1 .778093 .008798 .534448
4 1 .159226 .042032 .523778
5 1 .007418 .654692 .482373
6 1 .486972 .467340 .986810
7 1 .492272 .441131 .010823
ITEM: TIMESTEP
1
ITEM: NUMBER OF ATOMS
7
ITEM: BOX BOUNDS ss ss ss
-3.2848 3.0270
-2.9737 3.0785
-1.8371 2.1030
ITEM: ATOMS id type xs ys zs
1 1 .513412 .991567 .474181
2 1 .993652 .591852 .488131
3 1 .779502 .010090 .528287
4 1 .159680 .037697 .529071
5 1 .006672 .657565 .484266
6 1 .485302 .466577 .992366
7 1 .497085 .441277 .007480
ITEM: TIMESTEP
50
ITEM: NUMBER OF ATOMS
7
ITEM: BOX BOUNDS ss ss ss
-3.2772 3.0270
-2.9737 3.0785
-1.8371 2.1030
ITEM: ATOMS id type xs ys zs
1 1 .512341 .991492 .474459
2 1 .994324 .591590 .487766
3 1 .779893 .010303 .528186
4 1 .158233 .037612 .529554
5 1 .005255 .658165 .484385
6 1 .484177 .466372 .992006
7 1 .496898 .441108 .007543
ITEM: TIMESTEP
100
ITEM: NUMBER OF ATOMS
7
ITEM: BOX BOUNDS ss ss ss
-3.2799 3.0317
-2.9737 3.0785
-1.8426 2.1030
ITEM: ATOMS id type xs ys zs
1 1 .512739 .990008 .475540
2 1 .994480 .592003 .487787
3 1 .779367 .009524 .530074
4 1 .158477 .039456 .530257
5 1 .005675 .657535 .484126
6 1 .484161 .465718 .990986
7 1 .495370 .441198 .009192
ITEM: TIMESTEP
150
ITEM: NUMBER OF ATOMS
7
ITEM: BOX BOUNDS ss ss ss
-3.2897 3.0381
-2.9737 3.0785
-1.8521 2.1036
ITEM: ATOMS id type xs ys zs
1 1 .514000 .988263 .476366
2 1 .992593 .592772 .488136
3 1 .778669 .008857 .531371
4 1 .159524 .040635 .530927
5 1 .007701 .656830 .485391
6 1 .484083 .464996 .990721
7 1 .494675 .440798 .010283
ITEM: TIMESTEP
200
ITEM: NUMBER OF ATOMS
7
ITEM: BOX BOUNDS ss ss ss
-3.2826 3.0486
-2.9737 3.0785
-1.8567 2.1116
ITEM: ATOMS id type xs ys zs
1 1 .513544 .987872 .476436
2 1 .990389 .593593 .487937
3 1 .777436 .008417 .530806
4 1 .158422 .041417 .529772
5 1 .006307 .656684 .484922
6 1 .483299 .464578 .988788
7 1 .492669 .440094 .011757
ITEM: TIMESTEP
250
ITEM: NUMBER OF ATOMS
7
ITEM: BOX BOUNDS ss ss ss
-3.2903 3.0401
-2.9771 3.0785
-1.8511 2.1130
ITEM: ATOMS id type xs ys zs
1 1 .515986 .988365 .474856
2 1 .991767 .594366 .488645
3 1 .778958 .007911 .529286
4 1 .159570 .042039 .528135
5 1 .007521 .657123 .483079
6 1 .485950 .464507 .988488
7 1 .493676 .440013 .013061
ITEM: TIMESTEP
300
ITEM: NUMBER OF ATOMS
7
ITEM: BOX BOUNDS ss ss ss
-3.2908 3.0523
-2.9835 3.0785
-1.8505 2.1266
ITEM: ATOMS id type xs ys zs
1 1 .515459 .988472 .472989
2 1 .989982 .595083 .487337
3 1 .777032 .008292 .527727
4 1 .159194 .043141 .525678
5 1 .007711 .656627 .480532
6 1 .486354 .464425 .986433
7 1 .491560 .440451 .015000
ITEM: TIMESTEP
350
ITEM: NUMBER OF ATOMS
7
ITEM: BOX BOUNDS ss ss ss
-3.2897 3.0525
-2.9875 3.0785
-1.8432 2.1274
ITEM: ATOMS id type xs ys zs
1 1 .515272 .988317 .472847
2 1 .989057 .596358 .486001
3 1 .777159 .008985 .527552
4 1 .159552 .044192 .523706
5 1 .008187 .656061 .478832
6 1 .487015 .464776 .986755
7 1 .491665 .440268 .012551
ITEM: TIMESTEP
400
ITEM: NUMBER OF ATOMS
7
ITEM: BOX BOUNDS ss ss ss
-3.2977 3.0444
-2.9900 3.0715
-1.8501 2.1328
ITEM: ATOMS id type xs ys zs
1 1 .516033 .989813 .474097
2 1 .989482 .598270 .485503
3 1 .778552 .009133 .528169
4 1 .161363 .044733 .522410
5 1 .010311 .656293 .478530
6 1 .489220 .465673 .985382
7 1 .493322 .440727 .013923
ITEM: TIMESTEP
1
ITEM: NUMBER OF ATOMS
7
ITEM: BOX BOUNDS ss ss ss
-3.2831 3.0357
-2.9896 3.0669
-1.8449 2.1234
ITEM: ATOMS id type xs ys zs
1 1 .512572 .993489 .472775
2 1 .992271 .594059 .486613
3 1 .778368 .012719 .526485
4 1 .159237 .040304 .527269
5 1 .006404 .659727 .482784
6 1 .484498 .468874 .987270
7 1 .496268 .443593 .009390
ITEM: TIMESTEP
50
ITEM: NUMBER OF ATOMS
7
ITEM: BOX BOUNDS ss ss ss
-3.2831 3.0357
-2.9896 3.0669
-1.8449 2.1234
ITEM: ATOMS id type xs ys zs
1 1 .512026 .993428 .473149
2 1 .992905 .593754 .486237
3 1 .779094 .012994 .526420
4 1 .158639 .040082 .527752
5 1 .006100 .660432 .483019
6 1 .483971 .468670 .986959
7 1 .496715 .443431 .009368
ITEM: TIMESTEP
100
ITEM: NUMBER OF ATOMS
7
ITEM: BOX BOUNDS ss ss ss
-3.2882 3.0357
-2.9896 3.0669
-1.8451 2.1204
ITEM: ATOMS id type xs ys zs
1 1 .511632 .992965 .472970
2 1 .993351 .594820 .486307
3 1 .779983 .012837 .528410
4 1 .159099 .041588 .528258
5 1 .006238 .660209 .482574
6 1 .484057 .468563 .986457
7 1 .496147 .443387 .010750
ITEM: TIMESTEP
150
ITEM: NUMBER OF ATOMS
7
ITEM: BOX BOUNDS ss ss ss
-3.2985 3.0357
-2.9842 3.0669
-1.8391 2.1204
ITEM: ATOMS id type xs ys zs
1 1 .512330 .991620 .472549
2 1 .993496 .596637 .484463
3 1 .780923 .012298 .528599
4 1 .159763 .043011 .527394
5 1 .005859 .659563 .480843
6 1 .484658 .467725 .984788
7 1 .496022 .443249 .009785
ITEM: TIMESTEP
200
ITEM: NUMBER OF ATOMS
7
ITEM: BOX BOUNDS ss ss ss
-3.3123 3.0367
-2.9823 3.0651
-1.8397 2.1204
ITEM: ATOMS id type xs ys zs
1 1 .513452 .991220 .473320
2 1 .993665 .597801 .484778
3 1 .781109 .011734 .528342
4 1 .160744 .044024 .527284
5 1 .007028 .659415 .480367
6 1 .486038 .467434 .983565
7 1 .496693 .443102 .010135
ITEM: TIMESTEP
250
ITEM: NUMBER OF ATOMS
7
ITEM: BOX BOUNDS ss ss ss
-3.3187 3.0357
-2.9823 3.0651
-1.8414 2.1212
ITEM: ATOMS id type xs ys zs
1 1 .515263 .991391 .471944
2 1 .993211 .596552 .487627
3 1 .780902 .008830 .528381
4 1 .160937 .044983 .526971
5 1 .007235 .658780 .483133
6 1 .487490 .467617 .983563
7 1 .495743 .443417 .013016
ITEM: TIMESTEP
300
ITEM: NUMBER OF ATOMS
7
ITEM: BOX BOUNDS ss ss ss
-3.3190 3.0357
-2.9773 3.0651
-1.8287 2.1195
ITEM: ATOMS id type xs ys zs
1 1 .515591 .990958 .469612
2 1 .992920 .596230 .486323
3 1 .780396 .007717 .527336
4 1 .160842 .044356 .524986
5 1 .007371 .658088 .481157
6 1 .487764 .466775 .984068
7 1 .494924 .442493 .010753
ITEM: TIMESTEP
350
ITEM: NUMBER OF ATOMS
7
ITEM: BOX BOUNDS ss ss ss
-3.3238 3.0404
-2.9759 3.0651
-1.8397 2.1195
ITEM: ATOMS id type xs ys zs
1 1 .515340 .990885 .470367