ITEM: TIMESTEP
1
ITEM: NUMBER OF ATOMS
7
ITEM: BOX BOUNDS ss ss ss
-3.0194 3.0883
-2.6983 3.3852
-1.8212 1.9821
ITEM: ATOMS id type xs ys zs
1 1 .504620 .999236 .504194
2 1 .999422 .605232 .610867
3 1 .789279 .000765 .586754
4 1 .164112 .029618 .460039
5 1 .000625 .636851 .374061
6 1 .451166 .460649 .999078
7 1 .542181 .442895 .001004
ITEM: TIMESTEP
50
ITEM: NUMBER OF ATOMS
7
ITEM: BOX BOUNDS ss ss ss
-3.0411 3.1140
-2.7249 3.4065
-1.8464 2.0023
ITEM: ATOMS id type xs ys zs
1 1 .505890 .993222 .502762
2 1 .995223 .603877 .610129
3 1 .785720 .005894 .586505
4 1 .166512 .033868 .460552
5 1 .005302 .635792 .377646
6 1 .451997 .461539 .995689
7 1 .540335 .442947 .006273
ITEM: TIMESTEP
100
ITEM: NUMBER OF ATOMS
7
ITEM: BOX BOUNDS ss ss ss
-3.0459 3.1203
-2.7284 3.4162
-1.8553 2.0142
ITEM: ATOMS id type xs ys zs
1 1 .504721 .990590 .501840
2 1 .992958 .603518 .607847
3 1 .783161 .008818 .584399
4 1 .167203 .034662 .454088
5 1 .005952 .632860 .375840
6 1 .452213 .460234 .997064
7 1 .540680 .444514 .010937
ITEM: TIMESTEP
150
ITEM: NUMBER OF ATOMS
7
ITEM: BOX BOUNDS ss ss ss
-3.0551 3.1234
-2.7301 3.4171
-1.8563 2.0244
ITEM: ATOMS id type xs ys zs
1 1 .504760 .988985 .500126
2 1 .993119 .604531 .608071
3 1 .782001 .009889 .582164
4 1 .168113 .034317 .451814
5 1 .006786 .631215 .373890
6 1 .452820 .460016 .995593
7 1 .539780 .444965 .009915
ITEM: TIMESTEP
200
ITEM: NUMBER OF ATOMS
7
ITEM: BOX BOUNDS ss ss ss
-3.0640 3.1210
-2.7252 3.4057
-1.8548 2.0378
ITEM: ATOMS id type xs ys zs
1 1 .506108 .990398 .494097
2 1 .994195 .604990 .605663
3 1 .783345 .010234 .581536
4 1 .169732 .032894 .449829
5 1 .007120 .631460 .371212
6 1 .451734 .460623 .992387
7 1 .541248 .446454 .009036
ITEM: TIMESTEP
250
ITEM: NUMBER OF ATOMS
7
ITEM: BOX BOUNDS ss ss ss
-3.0539 3.1278
-2.7169 3.4086
-1.8730 2.0500
ITEM: ATOMS id type xs ys zs
1 1 .505894 .989522 .496506
2 1 .993681 .604891 .606138
3 1 .782662 .008663 .580741
4 1 .168641 .033479 .449886
5 1 .004405 .633066 .374874
6 1 .449941 .460242 .988980
7 1 .539066 .445451 .014984
ITEM: TIMESTEP
300
ITEM: NUMBER OF ATOMS
7
ITEM: BOX BOUNDS ss ss ss
-3.0552 3.1355
-2.7142 3.3884
-1.8645 2.0518
ITEM: ATOMS id type xs ys zs
1 1 .505450 .992308 .492237
2 1 .992369 .605842 .604539
3 1 .779923 .008870 .580201
4 1 .169254 .034158 .447556
5 1 .005170 .634655 .373158
6 1 .448633 .462275 .987875
7 1 .538088 .447563 .011065
ITEM: TIMESTEP
350
ITEM: NUMBER OF ATOMS
7
ITEM: BOX BOUNDS ss ss ss
-3.0615 3.1299
-2.7162 3.3897
-1.8652 2.0542
ITEM: ATOMS id type xs ys zs
1 1 .507204 .992343 .490856
2 1 .992386 .604508 .603736
3 1 .780632 .010035 .578146
4 1 .169931 .034545 .447583
5 1 .006148 .635172 .372960
6 1 .449860 .462366 .987587
7 1 .539569 .447703 .009944
ITEM: TIMESTEP
400
ITEM: NUMBER OF ATOMS
7
ITEM: BOX BOUNDS ss ss ss
-3.0655 3.1347
-2.7155 3.3839
-1.8679 2.0557
ITEM: ATOMS id type xs ys zs
1 1 .507656 .990686 .490010
2 1 .993778 .604595 .602372
3 1 .782842 .009973 .579810
4 1 .171394 .034236 .448417
5 1 .003859 .633858 .375091
6 1 .449486 .461893 .987391
7 1 .538847 .448398 .011959
ITEM: TIMESTEP
1
ITEM: NUMBER OF ATOMS
7
ITEM: BOX BOUNDS ss ss ss
-3.0524 3.1150
-2.6986 3.3858
-1.8641 2.0396
ITEM: ATOMS id type xs ys zs
1 1 .505107 .999116 .502198
2 1 .995113 .605179 .606158
3 1 .787007 .000795 .582650
4 1 .167881 .029672 .459178
5 1 .005971 .636812 .375427
6 1 .452153 .460633 .984342
7 1 .542292 .442886 .011938
ITEM: TIMESTEP
50
ITEM: NUMBER OF ATOMS
7
ITEM: BOX BOUNDS ss ss ss
-3.0524 3.1150
-2.7248 3.4100
-1.8641 2.0396
ITEM: ATOMS id type xs ys zs
1 1 .506188 .992800 .501452
2 1 .994065 .603789 .604418
3 1 .786228 .007045 .580148
4 1 .168042 .034141 .459211
5 1 .006487 .635366 .377559
6 1 .452982 .461754 .987291
7 1 .542472 .442716 .011573
ITEM: TIMESTEP
100
ITEM: NUMBER OF ATOMS
7
ITEM: BOX BOUNDS ss ss ss
-3.0524 3.1182
-2.7326 3.4257
-1.8641 2.0396
ITEM: ATOMS id type xs ys zs
1 1 .505128 .990493 .503578
2 1 .994005 .604300 .604755
3 1 .785718 .008836 .585181
4 1 .168562 .033944 .458273
5 1 .006422 .634884 .375717
6 1 .450745 .461271 .988740
7 1 .540375 .444858 .013781
ITEM: TIMESTEP
150
ITEM: NUMBER OF ATOMS
7
ITEM: BOX BOUNDS ss ss ss
-3.0524 3.1271
-2.7352 3.4142
-1.8641 2.0396
ITEM: ATOMS id type xs ys zs
1 1 .504754 .990844 .504492
2 1 .993669 .606563 .603261
3 1 .783717 .010872 .589685
4 1 .169576 .037849 .456977
5 1 .005688 .636067 .375006
6 1 .451023 .462690 .989508
7 1 .540519 .445172 .012655
ITEM: TIMESTEP
200
ITEM: NUMBER OF ATOMS
7
ITEM: BOX BOUNDS ss ss ss
-3.0536 3.1264
-2.7339 3.4155
-1.8641 2.0396
ITEM: ATOMS id type xs ys zs
1 1 .505729 .989160 .502854
2 1 .994955 .605541 .602025
3 1 .785193 .011523 .587289
4 1 .169873 .037459 .456702
5 1 .005412 .635381 .375751
6 1 .451001 .463226 .990519
7 1 .540160 .445308 .012827
ITEM: TIMESTEP
250
ITEM: NUMBER OF ATOMS
7
ITEM: BOX BOUNDS ss ss ss
-3.0577 3.1345
-2.7275 3.4081
-1.8606 2.0401
ITEM: ATOMS id type xs ys zs
1 1 .507223 .991444 .502425
2 1 .990618 .606173 .602764
3 1 .782990 .012661 .584859
4 1 .169947 .035096 .456240
5 1 .006009 .636810 .375617
6 1 .451163 .462957 .991604
7 1 .538057 .445969 .008967
ITEM: TIMESTEP
300
ITEM: NUMBER OF ATOMS
7
ITEM: BOX BOUNDS ss ss ss
-3.0584 3.1425
-2.7183 3.4113
-1.8576 2.0467
ITEM: ATOMS id type xs ys zs
1 1 .505925 .990437 .494758
2 1 .989583 .604762 .602135
3 1 .780820 .010381 .576002
4 1 .172505 .032629 .453483
5 1 .008062 .632687 .377114
6 1 .451622 .462191 .990308
7 1 .538155 .445871 .005469
ITEM: TIMESTEP
350
ITEM: NUMBER OF ATOMS
7
ITEM: BOX BOUNDS ss ss ss
-3.0577 3.1347
-2.7202 3.3949
-1.8614 2.0558
ITEM: ATOMS id type xs ys zs
1 1 .509765 .991769 .500595
2 1 .990103 .604427 .604309
3 1 .783359 .012934 .583823
4 1 .172518 .034228 .456060
5 1 .005652 .637960 .374852
6 1 .449950 .462923 .990257
7 1 .536773 .445401 .008866
ITEM: TIMESTEP
400
ITEM: NUMBER OF ATOMS
7
ITEM: BOX BOUNDS ss ss ss
-3.0602 3.1345
-2.7085 3.3994
-1.8678 2.0613
ITEM: ATOMS id type xs ys zs
1 1 .508918 .989408 .498949
2 1 .992986 .603691 .602503
3 1 .784321 .012195 .578758
4 1 .172212 .031817 .455608
5 1 .005379 .635114 .375954
6 1 .450594 .461521 .987223
7 1 .537095 .445701 .010650
ITEM: TIMESTEP
1
ITEM: NUMBER OF ATOMS
7
ITEM: BOX BOUNDS ss ss ss
-3.0491 3.1170
-2.6982 3.3860
-1.8574 2.0439
ITEM: ATOMS id type xs ys zs
1 1 .504651 .999109 .500819
2 1 .994772 .605145 .604810
3 1 .786628 .000725 .581292
4 1 .167366 .029592 .457761
5 1 .005447 .636774 .373965
6 1 .451708 .460584 .983231
7 1 .541868 .442841 .010261
ITEM: TIMESTEP
50
ITEM: NUMBER OF ATOMS
7
ITEM: BOX BOUNDS ss ss ss
-3.0491 3.1170
-2.7258 3.4111
-1.8574 2.0439
ITEM: ATOMS id type xs ys zs
1 1 .503366 .993725 .498662
2 1 .993469 .603008 .606935
3 1 .786582 .005973 .580279
4 1 .167187 .033976 .456347
5 1 .004988 .634449 .376170
6 1 .450909 .460422 .985926
7 1 .540024 .443144 .011192
ITEM: TIMESTEP
100
ITEM: NUMBER OF ATOMS
7
ITEM: BOX BOUNDS ss ss ss
-3.0491 3.1275
-2.7312 3.4205
-1.8574 2.0439
ITEM: ATOMS id type xs ys zs
1 1 .502890 .990572 .496219
2 1 .991339 .604404 .609391
3 1 .786122 .009298 .582117
4 1 .167414 .035739 .453776
5 1 .003147 .632937 .377869
6 1 .450472 .461343 .989584
7 1 .537264 .441965 .011117
ITEM: TIMESTEP
150
ITEM: NUMBER OF ATOMS
7
ITEM: BOX BOUNDS ss ss ss
-3.0609 3.1246
-2.7380 3.4198
-1.8574 2.0439
ITEM: ATOMS id type xs ys zs
1 1 .504974 .989635 .496115
2 1 .992150 .603403 .608488
3 1 .786310 .011874 .582040
4 1 .168733 .036388 .453733
5 1 .004202 .633626 .378830
6 1 .451861 .461832 .990724
7 1 .538094 .444503 .013594
ITEM: TIMESTEP
200
ITEM: NUMBER OF ATOMS
7
ITEM: BOX BOUNDS ss ss ss
-3.0665 3.1259
-2.7304 3.4127
-1.8574 2.0439
ITEM: ATOMS id type xs ys zs
1 1 .504206 .988820 .496107
2 1 .991464 .604165 .608020
3 1 .785853 .010829 .585733
4 1 .171760 .036132 .453112
5 1 .005229 .633642 .381550
6 1 .450937 .463234 .994181
7 1 .537578 .444683 .012597
ITEM: TIMESTEP
250
ITEM: NUMBER OF ATOMS
7
ITEM: BOX BOUNDS ss ss ss
-3.0762 3.1176
-2.7177 3.4008
-1.8574 2.0447
ITEM: ATOMS id type xs ys zs
1 1 .505750 .990472 .492926
2 1 .993047 .603227 .607642
3 1 .786672 .011412 .585875
4 1 .171308 .035683 .452205
5 1 .005605 .634196 .384095
6 1 .452249 .461953 .995642
7 1 .539593 .443585 .013528
ITEM: TIMESTEP
300
ITEM: NUMBER OF ATOMS
7
ITEM: BOX BOUNDS ss ss ss
-3.0806 3.1227
-2.7133 3.3888
-1.8574 2.0668
ITEM: ATOMS id type xs ys zs
1 1 .507109 .993803 .490713
2 1 .991861 .605767 .602544
3 1 .785161 .012332 .578815
4 1 .172079 .035489 .452869
5 1 .007263 .638433 .379858
6 1 .450995 .463140 .990332
7 1 .538596 .446383 .010172
ITEM: TIMESTEP
350
ITEM: NUMBER OF ATOMS
7
ITEM: BOX BOUNDS ss ss ss
-3.0839 3.1235
-2.7138 3.3935
-1.8574 2.0672
ITEM: ATOMS id type xs ys zs
1 1 .509591 .989339 .492515
2 1 .990927 .605056 .605483
3 1 .786380 .012628 .580448
4 1 .172059 .033526 .452482
5 1 .005785 .635154 .379790
6 1 .450519 .461124 .992442
7 1 .537078 .444577 .014190
ITEM: TIMESTEP
400
ITEM: NUMBER OF ATOMS
7
ITEM: BOX BOUNDS ss ss ss
-3.0805 3.1346
-2.7099 3.3895
-1.8574 2.0673
ITEM: ATOMS id type xs ys zs
1 1 .508382 .991368 .490000
2 1 .990727 .604340 .603799
3 1 .785079 .012108 .579955
4 1 .173721 .033935 .449308
5 1 .007186 .635959 .380379
6 1 .451993 .462739 .992343
7 1 .538565 .446202 .012393
ITEM: TIMESTEP
1
ITEM: NUMBER OF ATOMS
7
ITEM: BOX BOUNDS ss ss ss
-3.0731 3.1176
-2.6987 3.3853
-1.8362 2.0577
ITEM: ATOMS id type xs ys zs
1 1 .506540 .999215 .496311
2 1 .994696 .605236 .600522
3 1 .787380 .000802 .576940
4 1 .170589 .029664 .453167
5 1 .009311 .636882 .369198
6 1 .453788 .460674 .979669
7 1 .543593 .442917 .004840
ITEM: TIMESTEP
50
ITEM: NUMBER OF ATOMS
7
ITEM: BOX BOUNDS ss ss ss
-3.0731 3.1176
-2.7264 3.4159
-1.8457 2.0577
ITEM: ATOMS id type xs ys zs
1 1 .508070 .993442 .497024
2 1 .994699 .604373 .600675
3 1 .786496 .007860 .577219
4 1 .170804 .034138 .454065
5 1 .009111 .635438 .370221
6 1 .452734 .460577 .980034
7 1 .542079 .443030 .007145
ITEM: TIMESTEP
100
ITEM: NUMBER OF ATOMS
7
ITEM: BOX BOUNDS ss ss ss
-3.0731 3.1268
-2.7357 3.4237
-1.8503 2.0577
ITEM: ATOMS id type xs ys zs
1 1 .507163 .991448 .496755
2 1 .992948 .604450 .601801
3 1 .785954 .009806 .575386
4 1 .171661 .036557 .450826
5 1 .009248 .637268 .373405
6 1 .454508 .460269 .984083
7 1 .541055 .442678 .012856
ITEM: TIMESTEP
150
ITEM: NUMBER OF ATOMS
7
ITEM: BOX BOUNDS ss ss ss
-3.0731 3.1370
-2.7439 3.4215
-1.8584 2.0577
ITEM: ATOMS id type xs ys zs
1 1 .507451 .988781 .501496
2 1 .993325 .604432 .604820
3 1 .784576 .010506 .575730
4 1 .168737 .037423 .459300
5 1 .009590 .636646 .375754
6 1 .454628 .461669 .984725
7 1 .540673 .446988 .012089
ITEM: TIMESTEP
200
ITEM: NUMBER OF ATOMS
7
ITEM: BOX BOUNDS ss ss ss
-3.0731 3.1341
-2.7415 3.4173
-1.8595 2.0577
ITEM: ATOMS id type xs ys zs
1 1 .507312 .988371 .497696
2 1 .992697 .605565 .601877
3 1 .782522 .010607 .573616
4 1 .169325 .037558 .449287
5 1 .011134 .637638 .373424
6 1 .454841 .461308 .984965
7 1 .540177 .443454 .012938
ITEM: TIMESTEP
250
ITEM: NUMBER OF ATOMS
7
ITEM: BOX BOUNDS ss ss ss
-3.0731 3.1401
-2.7466 3.4210
-1.8559 2.0577
ITEM: ATOMS id type xs ys zs
1 1 .508484 .988866 .496197
2 1 .992195 .606095 .600999
3 1 .781322 .011361 .579681
4 1 .169124 .039725 .449131
5 1 .008109 .640019 .371377
6 1 .453417 .462436 .988201
7 1 .538985 .446480 .013240
ITEM: TIMESTEP
300
ITEM: NUMBER OF ATOMS
7
ITEM: BOX BOUNDS ss ss ss
-3.0731 3.1308
-2.7337 3.4122
-1.8584 2.0577
ITEM: ATOMS id type xs ys zs
1 1 .510308 .990933 .498659
2 1 .993717 .605089 .610069
3 1 .783519 .010529 .576202
4 1 .169500 .039387 .453470
5 1 .009061 .639395 .374776
6 1 .453070 .460346 .990590
7 1 .540160 .448885 .017415
ITEM: TIMESTEP
350
ITEM: NUMBER OF ATOMS
7
ITEM: BOX BOUNDS ss ss ss
-3.0731 3.1348
-2.7263 3.4042
-1.8558 2.0577
ITEM: ATOMS id type xs ys zs
1 1 .508833 .991185 .495978
2 1 .992225 .605970 .604323
3 1 .782025 .010255 .578648
4 1 .171427 .036552 .451897
5 1 .009607 .637562 .373341
6 1 .451598 .461343 .987603
7 1 .539066 .446856 .010997
ITEM: TIMESTEP
400
ITEM: NUMBER OF ATOMS
7
ITEM: BOX BOUNDS ss ss ss
-3.0731 3.1413
-2.7341 3.3967
-1.8599 2.0637
ITEM: ATOMS id type xs ys zs
1 1 .509409 .991638 .492640
2 1 .992073 .605598 .597878
3 1 .786986 .012410 .579207
4 1 .177041 .032421 .452160
5 1 .008686 .634727 .372989
6 1 .452957 .462779 .985240
7 1 .537805 .446492 .010878
ITEM: TIMESTEP
1
ITEM: NUMBER OF ATOMS
7
ITEM: BOX BOUNDS ss ss ss
-3.0731 3.1208
-2.6984 3.3855
-1.8397 2.0577
ITEM: ATOMS id type xs ys zs
1 1 .506274 .999187 .496774
2 1 .994185 .605217 .600885
3 1 .786974 .000770 .577331
4 1 .170493 .029629 .453670
5 1 .009308 .636839 .369793
6 1 .453562 .460646 .979690
7 1 .543319 .442885 .005763
ITEM: TIMESTEP
50
ITEM: NUMBER OF ATOMS
7
ITEM: BOX BOUNDS ss ss ss
-3.0731 3.1208
-2.7274 3.4121
-1.8440 2.0577
ITEM: ATOMS id type xs ys zs
1 1 .506644 .990879 .497088
2 1 .994267 .604618 .603162
3 1 .787441 .005324 .575464
4 1 .170700 .033607 .451588
5 1 .009541 .635125 .371311
6 1 .454476 .460804 .980034
7 1 .542595 .444193 .005920
ITEM: TIMESTEP
100
ITEM: NUMBER OF ATOMS
7
ITEM: BOX BOUNDS ss ss ss
-3.0731 3.1208
-2.7347 3.4242
-1.8573 2.0577
ITEM: ATOMS id type xs ys zs
1 1 .505023 .991163 .496050
2 1 .995362 .603977 .596134
3 1 .786441 .009546 .577638
4 1 .172091 .033186 .455254
5 1 .009685 .634258 .370986
6 1 .453736 .459674 .984090
7 1 .540790 .443503 .010876
ITEM: TIMESTEP
150
ITEM: NUMBER OF ATOMS
7
ITEM: BOX BOUNDS ss ss ss
-3.0731 3.1235
-2.7405 3.4172
-1.8568 2.0577
ITEM: ATOMS id type xs ys zs
1 1 .505939 .989867 .497712
2 1 .995561 .603577 .595875
3 1 .785211 .009531 .579624
4 1 .172322 .035585 .451893
5 1 .009130 .635019 .372824
6 1 .454184 .460045 .985446
7 1 .539860 .445068 .008751
ITEM: TIMESTEP
200
ITEM: NUMBER OF ATOMS
7
ITEM: BOX BOUNDS ss ss ss
-3.0731 3.1307
-2.7380 3.4164
-1.8541 2.0577
ITEM: ATOMS id type xs ys zs
1 1 .505285 .989054 .495478
2 1 .992711 .604257 .593969
3 1 .785504 .010245 .576862
4 1 .172585 .034509 .454282
5 1 .009148 .634340 .373115
6 1 .454451 .460848 .985270
7 1 .538805 .445484 .008521
ITEM: TIMESTEP
250
ITEM: NUMBER OF ATOMS
7
ITEM: BOX BOUNDS ss ss ss
-3.0731 3.1363
-2.7344 3.4080
-1.8660 2.0577
ITEM: ATOMS id type xs ys zs
1 1 .506429 .989284 .495832
2 1 .992994 .606260 .592795
3 1 .783991 .009579 .578125
4 1 .173181 .034087 .454514
5 1 .009587 .635215 .373693
6 1 .454640 .459369 .985923
7 1 .538986 .444624 .008234
ITEM: TIMESTEP
300
ITEM: NUMBER OF ATOMS
7
ITEM: BOX BOUNDS ss ss ss
-3.0731 3.1348
-2.7258 3.4085
-1.8584 2.0577
ITEM: ATOMS id type xs ys zs
1 1 .507202 .988081 .493833
2 1 .992520 .605494 .592027
3 1 .784721 .010150 .577531
4 1 .174346 .032990 .454604
5 1 .010831 .633881 .371731
6 1 .454343 .458011 .984138
7 1 .539217 .444179 .004595
ITEM: TIMESTEP
350
ITEM: NUMBER OF ATOMS
7
ITEM: BOX BOUNDS ss ss ss
-3.0731 3.1356
-2.7370 3.3982
-1.8693 2.0577
ITEM: ATOMS id type xs ys zs
1 1 .508334 .988263 .493870
2 1 .992114 .605654 .594090
3 1 .785844 .011697 .578563
4 1 .172761 .036218 .454573
5 1 .009851 .633980 .369932
6 1 .453092 .459648 .983058
7 1 .538085 .445156 .007448
ITEM: TIMESTEP
400
ITEM: NUMBER OF ATOMS
7
ITEM: BOX BOUNDS ss ss ss
-3.0731 3.1472
-2.7245 3.3974
-1.8735 2.0577
ITEM: ATOMS id type xs ys zs
1 1 .505183 .989355 .501539
2 1 .991249 .607538 .589733
3 1 .783191 .010672 .578639
4 1 .172998 .035186 .452314
5 1 .008430 .634617 .380529
6 1 .452735 .460009 .991157
7 1 .536634 .446195 .010158
ITEM: TIMESTEP
1
ITEM: NUMBER OF ATOMS
7
ITEM: BOX BOUNDS ss ss ss
-3.0695 3.1204
-2.6985 3.3852
-1.8633 2.0577
ITEM: ATOMS id type xs ys zs
1 1 .506032 .999201 .499773
2 1 .994248 .605240 .603301
3 1 .786902 .000805 .579883
4 1 .170016 .029640 .456900
5 1 .008727 .636855 .373549
6 1 .453281 .460667 .979821
7 1 .543073 .442917 .011730
ITEM: TIMESTEP
50
ITEM: NUMBER OF ATOMS
7
ITEM: BOX BOUNDS ss ss ss
-3.0695 3.1204
-2.7255 3.4111
-1.8633 2.0577
ITEM: ATOMS id type xs ys zs
1 1 .506215 .993763 .500214
2 1 .994256 .604593 .603242
3 1 .786094 .006307 .581262
4 1 .170894 .034596 .456600
5 1 .008982 .634567 .373606
6 1 .454069 .462347 .981546
7 1 .541812 .444007 .012828
ITEM: TIMESTEP
100
ITEM: NUMBER OF ATOMS
7
ITEM: BOX BOUNDS ss ss ss
-3.0695 3.1238
-2.7421 3.4220
-1.8633 2.0577
ITEM: ATOMS id type xs ys zs
1 1 .507066 .991809 .500000
2 1 .993129 .604300 .602838
3 1 .785356 .009053 .579535
4 1 .174246 .037461 .455684
5 1 .009840 .634217 .373460
6 1 .453452 .463335 .983031
7 1 .540240 .443807 .011580
ITEM: TIMESTEP
150
ITEM: NUMBER OF ATOMS
7
ITEM: BOX BOUNDS ss ss ss
-3.0695 3.1270
-2.7435 3.4298
-1.8633 2.0577
ITEM: ATOMS id type xs ys zs
1 1 .506059 .988310 .496850
2 1 .994278 .606886 .602701
3 1 .785874 .014365 .582013
4 1 .168598 .036548 .453413
5 1 .009913 .635571 .366545
6 1 .449782 .462399 .979243
7 1 .542352 .443711 .013236
ITEM: TIMESTEP
200
ITEM: NUMBER OF ATOMS
7
ITEM: BOX BOUNDS ss ss ss
-3.0695 3.1343
-2.7386 3.4250
-1.8633 2.0577
ITEM: ATOMS id type xs ys zs
1 1 .506699 .988037 .496474
2 1 .993090 .606555 .603479
3 1 .786031 .013191 .587017
4 1 .168666 .035804 .455384
5 1 .009694 .637060 .368709
6 1 .450313 .461376 .980726
7 1 .540025 .442957 .013855
ITEM: TIMESTEP
250
ITEM: NUMBER OF ATOMS
7
ITEM: BOX BOUNDS ss ss ss
-3.0695 3.1335
-2.7417 3.4112
-1.8749 2.0577
ITEM: ATOMS id type xs ys zs
1 1 .507118 .990035 .499714
2 1 .992378 .605374 .607351
3 1 .787030 .013184 .586686
4 1 .168906 .037953 .455076
5 1 .007464 .637373 .368634
6 1 .448307 .461694 .981791
7 1 .539506 .443896 .018435
ITEM: TIMESTEP
300
ITEM: NUMBER OF ATOMS
7
ITEM: BOX BOUNDS ss ss ss
-3.0695 3.1353
-2.7346 3.4135
-1.8633 2.0577
ITEM: ATOMS id type xs ys zs
1 1 .507219 .988372 .497073
2 1 .992013 .605471 .603844
3 1 .786739 .011562 .585295
4 1 .169674 .036455 .453437
5 1 .008213 .636965 .367397
6 1 .448889 .460911 .983322
7 1 .539452 .442953 .015862
ITEM: TIMESTEP
350
ITEM: NUMBER OF ATOMS
7
ITEM: BOX BOUNDS ss ss ss
-3.0695 3.1341
-2.7369 3.4053
-1.8633 2.0577
ITEM: ATOMS id type xs ys zs
1 1 .508411 .990581 .495923
2 1 .992451 .605299 .602004
3 1 .784160 .012460 .582417
4 1 .169875 .038540 .454520
5 1 .007397 .637913 .367166
6 1 .450896 .463239 .984828
7 1 .539868 .444878 .015204
ITEM: TIMESTEP
400
ITEM: NUMBER OF ATOMS
7
ITEM: BOX BOUNDS ss ss ss
-3.0695 3.1323
-2.7321 3.4047
-1.8633 2.0577
ITEM: ATOMS id type xs ys zs
1 1 .507668 .989118 .493394
2 1 .992540 .604535 .602741
3 1 .784547 .012351 .585520
4 1 .170984 .036815 .455632
5 1 .006866 .635208 .369206
6 1 .451230 .461879 .985817
7 1 .540278 .444853 .014348
ITEM: TIMESTEP
1
ITEM: NUMBER OF ATOMS
7
ITEM: BOX BOUNDS ss ss ss
-3.0409 3.1123
-2.6983 3.3858
-1.8418 2.0267
ITEM: ATOMS id type xs ys zs
1 1 .504400 .999123 .501010
2 1 .995527 .605157 .605922
3 1 .786962 .000739 .582212
4 1 .166408 .029604 .457620
5 1 .004128 .636803 .373083
6 1 .451326 .460606 .987553
7 1 .541679 .442866 .006309
ITEM: TIMESTEP
50
ITEM: NUMBER OF ATOMS
7
ITEM: BOX BOUNDS ss ss ss
-3.0415 3.1123
-2.7265 3.4215
-1.8462 2.0267
ITEM: ATOMS id type xs ys zs
1 1 .506147 .992470 .499261
2 1 .996345 .604884 .606678
3 1 .786544 .005669 .582346
4 1 .166075 .034577 .458639
5 1 .004573 .634202 .372815
6 1 .450611 .460827 .989479
7 1 .541947 .443862 .007215
ITEM: TIMESTEP
100
ITEM: NUMBER OF ATOMS
7
ITEM: BOX BOUNDS ss ss ss
-3.0525 3.1210
-2.7370 3.4263
-1.8540 2.0267
ITEM: ATOMS id type xs ys zs
1 1 .506079 .991886 .495932
2 1 .995573 .607398 .607259
3 1 .785967 .008498 .581833
4 1 .166882 .037093 .458507
5 1 .006948 .634415 .371538
6 1 .451447 .462595 .990174
7 1 .541927 .444953 .007828
ITEM: TIMESTEP
150
ITEM: NUMBER OF ATOMS
7
ITEM: BOX BOUNDS ss ss ss
-3.0532 3.1276
-2.7469 3.4253
-1.8652 2.0267
ITEM: ATOMS id type xs ys zs
1 1 .507632 .989749 .503725
2 1 .993222 .603437 .604924
3 1 .781858 .008209 .582883
4 1 .168009 .038229 .457483
5 1 .009048 .635131 .373317
6 1 .450782 .463260 .993595
7 1 .538879 .444878 .013930
ITEM: TIMESTEP
200
ITEM: NUMBER OF ATOMS
7
ITEM: BOX BOUNDS ss ss ss
-3.0664 3.1268
-2.7514 3.4291
-1.8635 2.0332
ITEM: ATOMS id type xs ys zs
1 1 .509680 .987471 .503074
2 1 .994727 .602710 .601797
3 1 .779926 .009828 .582805
4 1 .168386 .038611 .456283
5 1 .012297 .635746 .372517
6 1 .451403 .462333 .992769
7 1 .539580 .445657 .010975
ITEM: TIMESTEP
250
ITEM: NUMBER OF ATOMS
7
ITEM: BOX BOUNDS ss ss ss
-3.0490 3.1277
-2.7478 3.4185
-1.8513 2.0436
ITEM: ATOMS id type xs ys zs
1 1 .506431 .988948 .501994
2 1 .993515 .603673 .597548
3 1 .780991 .010272 .577897
4 1 .166890 .038741 .453846
5 1 .008715 .635278 .372494
6 1 .453102 .460780 .992462
7 1 .539905 .447242 .010680
ITEM: TIMESTEP
300
ITEM: NUMBER OF ATOMS
7
ITEM: BOX BOUNDS ss ss ss
-3.0454 3.1314
-2.7394 3.4188
-1.8579 2.0439
ITEM: ATOMS id type xs ys zs
1 1 .504368 .987902 .503933
2 1 .991652 .603689 .604068
3 1 .781113 .010695 .575519
4 1 .168241 .038683 .455957
5 1 .004914 .636480 .366710
6 1 .448651 .462641 .992865
7 1 .535557 .446329 .010426
ITEM: TIMESTEP
350
ITEM: NUMBER OF ATOMS
7
ITEM: BOX BOUNDS ss ss ss
-3.0505 3.1358
-2.7446 3.4106
-1.8633 2.0571
ITEM: ATOMS id type xs ys zs
1 1 .510002 .990138 .496424
2 1 .992448 .603066 .599489
3 1 .781271 .012219 .578658
4 1 .166878 .040311 .454687
5 1 .009621 .635332 .368141
6 1 .451343 .462968 .988233
7 1 .538443 .444697 .011506
ITEM: TIMESTEP
400
ITEM: NUMBER OF ATOMS
7
ITEM: BOX BOUNDS ss ss ss
-3.0600 3.1308
-2.7367 3.4084
-1.8678 2.0582
ITEM: ATOMS id type xs ys zs
1 1 .507203 .990740 .505632
2 1 .992925 .604627 .600829
3 1 .784730 .013588 .579785
4 1 .169574 .037167 .451072
5 1 .008907 .635453 .374339
6 1 .452495 .458825 .989115
7 1 .540572 .447383 .012326
ITEM: TIMESTEP
1
ITEM: NUMBER OF ATOMS
7
ITEM: BOX BOUNDS ss ss ss
-3.0530 3.1139
-2.6985 3.3851
-1.8494 2.0346
ITEM: ATOMS id type xs ys zs
1 1 .505239 .999246 .500962
2 1 .995279 .605246 .605473
3 1 .787164 .000756 .581815
4 1 .167989 .029647 .457708
5 1 .006067 .636878 .373549
6 1 .452293 .460685 .985571
7 1 .542430 .442909 .008256
ITEM: TIMESTEP
50
ITEM: NUMBER OF ATOMS
7
ITEM: BOX BOUNDS ss ss ss
-3.0530 3.1151
-2.7278 3.4168
-1.8494 2.0346
ITEM: ATOMS id type xs ys zs
1 1 .505438 .992892 .498905
2 1 .995524 .602428 .606677
3 1 .788594 .006972 .582042
4 1 .167888 .035145 .456457
5 1 .006899 .634482 .373629
6 1 .452038 .459544 .988964
7 1 .541401 .442439 .008836
ITEM: TIMESTEP
100
ITEM: NUMBER OF ATOMS
7
ITEM: BOX BOUNDS ss ss ss
-3.0530 3.1260
-2.7378 3.4226
-1.8517 2.0346
ITEM: ATOMS id type xs ys zs
1 1 .504133 .990608 .496191
2 1 .993928 .604730 .606635
3 1 .785404 .008420 .581277
4 1 .169313 .033566 .454296
5 1 .006226 .635416 .371202
6 1 .451775 .460762 .984950
7 1 .539351 .444248 .004868
ITEM: TIMESTEP
150
ITEM: NUMBER OF ATOMS
7
ITEM: BOX BOUNDS ss ss ss
-3.0530 3.1321
-2.7505 3.4259
-1.8590 2.0346
ITEM: ATOMS id type xs ys zs
1 1 .503675 .991520 .495971
2 1 .993474 .604480 .608267
3 1 .786453 .011817 .583358
4 1 .169940 .033685 .453820
5 1 .005724 .633235 .371324
6 1 .450725 .461475 .987338
7 1 .538262 .446325 .008417
ITEM: TIMESTEP
200
ITEM: NUMBER OF ATOMS
7
ITEM: BOX BOUNDS ss ss ss
-3.0530 3.1305
-2.7530 3.4224
-1.8638 2.0346
ITEM: ATOMS id type xs ys zs
1 1 .503979 .989913 .497856
2 1 .993270 .603928 .606372
3 1 .788247 .011536 .587848
4 1 .173067 .036691 .454915
5 1 .005476 .635123 .372874
6 1 .451272 .462305 .986737
7 1 .540107 .445188 .011874
ITEM: TIMESTEP
250
ITEM: NUMBER OF ATOMS
7
ITEM: BOX BOUNDS ss ss ss
-3.0598 3.1362
-2.7506 3.4276
-1.8664 2.0346
ITEM: ATOMS id type xs ys zs
1 1 .503704 .987289 .496206
2 1 .991860 .603759 .608023
3 1 .786906 .010239 .585685
4 1 .176314 .038275 .455961
5 1 .006716 .631958 .373388
6 1 .450214 .462609 .988489
7 1 .540308 .443765 .014851
ITEM: TIMESTEP
300
ITEM: NUMBER OF ATOMS
7
ITEM: BOX BOUNDS ss ss ss
-3.0573 3.1389
-2.7450 3.4196
-1.8710 2.0346
ITEM: ATOMS id type xs ys zs
1 1 .503076 .986518 .496738
2 1 .991040 .603855 .607484
3 1 .785886 .010124 .584844
4 1 .174552 .035737 .456116
5 1 .004922 .633771 .375592
6 1 .449570 .463169 .986932
7 1 .539375 .444294 .017459
ITEM: TIMESTEP
350
ITEM: NUMBER OF ATOMS
7
ITEM: BOX BOUNDS ss ss ss
-3.0699 3.1464
-2.7397 3.4279
-1.8808 2.0346
ITEM: ATOMS id type xs ys zs
1 1 .504697 .986855 .499304
2 1 .988511 .600729 .607405
3 1 .787123 .011090 .587768
4 1 .172046 .035184 .457692
5 1 .010986 .632041 .376540
6 1 .451674 .460994 .987029
7 1 .539881 .441251 .015341
ITEM: TIMESTEP
400
ITEM: NUMBER OF ATOMS
7
ITEM: BOX BOUNDS ss ss ss
-3.0619 3.1471
-2.7337 3.4203
-1.8740 2.0459
ITEM: ATOMS id type xs ys zs
1 1 .506340 .988371 .492906
2 1 .989060 .602737 .603629
3 1 .786224 .011250 .585186
4 1 .170399 .034165 .455430
5 1 .009072 .634739 .375088
6 1 .451196 .460080 .986629
7 1 .540873 .441772 .011726
ITEM: TIMESTEP
1
ITEM: NUMBER OF ATOMS
7
ITEM: BOX BOUNDS ss ss ss
-3.0459 3.1135
-2.7108 3.3931
-1.8482 2.0206
ITEM: ATOMS id type xs ys zs
1 1 .504706 .997944 .502614
2 1 .995348 .605253 .607500
3 1 .786966 .002796 .583801
4 1 .167040 .031558 .459216
5 1 .004936 .636786 .374715
6 1 .451683 .461171 .989151
7 1 .541944 .443465 .007952
ITEM: TIMESTEP
50
ITEM: NUMBER OF ATOMS
7
ITEM: BOX BOUNDS ss ss ss
-3.0459 3.1135
-2.7274 3.4172
-1.8482 2.0206
ITEM: ATOMS id type xs ys zs
1 1 .506126 .992476 .501002
2 1 .994817 .605673 .606205
3 1 .787045 .006159 .584489
4 1 .166790 .034403 .459415
5 1 .004831 .634856 .373648
6 1 .452194 .461961 .989869
7 1 .540600 .441727 .007399
ITEM: TIMESTEP
100
ITEM: NUMBER OF ATOMS
7
ITEM: BOX BOUNDS ss ss ss
-3.0542 3.1228
-2.7411 3.4257
-1.8521 2.0206
ITEM: ATOMS id type xs ys zs
1 1 .503360 .989901 .501038
2 1 .994965 .603995 .608597
3 1 .784263 .008984 .583668
4 1 .170141 .035182 .461501
5 1 .005160 .635709 .373636
6 1 .452788 .461683 .992690
7 1 .541091 .443526 .010691
ITEM: TIMESTEP
150
ITEM: NUMBER OF ATOMS
7
ITEM: BOX BOUNDS ss ss ss
-3.0583 3.1334
-2.7436 3.4290
-1.8600 2.0206
ITEM: ATOMS id type xs ys zs
1 1 .503173 .988085 .502174
2 1 .993468 .604029 .610889
3 1 .782988 .010258 .583728
4 1 .168893 .035705 .464765
5 1 .005447 .634197 .377395
6 1 .453327 .462363 .994315
7 1 .540388 .443536 .010573
ITEM: TIMESTEP
200
ITEM: NUMBER OF ATOMS
7
ITEM: BOX BOUNDS ss ss ss
-3.0622 3.1318
-2.7531 3.4209
-1.8688 2.0260
ITEM: ATOMS id type xs ys zs
1 1 .502633 .988943 .500736
2 1 .993556 .604601 .608888
3 1 .783114 .012945 .586590
4 1 .171841 .038437 .465679
5 1 .007188 .634109 .375045
6 1 .453173 .465441 .992791
7 1 .538295 .443028 .015495
ITEM: TIMESTEP
250
ITEM: NUMBER OF ATOMS
7
ITEM: BOX BOUNDS ss ss ss
-3.0657 3.1317
-2.7430 3.4239
-1.8659 2.0305
ITEM: ATOMS id type xs ys zs
1 1 .503529 .989101 .503981
2 1 .991291 .605239 .608547
3 1 .782529 .010200 .587328
4 1 .169620 .035550 .460611
5 1 .007884 .632401 .375155
6 1 .453243 .461870 .995509
7 1 .539268 .443722 .016615
ITEM: TIMESTEP
300
ITEM: NUMBER OF ATOMS
7
ITEM: BOX BOUNDS ss ss ss
-3.0631 3.1443
-2.7440 3.4178
-1.8623 2.0375
ITEM: ATOMS id type xs ys zs
1 1 .503038 .989387 .501731
2 1 .990463 .605861 .607267
3 1 .781377 .011052 .581440
4 1 .168902 .034996 .461627
5 1 .008043 .633087 .375017
6 1 .451307 .462146 .993708
7 1 .536936 .445121 .016185
ITEM: TIMESTEP
350
ITEM: NUMBER OF ATOMS
7
ITEM: BOX BOUNDS ss ss ss
-3.0750 3.1416
-2.7477 3.4096
-1.8625 2.0533
ITEM: ATOMS id type xs ys zs
1 1 .504929 .990526 .501047
2 1 .990184 .607361 .601325
3 1 .782471 .012659 .582083
4 1 .171437 .034866 .456133
5 1 .008210 .633354 .373108
6 1 .452361 .463292 .989569
7 1 .537789 .444803 .012753
ITEM: TIMESTEP
400
ITEM: NUMBER OF ATOMS
7
ITEM: BOX BOUNDS ss ss ss
-3.0686 3.1392
-2.7504 3.4056
-1.8482 2.0551
ITEM: ATOMS id type xs ys zs
1 1 .504066 .990170 .497786
2 1 .991043 .609305 .600301
3 1 .782350 .015181 .577391
4 1 .171019 .036030 .453025
5 1 .008191 .635762 .370688
6 1 .452432 .463751 .991808
7 1 .537790 .445634 .013607
ITEM: TIMESTEP
1
ITEM: NUMBER OF ATOMS
7
ITEM: BOX BOUNDS ss ss ss
-3.0501 3.1135
-2.7147 3.3931
-1.8482 2.0387
ITEM: ATOMS id type xs ys zs
1 1 .505044 .997946 .500309
2 1 .995343 .605496 .604698
3 1 .787128 .003448 .581097
4 1 .167612 .032157 .457078
5 1 .005631 .637010 .372962
6 1 .452055 .461506 .984562
7 1 .542251 .443833 .007923
ITEM: TIMESTEP
50
ITEM: NUMBER OF ATOMS
7
ITEM: BOX BOUNDS ss ss ss
-3.0501 3.1135
-2.7268 3.4188
-1.8482 2.0387
ITEM: ATOMS id type xs ys zs
1 1 .505983 .990821 .501369
2 1 .996616 .604153 .606564
3 1 .786819 .006838 .583490
4 1 .169078 .035414 .453176
5 1 .006429 .635891 .372220
6 1 .451448 .461210 .983108
7 1 .541462 .441883 .010669
ITEM: TIMESTEP
100
ITEM: NUMBER OF ATOMS
7
ITEM: BOX BOUNDS ss ss ss
-3.0503 3.1227
-2.7432 3.4269
-1.8567 2.0387
ITEM: ATOMS id type xs ys zs
1 1 .505274 .989646 .498777
2 1 .991988 .606354 .611317
3 1 .786014 .010553 .578633
4 1 .170628 .036425 .460220
5 1 .004871 .635557 .371723
6 1 .450422 .461148 .985760
7 1 .540477 .442926 .011348
ITEM: TIMESTEP
150
ITEM: NUMBER OF ATOMS
7
ITEM: BOX BOUNDS ss ss ss
-3.0501 3.1301
-2.7438 3.4273
-1.8557 2.0387
ITEM: ATOMS id type xs ys zs
1 1 .504873 .988279 .499071
2 1 .991518 .605423 .607179
3 1 .784206 .011200 .582349
4 1 .169689 .035616 .459900
5 1 .004720 .633701 .371714
6 1 .449024 .462571 .985192
7 1 .539102 .444364 .008795
ITEM: TIMESTEP
200
ITEM: NUMBER OF ATOMS
7
ITEM: BOX BOUNDS ss ss ss
-3.0501 3.1236
-2.7451 3.4247
-1.8577 2.0387
ITEM: ATOMS id type xs ys zs
1 1 .505550 .988917 .497187
2 1 .991561 .605963 .610662
3 1 .786105 .011660 .577709
4 1 .169422 .037848 .460019
5 1 .004842 .633279 .369639
6 1 .451005 .460836 .987989
7 1 .539771 .444017 .010984
ITEM: TIMESTEP
250
ITEM: NUMBER OF ATOMS
7
ITEM: BOX BOUNDS ss ss ss
-3.0501 3.1274
-2.7383 3.4167
-1.8608 2.0387
ITEM: ATOMS id type xs ys zs
1 1 .505504 .989597 .497032
2 1 .993048 .606019 .607558
3 1 .786846 .012414 .580637
4 1 .168113 .034646 .463064
5 1 .006227 .635648 .374213
6 1 .451837 .460066 .988338
7 1 .538063 .445391 .007144
ITEM: TIMESTEP
300
ITEM: NUMBER OF ATOMS
7
ITEM: BOX BOUNDS ss ss ss
-3.0564 3.1259
-2.7306 3.4115
-1.8653 2.0387
ITEM: ATOMS id type xs ys zs
1 1 .505910 .989644 .495096
2 1 .992652 .605716 .609584
3 1 .786386 .012842 .580087
4 1 .167368 .034183 .463068
5 1 .006941 .636094 .374495
6 1 .452217 .459320 .988245
7 1 .538799 .444038 .009085
ITEM: TIMESTEP
350
ITEM: NUMBER OF ATOMS
7
ITEM: BOX BOUNDS ss ss ss
-3.0568 3.1248
-2.7328 3.4102
-1.8649 2.0390
ITEM: ATOMS id type xs ys zs
1 1 .510081 .987368 .492489