ITEM: TIMESTEP
1
ITEM: NUMBER OF ATOMS
7
ITEM: BOX BOUNDS ss ss ss
-3.0194 3.0883
-2.6983 3.3852
-1.8212 1.9821
ITEM: ATOMS id type xs ys zs
1 1 .504587 .999401 .504649
2 1 .999592 .605140 .610071
3 1 .789474 .000755 .586554
4 1 .164021 .029484 .459993
5 1 .000627 .636878 .373784
6 1 .451192 .460717 .998904
7 1 .542250 .442690 .001434
ITEM: TIMESTEP
50
ITEM: NUMBER OF ATOMS
7
ITEM: BOX BOUNDS ss ss ss
-3.0411 3.1140
-2.7249 3.4065
-1.8464 2.0023
ITEM: ATOMS id type xs ys zs
1 1 .506267 .999350 .507495
2 1 .995424 .606188 .611252
3 1 .786748 .002913 .587378
4 1 .166047 .034693 .464548
5 1 .003332 .637165 .374139
6 1 .451553 .460257 .990789
7 1 .540830 .443088 .009956
ITEM: TIMESTEP
100
ITEM: NUMBER OF ATOMS
7
ITEM: BOX BOUNDS ss ss ss
-3.0459 3.1203
-2.7284 3.4162
-1.8553 2.0142
ITEM: ATOMS id type xs ys zs
1 1 .506568 .992718 .507224
2 1 .995568 .604569 .604014
3 1 .788013 .003840 .580600
4 1 .168620 .034363 .461001
5 1 .004991 .636153 .375383
6 1 .449266 .460361 .992459
7 1 .542228 .441505 .011595
ITEM: TIMESTEP
150
ITEM: NUMBER OF ATOMS
7
ITEM: BOX BOUNDS ss ss ss
-3.0551 3.1234
-2.7301 3.4171
-1.8563 2.0244
ITEM: ATOMS id type xs ys zs
1 1 .505596 .991699 .502553
2 1 .996455 .603123 .609448
3 1 .785084 .004850 .583650
4 1 .169617 .033319 .460701
5 1 .005894 .634087 .372244
6 1 .450829 .461787 .990359
7 1 .540087 .444057 .012170
ITEM: TIMESTEP
200
ITEM: NUMBER OF ATOMS
7
ITEM: BOX BOUNDS ss ss ss
-3.0640 3.1210
-2.7252 3.4057
-1.8548 2.0378
ITEM: ATOMS id type xs ys zs
1 1 .506288 .991241 .497186
2 1 .993947 .603162 .606665
3 1 .782487 .008308 .578709
4 1 .167986 .034354 .457548
5 1 .010406 .632401 .369836
6 1 .453377 .458348 .990416
7 1 .543214 .446673 .007374
ITEM: TIMESTEP
250
ITEM: NUMBER OF ATOMS
7
ITEM: BOX BOUNDS ss ss ss
-3.0539 3.1278
-2.7169 3.4086
-1.8730 2.0500
ITEM: ATOMS id type xs ys zs
1 1 .504854 .992387 .501127
2 1 .993348 .601830 .609672
3 1 .781763 .005834 .579817
4 1 .165845 .032188 .461077
5 1 .008635 .633173 .371684
6 1 .454867 .457525 .988185
7 1 .541731 .445037 .011758
ITEM: TIMESTEP
300
ITEM: NUMBER OF ATOMS
7
ITEM: BOX BOUNDS ss ss ss
-3.0552 3.1355
-2.7142 3.3884
-1.8645 2.0518
ITEM: ATOMS id type xs ys zs
1 1 .504168 .994149 .494518
2 1 .995910 .609525 .602434
3 1 .783761 .003248 .583115
4 1 .171914 .032549 .446484
5 1 .006048 .633391 .374475
6 1 .452862 .457478 .985876
7 1 .541374 .446089 .011878
ITEM: TIMESTEP
350
ITEM: NUMBER OF ATOMS
7
ITEM: BOX BOUNDS ss ss ss
-3.0615 3.1299
-2.7162 3.3897
-1.8652 2.0542
ITEM: ATOMS id type xs ys zs
1 1 .507075 .991029 .490993
2 1 .992075 .609989 .601653
3 1 .779901 .011279 .573781
4 1 .167307 .034429 .453402
5 1 .007469 .637918 .368624
6 1 .451956 .462432 .988950
7 1 .539109 .446200 .002060
ITEM: TIMESTEP
400
ITEM: NUMBER OF ATOMS
7
ITEM: BOX BOUNDS ss ss ss
-3.0655 3.1347
-2.7155 3.3839
-1.8679 2.0557
ITEM: ATOMS id type xs ys zs
1 1 .506922 .992484 .488136
2 1 .991136 .610081 .600114
3 1 .777067 .012615 .575637
4 1 .167634 .033838 .452471
5 1 .009620 .638480 .368596
6 1 .452329 .463618 .986723
7 1 .537038 .447816 .004668
ITEM: TIMESTEP
1
ITEM: NUMBER OF ATOMS
7
ITEM: BOX BOUNDS ss ss ss
-3.0524 3.1150
-2.6986 3.3858
-1.8641 2.0396
ITEM: ATOMS id type xs ys zs
1 1 .505025 .999470 .502790
2 1 .995036 .605243 .606354
3 1 .786993 .000685 .582308
4 1 .168002 .029666 .459087
5 1 .005913 .636753 .375387
6 1 .452055 .460800 .983771
7 1 .542049 .442743 .011776
ITEM: TIMESTEP
50
ITEM: NUMBER OF ATOMS
7
ITEM: BOX BOUNDS ss ss ss
-3.0524 3.1150
-2.7248 3.4100
-1.8641 2.0396
ITEM: ATOMS id type xs ys zs
1 1 .504616 .994716 .500971
2 1 .993549 .604356 .610874
3 1 .787903 .005385 .581022
4 1 .167913 .034678 .458321
5 1 .008459 .637055 .374209
6 1 .451905 .460033 .984910
7 1 .541312 .443078 .011307
ITEM: TIMESTEP
100
ITEM: NUMBER OF ATOMS
7
ITEM: BOX BOUNDS ss ss ss
-3.0524 3.1182
-2.7326 3.4257
-1.8641 2.0396
ITEM: ATOMS id type xs ys zs
1 1 .507169 .993039 .502284
2 1 .992934 .604075 .604709
3 1 .785335 .009381 .581516
4 1 .168027 .036459 .457940
5 1 .007578 .632544 .371477
6 1 .451525 .460295 .985368
7 1 .540216 .442510 .009021
ITEM: TIMESTEP
150
ITEM: NUMBER OF ATOMS
7
ITEM: BOX BOUNDS ss ss ss
-3.0524 3.1271
-2.7352 3.4142
-1.8641 2.0396
ITEM: ATOMS id type xs ys zs
1 1 .505478 .996161 .501411
2 1 .989950 .604614 .602744
3 1 .784811 .007977 .580978
4 1 .166145 .036791 .458461
5 1 .007452 .632499 .369372
6 1 .449300 .461754 .984371
7 1 .540149 .444151 .008177
ITEM: TIMESTEP
200
ITEM: NUMBER OF ATOMS
7
ITEM: BOX BOUNDS ss ss ss
-3.0536 3.1264
-2.7339 3.4155
-1.8641 2.0396
ITEM: ATOMS id type xs ys zs
1 1 .502131 .995788 .505800
2 1 .996649 .606977 .600759
3 1 .784857 .009059 .583587
4 1 .169569 .036967 .455700
5 1 .006061 .637104 .371653
6 1 .451573 .464631 .987231
7 1 .539621 .446542 .011913
ITEM: TIMESTEP
250
ITEM: NUMBER OF ATOMS
7
ITEM: BOX BOUNDS ss ss ss
-3.0577 3.1345
-2.7275 3.4081
-1.8606 2.0401
ITEM: ATOMS id type xs ys zs
1 1 .503175 .994050 .500140
2 1 .993001 .602206 .612168
3 1 .785524 .002810 .576231
4 1 .170491 .035032 .461556
5 1 .005721 .633015 .372452
6 1 .451397 .463959 .989371
7 1 .537878 .448471 .009962
ITEM: TIMESTEP
300
ITEM: NUMBER OF ATOMS
7
ITEM: BOX BOUNDS ss ss ss
-3.0584 3.1425
-2.7183 3.4113
-1.8576 2.0467
ITEM: ATOMS id type xs ys zs
1 1 .506396 .990047 .505360
2 1 .992047 .605943 .595388
3 1 .782775 .007497 .590164
4 1 .170003 .032255 .456909
5 1 .008710 .636318 .375137
6 1 .449192 .460226 .985833
7 1 .537519 .441043 .010410
ITEM: TIMESTEP
350
ITEM: NUMBER OF ATOMS
7
ITEM: BOX BOUNDS ss ss ss
-3.0577 3.1347
-2.7202 3.3949
-1.8614 2.0558
ITEM: ATOMS id type xs ys zs
1 1 .507027 .991432 .502747
2 1 .991290 .607745 .591277
3 1 .783097 .007915 .590579
4 1 .171537 .032498 .457844
5 1 .010541 .638387 .376021
6 1 .449723 .460992 .982429
7 1 .537714 .441992 .011889
ITEM: TIMESTEP
400
ITEM: NUMBER OF ATOMS
7
ITEM: BOX BOUNDS ss ss ss
-3.0602 3.1345
-2.7085 3.3994
-1.8678 2.0613
ITEM: ATOMS id type xs ys zs
1 1 .506242 .987828 .508297
2 1 .990721 .609615 .599568
3 1 .781919 .005513 .580973
4 1 .165378 .034995 .455659
5 1 .010865 .635588 .366071
6 1 .454682 .458273 .991041
7 1 .538491 .440820 .011258
ITEM: TIMESTEP
1
ITEM: NUMBER OF ATOMS
7
ITEM: BOX BOUNDS ss ss ss
-3.0491 3.1170
-2.6982 3.3860
-1.8574 2.0439
ITEM: ATOMS id type xs ys zs
1 1 .504596 .999404 .501010
2 1 .994629 .605077 .604824
3 1 .786668 .000724 .581200
4 1 .167171 .029633 .457823
5 1 .005394 .636799 .373892
6 1 .452063 .460299 .982919
7 1 .541819 .442887 .010242
ITEM: TIMESTEP
50
ITEM: NUMBER OF ATOMS
7
ITEM: BOX BOUNDS ss ss ss
-3.0491 3.1170
-2.7258 3.4111
-1.8574 2.0439
ITEM: ATOMS id type xs ys zs
1 1 .503945 .995958 .497725
2 1 .993439 .602074 .606017
3 1 .786422 .004582 .582399
4 1 .167414 .033231 .458650
5 1 .004365 .634063 .374323
6 1 .451882 .460293 .980302
7 1 .541955 .443197 .009732
ITEM: TIMESTEP
100
ITEM: NUMBER OF ATOMS
7
ITEM: BOX BOUNDS ss ss ss
-3.0491 3.1275
-2.7312 3.4205
-1.8574 2.0439
ITEM: ATOMS id type xs ys zs
1 1 .507039 .993672 .499637
2 1 .993303 .600406 .607898
3 1 .783766 .006341 .585494
4 1 .169503 .032981 .461209
5 1 .006111 .636823 .376129
6 1 .450181 .463664 .981894
7 1 .542028 .442216 .013312
ITEM: TIMESTEP
150
ITEM: NUMBER OF ATOMS
7
ITEM: BOX BOUNDS ss ss ss
-3.0609 3.1246
-2.7380 3.4198
-1.8574 2.0439
ITEM: ATOMS id type xs ys zs
1 1 .507300 .993446 .501197
2 1 .996231 .598286 .609063
3 1 .783502 .006746 .585858
4 1 .169970 .033930 .458924
5 1 .008006 .637820 .375679
6 1 .451476 .464333 .980693
7 1 .542806 .442296 .013273
ITEM: TIMESTEP
200
ITEM: NUMBER OF ATOMS
7
ITEM: BOX BOUNDS ss ss ss
-3.0665 3.1259
-2.7304 3.4127
-1.8574 2.0439
ITEM: ATOMS id type xs ys zs
1 1 .505842 .990757 .499927
2 1 .994935 .605523 .608167
3 1 .782474 .010775 .580148
4 1 .169124 .035405 .457564
5 1 .007563 .634430 .377142
6 1 .452757 .460874 .987277
7 1 .540387 .441015 .010769
ITEM: TIMESTEP
250
ITEM: NUMBER OF ATOMS
7
ITEM: BOX BOUNDS ss ss ss
-3.0762 3.1176
-2.7177 3.4008
-1.8574 2.0447
ITEM: ATOMS id type xs ys zs
1 1 .504548 .993237 .491329
2 1 .992401 .607115 .606686
3 1 .787228 .007224 .583521
4 1 .173382 .032830 .451957
5 1 .007986 .634799 .374044
6 1 .455190 .460841 .986419
7 1 .539780 .443347 .016057
ITEM: TIMESTEP
300
ITEM: NUMBER OF ATOMS
7
ITEM: BOX BOUNDS ss ss ss
-3.0806 3.1227
-2.7133 3.3888
-1.8574 2.0668
ITEM: ATOMS id type xs ys zs
1 1 .505491 .995125 .485345
2 1 .991680 .608838 .608568
3 1 .786914 .005646 .579851
4 1 .173390 .031462 .448014
5 1 .009568 .635701 .369141
6 1 .455010 .463105 .979376
7 1 .539442 .444447 .018646
ITEM: TIMESTEP
350
ITEM: NUMBER OF ATOMS
7
ITEM: BOX BOUNDS ss ss ss
-3.0839 3.1235
-2.7138 3.3935
-1.8574 2.0672
ITEM: ATOMS id type xs ys zs
1 1 .506822 .993128 .493353
2 1 .993871 .608040 .604651
3 1 .783579 .006964 .579726
4 1 .172489 .033173 .448337
5 1 .007340 .632120 .376586
6 1 .455376 .460579 .986526
7 1 .539442 .444768 .013631
ITEM: TIMESTEP
400
ITEM: NUMBER OF ATOMS
7
ITEM: BOX BOUNDS ss ss ss
-3.0805 3.1346
-2.7099 3.3895
-1.8574 2.0673
ITEM: ATOMS id type xs ys zs
1 1 .507446 .991358 .497127
2 1 .992741 .607522 .601800
3 1 .786417 .013922 .573970
4 1 .173931 .030250 .454493
5 1 .006467 .637230 .363509
6 1 .449747 .459734 .985889
7 1 .539070 .448116 .013793
ITEM: TIMESTEP
1
ITEM: NUMBER OF ATOMS
7
ITEM: BOX BOUNDS ss ss ss
-3.0731 3.1176
-2.6987 3.3853
-1.8362 2.0577
ITEM: ATOMS id type xs ys zs
1 1 .506461 .999307 .496594
2 1 .994497 .605327 .600205
3 1 .787372 .000642 .576739
4 1 .170487 .029912 .453043
5 1 .009391 .637031 .369070
6 1 .454173 .460573 .979715
7 1 .543796 .443009 .004591
ITEM: TIMESTEP
50
ITEM: NUMBER OF ATOMS
7
ITEM: BOX BOUNDS ss ss ss
-3.0731 3.1176
-2.7264 3.4159
-1.8457 2.0577
ITEM: ATOMS id type xs ys zs
1 1 .505244 .995488 .499670
2 1 .995253 .604684 .604308
3 1 .788714 .006433 .577200
4 1 .172042 .036228 .457123
5 1 .008086 .635286 .371051
6 1 .455148 .460662 .983569
7 1 .543992 .443801 .009951
ITEM: TIMESTEP
100
ITEM: NUMBER OF ATOMS
7
ITEM: BOX BOUNDS ss ss ss
-3.0731 3.1268
-2.7357 3.4237
-1.8503 2.0577
ITEM: ATOMS id type xs ys zs
1 1 .503142 .992761 .495667
2 1 .995107 .605714 .603248
3 1 .784808 .007323 .576174
4 1 .170561 .035446 .451755
5 1 .006727 .635415 .370819
6 1 .453190 .461102 .979158
7 1 .541737 .442110 .005126
ITEM: TIMESTEP
150
ITEM: NUMBER OF ATOMS
7
ITEM: BOX BOUNDS ss ss ss
-3.0731 3.1370
-2.7439 3.4215
-1.8584 2.0577
ITEM: ATOMS id type xs ys zs
1 1 .507331 .989768 .500213
2 1 .993255 .605036 .601807
3 1 .786048 .007859 .577582
4 1 .170604 .037190 .464060
5 1 .007711 .634055 .370954
6 1 .451897 .461869 .985329
7 1 .538693 .445196 .006177
ITEM: TIMESTEP
200
ITEM: NUMBER OF ATOMS
7
ITEM: BOX BOUNDS ss ss ss
-3.0731 3.1341
-2.7415 3.4173
-1.8595 2.0577
ITEM: ATOMS id type xs ys zs
1 1 .506746 .992748 .504283
2 1 .992491 .608018 .608285
3 1 .784964 .010817 .582881
4 1 .170520 .035398 .451857
5 1 .013131 .634633 .366193
6 1 .454066 .462023 .979300
7 1 .541273 .444093 .007176
ITEM: TIMESTEP
250
ITEM: NUMBER OF ATOMS
7
ITEM: BOX BOUNDS ss ss ss
-3.0731 3.1401
-2.7466 3.4210
-1.8559 2.0577
ITEM: ATOMS id type xs ys zs
1 1 .505657 .992911 .504663
2 1 .993334 .607859 .606642
3 1 .782852 .011847 .583238
4 1 .168467 .036250 .449909
5 1 .013689 .634207 .368194
6 1 .456402 .462479 .980146
7 1 .540946 .444514 .006747
ITEM: TIMESTEP
300
ITEM: NUMBER OF ATOMS
7
ITEM: BOX BOUNDS ss ss ss
-3.0731 3.1308
-2.7337 3.4122
-1.8584 2.0577
ITEM: ATOMS id type xs ys zs
1 1 .503077 .990984 .498448
2 1 .993982 .604653 .597254
3 1 .785138 .007424 .574738
4 1 .168528 .035522 .460632
5 1 .013313 .638226 .375649
6 1 .454625 .462458 .986355
7 1 .542051 .445448 .015182
ITEM: TIMESTEP
350
ITEM: NUMBER OF ATOMS
7
ITEM: BOX BOUNDS ss ss ss
-3.0731 3.1348
-2.7263 3.4042
-1.8558 2.0577
ITEM: ATOMS id type xs ys zs
1 1 .507775 .990124 .505883
2 1 .994281 .605768 .595156
3 1 .789437 .012633 .581896
4 1 .172059 .034126 .458901
5 1 .008482 .634260 .367717
6 1 .454803 .460676 .980799
7 1 .538937 .443198 .007114
ITEM: TIMESTEP
400
ITEM: NUMBER OF ATOMS
7
ITEM: BOX BOUNDS ss ss ss
-3.0731 3.1413
-2.7341 3.3967
-1.8599 2.0637
ITEM: ATOMS id type xs ys zs
1 1 .506567 .993436 .490488
2 1 .990776 .606970 .602078
3 1 .781761 .005617 .566739
4 1 .168644 .037686 .448526
5 1 .007562 .637335 .374938
6 1 .455651 .458924 .987761
7 1 .540320 .448521 .013371
ITEM: TIMESTEP
1
ITEM: NUMBER OF ATOMS
7
ITEM: BOX BOUNDS ss ss ss
-3.0731 3.1208
-2.6984 3.3855
-1.8397 2.0577
ITEM: ATOMS id type xs ys zs
1 1 .506109 .999073 .496890
2 1 .994448 .605241 .600973
3 1 .787024 .000683 .577396
4 1 .170420 .029875 .453940
5 1 .009374 .636547 .369445
6 1 .453487 .460615 .979437
7 1 .543389 .442741 .005564
ITEM: TIMESTEP
50
ITEM: NUMBER OF ATOMS
7
ITEM: BOX BOUNDS ss ss ss
-3.0731 3.1208
-2.7274 3.4121
-1.8440 2.0577
ITEM: ATOMS id type xs ys zs
1 1 .506741 .995839 .499306
2 1 .993871 .605122 .601150
3 1 .787479 .004230 .577795
4 1 .171654 .033585 .456526
5 1 .010740 .636649 .367893
6 1 .452212 .460973 .979357
7 1 .544415 .443576 .006572
ITEM: TIMESTEP
100
ITEM: NUMBER OF ATOMS
7
ITEM: BOX BOUNDS ss ss ss
-3.0731 3.1208
-2.7347 3.4242
-1.8573 2.0577
ITEM: ATOMS id type xs ys zs
1 1 .505247 .994242 .498052
2 1 .996481 .601699 .601148
3 1 .786007 .005714 .581315
4 1 .170892 .036023 .458857
5 1 .008781 .637157 .371670
6 1 .456323 .461797 .979042
7 1 .543372 .442976 .011738
ITEM: TIMESTEP
150
ITEM: NUMBER OF ATOMS
7
ITEM: BOX BOUNDS ss ss ss
-3.0731 3.1235
-2.7405 3.4172
-1.8568 2.0577
ITEM: ATOMS id type xs ys zs
1 1 .502654 .991497 .503535
2 1 .991232 .606323 .602744
3 1 .783905 .009613 .582796
4 1 .170086 .034534 .457688
5 1 .012451 .636459 .372217
6 1 .453421 .457469 .980962
7 1 .542933 .444470 .008557
ITEM: TIMESTEP
200
ITEM: NUMBER OF ATOMS
7
ITEM: BOX BOUNDS ss ss ss
-3.0731 3.1307
-2.7380 3.4164
-1.8541 2.0577
ITEM: ATOMS id type xs ys zs
1 1 .505433 .993064 .502078
2 1 .993113 .607229 .601309
3 1 .786793 .008725 .576253
4 1 .172610 .034597 .456775
5 1 .011388 .636017 .369612
6 1 .454072 .461695 .982160
7 1 .541157 .441903 .009377
ITEM: TIMESTEP
250
ITEM: NUMBER OF ATOMS
7
ITEM: BOX BOUNDS ss ss ss
-3.0731 3.1363
-2.7344 3.4080
-1.8660 2.0577
ITEM: ATOMS id type xs ys zs
1 1 .502164 .992095 .498317
2 1 .992560 .606581 .591654
3 1 .783731 .009181 .579988
4 1 .173342 .034920 .452950
5 1 .009852 .637993 .373637
6 1 .455347 .458631 .982275
7 1 .539329 .441454 .013268
ITEM: TIMESTEP
300
ITEM: NUMBER OF ATOMS
7
ITEM: BOX BOUNDS ss ss ss
-3.0731 3.1348
-2.7258 3.4085
-1.8584 2.0577
ITEM: ATOMS id type xs ys zs
1 1 .500135 .992439 .498176
2 1 .993754 .605236 .599937
3 1 .781797 .005122 .577533
4 1 .171961 .033059 .455282
5 1 .008033 .633935 .368273
6 1 .453488 .461123 .989610
7 1 .542218 .444601 .009576
ITEM: TIMESTEP
350
ITEM: NUMBER OF ATOMS
7
ITEM: BOX BOUNDS ss ss ss
-3.0731 3.1356
-2.7370 3.3982
-1.8693 2.0577
ITEM: ATOMS id type xs ys zs
1 1 .506002 .990546 .499400
2 1 .993175 .608351 .592307
3 1 .784920 .009822 .580097
4 1 .171395 .037669 .457021
5 1 .010380 .637371 .376963
6 1 .454448 .462930 .983009
7 1 .540479 .442194 .011272
ITEM: TIMESTEP
400
ITEM: NUMBER OF ATOMS
7
ITEM: BOX BOUNDS ss ss ss
-3.0731 3.1472
-2.7245 3.3974
-1.8735 2.0577
ITEM: ATOMS id type xs ys zs
1 1 .503023 .991911 .499932
2 1 .990766 .607326 .590862
3 1 .782462 .006518 .581411
4 1 .170535 .034015 .462130
5 1 .008979 .636641 .378028
6 1 .454571 .462981 .982794
7 1 .538608 .441697 .012116
ITEM: TIMESTEP
1
ITEM: NUMBER OF ATOMS
7
ITEM: BOX BOUNDS ss ss ss
-3.0695 3.1204
-2.6985 3.3852
-1.8633 2.0577
ITEM: ATOMS id type xs ys zs
1 1 .505825 .999304 .499791
2 1 .994126 .605044 .603267
3 1 .787097 .000849 .580062
4 1 .169930 .029667 .457145
5 1 .008885 .636840 .373826
6 1 .452778 .461134 .979132
7 1 .543139 .442828 .011806
ITEM: TIMESTEP
50
ITEM: NUMBER OF ATOMS
7
ITEM: BOX BOUNDS ss ss ss
-3.0695 3.1204
-2.7255 3.4111
-1.8633 2.0577
ITEM: ATOMS id type xs ys zs
1 1 .506043 .996162 .500113
2 1 .995572 .602206 .599350
3 1 .785212 .006607 .577919
4 1 .169104 .032771 .455862
5 1 .009263 .635453 .374294
6 1 .452812 .460095 .981564
7 1 .543252 .444075 .009926
ITEM: TIMESTEP
100
ITEM: NUMBER OF ATOMS
7
ITEM: BOX BOUNDS ss ss ss
-3.0695 3.1238
-2.7421 3.4220
-1.8633 2.0577
ITEM: ATOMS id type xs ys zs
1 1 .506419 .996036 .500422
2 1 .995835 .603614 .597243
3 1 .785579 .008424 .579593
4 1 .168325 .035587 .456762
5 1 .009527 .634676 .373416
6 1 .452510 .459919 .979471
7 1 .543155 .444392 .006357
ITEM: TIMESTEP
150
ITEM: NUMBER OF ATOMS
7
ITEM: BOX BOUNDS ss ss ss
-3.0695 3.1270
-2.7435 3.4298
-1.8633 2.0577
ITEM: ATOMS id type xs ys zs
1 1 .508068 .992148 .502800
2 1 .992182 .606611 .600705
3 1 .784446 .008128 .582353
4 1 .169190 .035139 .457966
5 1 .006863 .631266 .376282
6 1 .454560 .460333 .981535
7 1 .540507 .443801 .014194
ITEM: TIMESTEP
200
ITEM: NUMBER OF ATOMS
7
ITEM: BOX BOUNDS ss ss ss
-3.0695 3.1343
-2.7386 3.4250
-1.8633 2.0577
ITEM: ATOMS id type xs ys zs
1 1 .506927 .992783 .501811
2 1 .988288 .603288 .596745
3 1 .781135 .009314 .581924
4 1 .171187 .036499 .459316
5 1 .008140 .635218 .372014
6 1 .452540 .461526 .982456
7 1 .538271 .441044 .012945
ITEM: TIMESTEP
250
ITEM: NUMBER OF ATOMS
7
ITEM: BOX BOUNDS ss ss ss
-3.0695 3.1335
-2.7417 3.4112
-1.8749 2.0577
ITEM: ATOMS id type xs ys zs
1 1 .506341 .989496 .498421
2 1 .991610 .606644 .605631
3 1 .788334 .012551 .587783
4 1 .169355 .036237 .458323
5 1 .005679 .636652 .367053
6 1 .449061 .461078 .979925
7 1 .541375 .442103 .016885
ITEM: TIMESTEP
300
ITEM: NUMBER OF ATOMS
7
ITEM: BOX BOUNDS ss ss ss
-3.0695 3.1353
-2.7346 3.4135
-1.8633 2.0577
ITEM: ATOMS id type xs ys zs
1 1 .504249 .995112 .500772
2 1 .993864 .608391 .604320
3 1 .784798 .012272 .578436
4 1 .167825 .035795 .457515
5 1 .010686 .637842 .358478
6 1 .452570 .463939 .983379
7 1 .539952 .445981 .013530
ITEM: TIMESTEP
350
ITEM: NUMBER OF ATOMS
7
ITEM: BOX BOUNDS ss ss ss
-3.0695 3.1341
-2.7369 3.4053
-1.8633 2.0577
ITEM: ATOMS id type xs ys zs
1 1 .504827 .998297 .504086
2 1 .994304 .607947 .605419
3 1 .786098 .013083 .574313
4 1 .168986 .035163 .459298
5 1 .012226 .639975 .355706
6 1 .454193 .463760 .983841
7 1 .540431 .447424 .015183
ITEM: TIMESTEP
400
ITEM: NUMBER OF ATOMS
7
ITEM: BOX BOUNDS ss ss ss
-3.0695 3.1323
-2.7321 3.4047
-1.8633 2.0577
ITEM: ATOMS id type xs ys zs
1 1 .510459 .990012 .494179
2 1 .989667 .605817 .605553
3 1 .790607 .010799 .582650
4 1 .166740 .033196 .448589
5 1 .009149 .638779 .369830
6 1 .449595 .459669 .982935
7 1 .539301 .442208 .017840
ITEM: TIMESTEP
1
ITEM: NUMBER OF ATOMS
7
ITEM: BOX BOUNDS ss ss ss
-3.0409 3.1123
-2.6983 3.3858
-1.8418 2.0267
ITEM: ATOMS id type xs ys zs
1 1 .504158 .999445 .500914
2 1 .995501 .605200 .606277
3 1 .786946 .000344 .582242
4 1 .166352 .029620 .457456
5 1 .004241 .637179 .372769
6 1 .451588 .460656 .986811
7 1 .541777 .442554 .006067
ITEM: TIMESTEP
50
ITEM: NUMBER OF ATOMS
7
ITEM: BOX BOUNDS ss ss ss
-3.0415 3.1123
-2.7265 3.4215
-1.8462 2.0267
ITEM: ATOMS id type xs ys zs
1 1 .501563 .995853 .504713
2 1 .995464 .602628 .604842
3 1 .787020 .001880 .583854
4 1 .165164 .032565 .457244
5 1 .003545 .635627 .372137
6 1 .452633 .462178 .986505
7 1 .540688 .442137 .006629
ITEM: TIMESTEP
100
ITEM: NUMBER OF ATOMS
7
ITEM: BOX BOUNDS ss ss ss
-3.0525 3.1210
-2.7370 3.4263
-1.8540 2.0267
ITEM: ATOMS id type xs ys zs
1 1 .504044 .994522 .506574
2 1 .994204 .603772 .606497
3 1 .789940 .004481 .584188
4 1 .166782 .037032 .466644
5 1 .005931 .635552 .369537
6 1 .452904 .462656 .991279
7 1 .539822 .443418 .012461
ITEM: TIMESTEP
150
ITEM: NUMBER OF ATOMS
7
ITEM: BOX BOUNDS ss ss ss
-3.0532 3.1276
-2.7469 3.4253
-1.8652 2.0267
ITEM: ATOMS id type xs ys zs
1 1 .504806 .990688 .503655
2 1 .992400 .607885 .602493
3 1 .782482 .007967 .585081
4 1 .166492 .036166 .462900
5 1 .010165 .634650 .376514
6 1 .450277 .460187 .985781
7 1 .542706 .442806 .014147
ITEM: TIMESTEP
200
ITEM: NUMBER OF ATOMS
7
ITEM: BOX BOUNDS ss ss ss
-3.0664 3.1268
-2.7514 3.4291
-1.8635 2.0332
ITEM: ATOMS id type xs ys zs
1 1 .508348 .993248 .507488
2 1 .995246 .603653 .597879
3 1 .786237 .007858 .579631
4 1 .171458 .034882 .460028
5 1 .013116 .635369 .371516
6 1 .453825 .461794 .988341
7 1 .539760 .444265 .014675
ITEM: TIMESTEP
250
ITEM: NUMBER OF ATOMS
7
ITEM: BOX BOUNDS ss ss ss
-3.0490 3.1277
-2.7478 3.4185
-1.8513 2.0436
ITEM: ATOMS id type xs ys zs
1 1 .504620 .991378 .502627
2 1 .993877 .603597 .595090
3 1 .777391 .007726 .579780
4 1 .165081 .038560 .455909
5 1 .005656 .636272 .373621
6 1 .451369 .463038 .985957
7 1 .535262 .445955 .008374
ITEM: TIMESTEP
300
ITEM: NUMBER OF ATOMS
7
ITEM: BOX BOUNDS ss ss ss
-3.0454 3.1314
-2.7394 3.4188
-1.8579 2.0439
ITEM: ATOMS id type xs ys zs
1 1 .503014 .988677 .505232
2 1 .995591 .604215 .595651
3 1 .778371 .004777 .579172
4 1 .165451 .035054 .457092
5 1 .005529 .637432 .375081
6 1 .449026 .461253 .983391
7 1 .532989 .443822 .010998
ITEM: TIMESTEP
350
ITEM: NUMBER OF ATOMS
7
ITEM: BOX BOUNDS ss ss ss
-3.0505 3.1358
-2.7446 3.4106
-1.8633 2.0571
ITEM: ATOMS id type xs ys zs
1 1 .504630 .992489 .509184
2 1 .994869 .606062 .600596
3 1 .778405 .012649 .577890
4 1 .166704 .035525 .454490
5 1 .008185 .636822 .366018
6 1 .451468 .460767 .986441
7 1 .540216 .444515 .010182
ITEM: TIMESTEP
400
ITEM: NUMBER OF ATOMS
7
ITEM: BOX BOUNDS ss ss ss
-3.0600 3.1308
-2.7367 3.4084
-1.8678 2.0582
ITEM: ATOMS id type xs ys zs
1 1 .506841 .990141 .495566
2 1 .992128 .606485 .600045
3 1 .781458 .006767 .580909
4 1 .168028 .037993 .452325
5 1 .011121 .633837 .365167
6 1 .451365 .460221 .981495
7 1 .539289 .444297 .007494
ITEM: TIMESTEP
1
ITEM: NUMBER OF ATOMS
7
ITEM: BOX BOUNDS ss ss ss
-3.0530 3.1139
-2.6985 3.3851
-1.8494 2.0346
ITEM: ATOMS id type xs ys zs
1 1 .505242 .999294 .500828
2 1 .995305 .605454 .605480
3 1 .787109 .000897 .581801
4 1 .167968 .029606 .457664
5 1 .005910 .636975 .373476
6 1 .452231 .460642 .985085
7 1 .542570 .443169 .008299
ITEM: TIMESTEP
50
ITEM: NUMBER OF ATOMS
7
ITEM: BOX BOUNDS ss ss ss
-3.0530 3.1151
-2.7278 3.4168
-1.8494 2.0346
ITEM: ATOMS id type xs ys zs
1 1 .504705 .995401 .503174
2 1 .994342 .603985 .604126
3 1 .788031 .004933 .583819
4 1 .167279 .035250 .461604
5 1 .003349 .636521 .372151
6 1 .451931 .460801 .982088
7 1 .541682 .443867 .006728
ITEM: TIMESTEP
100
ITEM: NUMBER OF ATOMS
7
ITEM: BOX BOUNDS ss ss ss
-3.0530 3.1260
-2.7378 3.4226
-1.8517 2.0346
ITEM: ATOMS id type xs ys zs
1 1 .502770 .994711 .501457
2 1 .993899 .604712 .606892
3 1 .784111 .005087 .580620
4 1 .168196 .034280 .461816
5 1 .006876 .637736 .374887
6 1 .450485 .462210 .979777
7 1 .538402 .444522 .011786
ITEM: TIMESTEP
150
ITEM: NUMBER OF ATOMS
7
ITEM: BOX BOUNDS ss ss ss
-3.0530 3.1321
-2.7505 3.4259
-1.8590 2.0346
ITEM: ATOMS id type xs ys zs
1 1 .504120 .992351 .503798
2 1 .993254 .607835 .606803
3 1 .783094 .011385 .581680
4 1 .167284 .038241 .457476
5 1 .004580 .635641 .368824
6 1 .452004 .461587 .983172
7 1 .535862 .447678 .009653
ITEM: TIMESTEP
200
ITEM: NUMBER OF ATOMS
7
ITEM: BOX BOUNDS ss ss ss
-3.0530 3.1305
-2.7530 3.4224
-1.8638 2.0346
ITEM: ATOMS id type xs ys zs
1 1 .503396 .996418 .504087
2 1 .992758 .610289 .607898
3 1 .780979 .010649 .585481
4 1 .166349 .037452 .459002
5 1 .005325 .636763 .369367
6 1 .453960 .461038 .980783
7 1 .537568 .445515 .012162
ITEM: TIMESTEP
250
ITEM: NUMBER OF ATOMS
7
ITEM: BOX BOUNDS ss ss ss
-3.0598 3.1362
-2.7506 3.4276
-1.8664 2.0346
ITEM: ATOMS id type xs ys zs
1 1 .502830 .992459 .505057
2 1 .993981 .602473 .602988
3 1 .783170 .009141 .585797
4 1 .167693 .040662 .459659
5 1 .009663 .639181 .367912
6 1 .453204 .462642 .984210
7 1 .541916 .443640 .007045
ITEM: TIMESTEP
300
ITEM: NUMBER OF ATOMS
7
ITEM: BOX BOUNDS ss ss ss
-3.0573 3.1389
-2.7450 3.4196
-1.8710 2.0346
ITEM: ATOMS id type xs ys zs
1 1 .503132 .994884 .507642
2 1 .995999 .603039 .602828
3 1 .781605 .006505 .587295
4 1 .167394 .038130 .462697
5 1 .010060 .640134 .369880
6 1 .453066 .463633 .986299
7 1 .540818 .444561 .006920
ITEM: TIMESTEP
350
ITEM: NUMBER OF ATOMS
7
ITEM: BOX BOUNDS ss ss ss
-3.0699 3.1464
-2.7397 3.4279
-1.8808 2.0346
ITEM: ATOMS id type xs ys zs
1 1 .508723 .992013 .504800
2 1 .986742 .601205 .607846
3 1 .787807 .008916 .588915
4 1 .176435 .032821 .460466
5 1 .004367 .634376 .368260
6 1 .449927 .464647 .984175
7 1 .537447 .445715 .015946
ITEM: TIMESTEP
400
ITEM: NUMBER OF ATOMS
7
ITEM: BOX BOUNDS ss ss ss
-3.0619 3.1471
-2.7337 3.4203
-1.8740 2.0459
ITEM: ATOMS id type xs ys zs
1 1 .504444 .992728 .499213
2 1 .984363 .602473 .605335
3 1 .789044 .006822 .589398
4 1 .177909 .027021 .451642
5 1 .008879 .632626 .370701
6 1 .449731 .459559 .989572
7 1 .533836 .441369 .015676
ITEM: TIMESTEP
1
ITEM: NUMBER OF ATOMS
7
ITEM: BOX BOUNDS ss ss ss
-3.0459 3.1135
-2.7108 3.3931
-1.8482 2.0206
ITEM: ATOMS id type xs ys zs
1 1 .504997 .998290 .502974
2 1 .995141 .604949 .607834
3 1 .786760 .002400 .583551
4 1 .167139 .031695 .459150
5 1 .005102 .636659 .374764
6 1 .451633 .460965 .989039
7 1 .541956 .443485 .008115
ITEM: TIMESTEP
50
ITEM: NUMBER OF ATOMS
7
ITEM: BOX BOUNDS ss ss ss
-3.0459 3.1135
-2.7274 3.4172
-1.8482 2.0206
ITEM: ATOMS id type xs ys zs
1 1 .504738 .995345 .503658
2 1 .995645 .604642 .610051
3 1 .787046 .003928 .583630
4 1 .165547 .035568 .460192
5 1 .003988 .633631 .372370
6 1 .449168 .462815 .989229
7 1 .543461 .443205 .007611
ITEM: TIMESTEP
100
ITEM: NUMBER OF ATOMS
7
ITEM: BOX BOUNDS ss ss ss
-3.0542 3.1228
-2.7411 3.4257
-1.8521 2.0206
ITEM: ATOMS id type xs ys zs
1 1 .501419 .994733 .503978
2 1 .990442 .604451 .606892
3 1 .786080 .005648 .583883
4 1 .165761 .035668 .465062
5 1 .008763 .635249 .376120
6 1 .451915 .459648 .987658
7 1 .540357 .442373 .010774
ITEM: TIMESTEP
150
ITEM: NUMBER OF ATOMS
7
ITEM: BOX BOUNDS ss ss ss
-3.0583 3.1334
-2.7436 3.4290
-1.8600 2.0206
ITEM: ATOMS id type xs ys zs
1 1 .504960 .988929 .504473
2 1 .991695 .607127 .611849
3 1 .788281 .010656 .587036
4 1 .167780 .037596 .462785
5 1 .004257 .636137 .372358
6 1 .450725 .462904 .986644
7 1 .540978 .443051 .011390
ITEM: TIMESTEP
200
ITEM: NUMBER OF ATOMS
7
ITEM: BOX BOUNDS ss ss ss
-3.0622 3.1318
-2.7531 3.4209
-1.8688 2.0260
ITEM: ATOMS id type xs ys zs
1 1 .504445 .991802 .509649
2 1 .991922 .609035 .615481
3 1 .788413 .011603 .592203
4 1 .169228 .039401 .463434
5 1 .005229 .637145 .375297
6 1 .450764 .463846 .980590
7 1 .540434 .444900 .011974
ITEM: TIMESTEP
250
ITEM: NUMBER OF ATOMS
7
ITEM: BOX BOUNDS ss ss ss
-3.0657 3.1317
-2.7430 3.4239
-1.8659 2.0305
ITEM: ATOMS id type xs ys zs
1 1 .504424 .990042 .504115
2 1 .993667 .602567 .606502
3 1 .783686 .009379 .582994
4 1 .167986 .038498 .465688
5 1 .005471 .636822 .369692
6 1 .451418 .463421 .988398
7 1 .540560 .442770 .010930
ITEM: TIMESTEP
300
ITEM: NUMBER OF ATOMS
7
ITEM: BOX BOUNDS ss ss ss
-3.0631 3.1443
-2.7440 3.4178
-1.8623 2.0375
ITEM: ATOMS id type xs ys zs
1 1 .502715 .991785 .500962
2 1 .989012 .603876 .603723
3 1 .783291 .009428 .581802
4 1 .167198 .037980 .465120
5 1 .005885 .637634 .365128
6 1 .451835 .463323 .981947
7 1 .539295 .442522 .008341
ITEM: TIMESTEP
350
ITEM: NUMBER OF ATOMS
7
ITEM: BOX BOUNDS ss ss ss
-3.0750 3.1416
-2.7477 3.4096
-1.8625 2.0533
ITEM: ATOMS id type xs ys zs
1 1 .500833 .991764 .503644
2 1 .990655 .607519 .611144
3 1 .780299 .009276 .580985
4 1 .170158 .033254 .457904
5 1 .009856 .637005 .374666
6 1 .453430 .462363 .994020
7 1 .539276 .443550 .014481
ITEM: TIMESTEP
400
ITEM: NUMBER OF ATOMS
7
ITEM: BOX BOUNDS ss ss ss
-3.0686 3.1392
-2.7504 3.4056
-1.8482 2.0551
ITEM: ATOMS id type xs ys zs
1 1 .499752 .996801 .500147
2 1 .991029 .610654 .602895
3 1 .777391 .008899 .591779
4 1 .173820 .037828 .452889
5 1 .005909 .632859 .368574
6 1 .451557 .463446 .993145
7 1 .539901 .448475 .016266
ITEM: TIMESTEP
1
ITEM: NUMBER OF ATOMS
7
ITEM: BOX BOUNDS ss ss ss
-3.0501 3.1135
-2.7147 3.3931
-1.8482 2.0387
ITEM: ATOMS id type xs ys zs
1 1 .504877 .998278 .500185
2 1 .995748 .605634 .604441
3 1 .787150 .003497 .581030
4 1 .167758 .032378 .456870
5 1 .005573 .636878 .372957
6 1 .452125 .461541 .984163
7 1 .542041 .443929 .008267
ITEM: TIMESTEP
50
ITEM: NUMBER OF ATOMS
7
ITEM: BOX BOUNDS ss ss ss
-3.0501 3.1135
-2.7268 3.4188
-1.8482 2.0387
ITEM: ATOMS id type xs ys zs
1 1 .502937 .995316 .501531
2 1 .992373 .603313 .602876
3 1 .787012 .003746 .578247
4 1 .167584 .032165 .458297
5 1 .005731 .636264 .369118
6 1 .451099 .461570 .982761
7 1 .541418 .440908 .010816
ITEM: TIMESTEP
100
ITEM: NUMBER OF ATOMS
7
ITEM: BOX BOUNDS ss ss ss
-3.0503 3.1227
-2.7432 3.4269
-1.8567 2.0387
ITEM: ATOMS id type xs ys zs
1 1 .501236 .994820 .498445
2 1 .994595 .603692 .610779
3 1 .785621 .009789 .583293
4 1 .168558 .034311 .455975
5 1 .006572 .638418 .369281
6 1 .451018 .463561 .980174
7 1 .539238 .444658 .012946
ITEM: TIMESTEP
150
ITEM: NUMBER OF ATOMS
7
ITEM: BOX BOUNDS ss ss ss
-3.0501 3.1301
-2.7438 3.4273
-1.8557 2.0387
ITEM: ATOMS id type xs ys zs
1 1 .507778 .993257 .500459
2 1 .993450 .606288 .601550
3 1 .782051 .009138 .581301
4 1 .167157 .038211 .460072
5 1 .007776 .634550 .372059
6 1 .454613 .459853 .984267
7 1 .544331 .446966 .006818
ITEM: TIMESTEP
200
ITEM: NUMBER OF ATOMS
7
ITEM: BOX BOUNDS ss ss ss
-3.0501 3.1236
-2.7451 3.4247
-1.8577 2.0387
ITEM: ATOMS id type xs ys zs
1 1 .503457 .995902 .503538
2 1 .994725 .607114 .602083
3 1 .783418 .010188 .580038
4 1 .168147 .034604 .460616
5 1 .008805 .634120 .376255
6 1 .452299 .462141 .983213
7 1 .541887 .443003 .006475
ITEM: TIMESTEP
250
ITEM: NUMBER OF ATOMS
7
ITEM: BOX BOUNDS ss ss ss
-3.0501 3.1274
-2.7383 3.4167
-1.8608 2.0387
ITEM: ATOMS id type xs ys zs
1 1 .505974 .992424 .506965
2 1 .992849 .606661 .602029
3 1 .784057 .008007 .584305
4 1 .167143 .035291 .461013
5 1 .007377 .639297 .372094
6 1 .450402 .460955 .985345
7 1 .541112 .447883 .012847
ITEM: TIMESTEP
300
ITEM: NUMBER OF ATOMS
7
ITEM: BOX BOUNDS ss ss ss
-3.0564 3.1259
-2.7306 3.4115
-1.8653 2.0387
ITEM: ATOMS id type xs ys zs
1 1 .504909 .993318 .507854
2 1 .991847 .604804 .606161
3 1 .784923 .005097 .584147
4 1 .166499 .032409 .464570
5 1 .008405 .638979 .370829
6 1 .448189 .459035 .982419
7 1 .541457 .448198 .013714
ITEM: TIMESTEP
350
ITEM: NUMBER OF ATOMS
7
ITEM: BOX BOUNDS ss ss ss
-3.0568 3.1248
-2.7328 3.4102
-1.8649 2.0390
ITEM: ATOMS id type xs ys zs
1 1 .508877 .989298 .495222