ITEM: TIMESTEP
1
ITEM: NUMBER OF ATOMS
7
ITEM: BOX BOUNDS ss ss ss
-3.0194 3.0883
-2.6983 3.3852
-1.8212 1.9821
ITEM: ATOMS id type xs ys zs
1 1 .504563 .999397 .504287
2 1 .999420 .605242 .610878
3 1 .789326 .000616 .586755
4 1 .164067 .029595 .460138
5 1 .000645 .636885 .374058
6 1 .451175 .460650 .998888
7 1 .542256 .442854 .001000
ITEM: TIMESTEP
50
ITEM: NUMBER OF ATOMS
7
ITEM: BOX BOUNDS ss ss ss
-3.0411 3.1140
-2.7249 3.4065
-1.8464 2.0023
ITEM: ATOMS id type xs ys zs
1 1 .504048 .996084 .505145
2 1 .995264 .604961 .610192
3 1 .786724 .004755 .586342
4 1 .166271 .033664 .461447
5 1 .004284 .636294 .375974
6 1 .451377 .461425 .993411
7 1 .541578 .443628 .007712
ITEM: TIMESTEP
100
ITEM: NUMBER OF ATOMS
7
ITEM: BOX BOUNDS ss ss ss
-3.0459 3.1203
-2.7284 3.4162
-1.8553 2.0142
ITEM: ATOMS id type xs ys zs
1 1 .504063 .993693 .504666
2 1 .994345 .604376 .609193
3 1 .785620 .005873 .585225
4 1 .166971 .034227 .460673
5 1 .005293 .635330 .375644
6 1 .451703 .461062 .991456
7 1 .540852 .443402 .010282
ITEM: TIMESTEP
150
ITEM: NUMBER OF ATOMS
7
ITEM: BOX BOUNDS ss ss ss
-3.0551 3.1234
-2.7301 3.4171
-1.8563 2.0244
ITEM: ATOMS id type xs ys zs
1 1 .504619 .992281 .502873
2 1 .993589 .604396 .606992
3 1 .784576 .007075 .583507
4 1 .168217 .034550 .457555
5 1 .007386 .634746 .374547
6 1 .452703 .460775 .991178
7 1 .540546 .443911 .010447
ITEM: TIMESTEP
200
ITEM: NUMBER OF ATOMS
7
ITEM: BOX BOUNDS ss ss ss
-3.0640 3.1210
-2.7252 3.4057
-1.8548 2.0378
ITEM: ATOMS id type xs ys zs
1 1 .505740 .992790 .499941
2 1 .993568 .605185 .604218
3 1 .784116 .007374 .580942
4 1 .169423 .033945 .453909
5 1 .009025 .634632 .372574
6 1 .453702 .460787 .989889
7 1 .541040 .444601 .009621
ITEM: TIMESTEP
250
ITEM: NUMBER OF ATOMS
7
ITEM: BOX BOUNDS ss ss ss
-3.0539 3.1278
-2.7169 3.4086
-1.8730 2.0500
ITEM: ATOMS id type xs ys zs
1 1 .504626 .991080 .499413
2 1 .992689 .604988 .604418
3 1 .782166 .007078 .580619
4 1 .167886 .032635 .453230
5 1 .006895 .632746 .374263
6 1 .451912 .459712 .988043
7 1 .539658 .444243 .013880
ITEM: TIMESTEP
300
ITEM: NUMBER OF ATOMS
7
ITEM: BOX BOUNDS ss ss ss
-3.0552 3.1355
-2.7142 3.3884
-1.8645 2.0518
ITEM: ATOMS id type xs ys zs
1 1 .504307 .993537 .497217
2 1 .991674 .607469 .603293
3 1 .780950 .007257 .579271
4 1 .168164 .032361 .450719
5 1 .006471 .634415 .372611
6 1 .450963 .461052 .987859
7 1 .539006 .446014 .011739
ITEM: TIMESTEP
350
ITEM: NUMBER OF ATOMS
7
ITEM: BOX BOUNDS ss ss ss
-3.0615 3.1299
-2.7162 3.3897
-1.8652 2.0542
ITEM: ATOMS id type xs ys zs
1 1 .505590 .992647 .496593
2 1 .992594 .607609 .602984
3 1 .781833 .008131 .578901
4 1 .169364 .033073 .450091
5 1 .007011 .634557 .372358
6 1 .451564 .461194 .987576
7 1 .539897 .446502 .011484
ITEM: TIMESTEP
400
ITEM: NUMBER OF ATOMS
7
ITEM: BOX BOUNDS ss ss ss
-3.0655 3.1347
-2.7155 3.3839
-1.8679 2.0557
ITEM: ATOMS id type xs ys zs
1 1 .505805 .992982 .496583
2 1 .991822 .608021 .602994
3 1 .781404 .008566 .578877
4 1 .169869 .033340 .450137
5 1 .007311 .635330 .372698
6 1 .451323 .461619 .987687
7 1 .539578 .447088 .011705
ITEM: TIMESTEP
1
ITEM: NUMBER OF ATOMS
7
ITEM: BOX BOUNDS ss ss ss
-3.0524 3.1150
-2.6986 3.3858
-1.8641 2.0396
ITEM: ATOMS id type xs ys zs
1 1 .505029 .999299 .502296
2 1 .995109 .605198 .606151
3 1 .787045 .000657 .582649
4 1 .167825 .029633 .459287
5 1 .005983 .636841 .375420
6 1 .452161 .460631 .984171
7 1 .542363 .442832 .011960
ITEM: TIMESTEP
50
ITEM: NUMBER OF ATOMS
7
ITEM: BOX BOUNDS ss ss ss
-3.0524 3.1150
-2.7248 3.4100
-1.8641 2.0396
ITEM: ATOMS id type xs ys zs
1 1 .504797 .995672 .502678
2 1 .995094 .604636 .606140
3 1 .787025 .004608 .582621
4 1 .167757 .033615 .459547
5 1 .006126 .635958 .375133
6 1 .452322 .461129 .983752
7 1 .542397 .443332 .012113
ITEM: TIMESTEP
100
ITEM: NUMBER OF ATOMS
7
ITEM: BOX BOUNDS ss ss ss
-3.0524 3.1182
-2.7326 3.4257
-1.8641 2.0396
ITEM: ATOMS id type xs ys zs
1 1 .504519 .992599 .502858
2 1 .994735 .603785 .606038
3 1 .786151 .006183 .582553
4 1 .167793 .034720 .459541
5 1 .006332 .634743 .374491
6 1 .452348 .460687 .984375
7 1 .541702 .443049 .012501
ITEM: TIMESTEP
150
ITEM: NUMBER OF ATOMS
7
ITEM: BOX BOUNDS ss ss ss
-3.0524 3.1271
-2.7352 3.4142
-1.8641 2.0396
ITEM: ATOMS id type xs ys zs
1 1 .504256 .993570 .503068
2 1 .993486 .605337 .605414
3 1 .784603 .007457 .583508
4 1 .167913 .035307 .459687
5 1 .006432 .636002 .374050
6 1 .451593 .462038 .986046
7 1 .540461 .444410 .012930
ITEM: TIMESTEP
200
ITEM: NUMBER OF ATOMS
7
ITEM: BOX BOUNDS ss ss ss
-3.0536 3.1264
-2.7339 3.4155
-1.8641 2.0396
ITEM: ATOMS id type xs ys zs
1 1 .504972 .992459 .503753
2 1 .993483 .605458 .604258
3 1 .784365 .008471 .585238
4 1 .168439 .035341 .459229
5 1 .006897 .635791 .373850
6 1 .451467 .461884 .987929
7 1 .540346 .444554 .012971
ITEM: TIMESTEP
250
ITEM: NUMBER OF ATOMS
7
ITEM: BOX BOUNDS ss ss ss
-3.0577 3.1345
-2.7275 3.4081
-1.8606 2.0401
ITEM: ATOMS id type xs ys zs
1 1 .504962 .992640 .503948
2 1 .992121 .606301 .602991
3 1 .783400 .008542 .586031
4 1 .169143 .035010 .458110
5 1 .007597 .636026 .373396
6 1 .451216 .461843 .989359
7 1 .539858 .444828 .011988
ITEM: TIMESTEP
300
ITEM: NUMBER OF ATOMS
7
ITEM: BOX BOUNDS ss ss ss
-3.0584 3.1425
-2.7183 3.4113
-1.8576 2.0467
ITEM: ATOMS id type xs ys zs
1 1 .504801 .991217 .503393
2 1 .990850 .605732 .601171
3 1 .782538 .008259 .585652
4 1 .169486 .033867 .456470
5 1 .007716 .635119 .372533
6 1 .450721 .460904 .989219
7 1 .539031 .443884 .011044
ITEM: TIMESTEP
350
ITEM: NUMBER OF ATOMS
7
ITEM: BOX BOUNDS ss ss ss
-3.0577 3.1347
-2.7202 3.3949
-1.8614 2.0558
ITEM: ATOMS id type xs ys zs
1 1 .505615 .993217 .502873
2 1 .992285 .607531 .599657
3 1 .783571 .009519 .584701
4 1 .169819 .034259 .455639
5 1 .007535 .636657 .372294
6 1 .451290 .462328 .987924
7 1 .539399 .445270 .011705
ITEM: TIMESTEP
400
ITEM: NUMBER OF ATOMS
7
ITEM: BOX BOUNDS ss ss ss
-3.0602 3.1345
-2.7085 3.3994
-1.8678 2.0613
ITEM: ATOMS id type xs ys zs
1 1 .506113 .991798 .502631
2 1 .992461 .605993 .599142
3 1 .783646 .008286 .583864
4 1 .170385 .032281 .455670
5 1 .007812 .635062 .372541
6 1 .451428 .460925 .987392
7 1 .539373 .444032 .013027
ITEM: TIMESTEP
1
ITEM: NUMBER OF ATOMS
7
ITEM: BOX BOUNDS ss ss ss
-3.0491 3.1170
-2.6982 3.3860
-1.8574 2.0439
ITEM: ATOMS id type xs ys zs
1 1 .504595 .999274 .500900
2 1 .994776 .605156 .604815
3 1 .786670 .000590 .581299
4 1 .167318 .029567 .457860
5 1 .005447 .636800 .373941
6 1 .451714 .460582 .983064
7 1 .541938 .442784 .010261
ITEM: TIMESTEP
50
ITEM: NUMBER OF ATOMS
7
ITEM: BOX BOUNDS ss ss ss
-3.0491 3.1170
-2.7258 3.4111
-1.8574 2.0439
ITEM: ATOMS id type xs ys zs
1 1 .504294 .995627 .501331
2 1 .994733 .604558 .604764
3 1 .786675 .004664 .581247
4 1 .167205 .033723 .458167
5 1 .005613 .635927 .373658
6 1 .451859 .461144 .982485
7 1 .542012 .443310 .010433
ITEM: TIMESTEP
100
ITEM: NUMBER OF ATOMS
7
ITEM: BOX BOUNDS ss ss ss
-3.0491 3.1275
-2.7312 3.4205
-1.8574 2.0439
ITEM: ATOMS id type xs ys zs
1 1 .503386 .993767 .501522
2 1 .993010 .604166 .604571
3 1 .784923 .005748 .581213
4 1 .167079 .034543 .458042
5 1 .005826 .635191 .373092
6 1 .451363 .460937 .983082
7 1 .540697 .443089 .010621
ITEM: TIMESTEP
150
ITEM: NUMBER OF ATOMS
7
ITEM: BOX BOUNDS ss ss ss
-3.0609 3.1246
-2.7380 3.4198
-1.8574 2.0439
ITEM: ATOMS id type xs ys zs
1 1 .504353 .992711 .500171
2 1 .992967 .605051 .605635
3 1 .785511 .008204 .581485
4 1 .168919 .035976 .456904
5 1 .007190 .635008 .373731
6 1 .452198 .461684 .985432
7 1 .540745 .443589 .011125
ITEM: TIMESTEP
200
ITEM: NUMBER OF ATOMS
7
ITEM: BOX BOUNDS ss ss ss
-3.0665 3.1259
-2.7304 3.4127
-1.8574 2.0439
ITEM: ATOMS id type xs ys zs
1 1 .504271 .991975 .497561
2 1 .991863 .605186 .607412
3 1 .786015 .008727 .582310
4 1 .169450 .034883 .455171
5 1 .006472 .634310 .376425
6 1 .451991 .461570 .988172
7 1 .539515 .443338 .012472
ITEM: TIMESTEP
250
ITEM: NUMBER OF ATOMS
7
ITEM: BOX BOUNDS ss ss ss
-3.0762 3.1176
-2.7177 3.4008
-1.8574 2.0447
ITEM: ATOMS id type xs ys zs
1 1 .505663 .992697 .496503
2 1 .993341 .605126 .607707
3 1 .787533 .007585 .582538
4 1 .171065 .033070 .454958
5 1 .007309 .634364 .377644
6 1 .453505 .461307 .989502
7 1 .540357 .443651 .013297
ITEM: TIMESTEP
300
ITEM: NUMBER OF ATOMS
7
ITEM: BOX BOUNDS ss ss ss
-3.0806 3.1227
-2.7133 3.3888
-1.8574 2.0668
ITEM: ATOMS id type xs ys zs
1 1 .505800 .993813 .493132
2 1 .992591 .605936 .604468
3 1 .786739 .007638 .579551
4 1 .171796 .032676 .452483
5 1 .007644 .635253 .376412
6 1 .453198 .461815 .985557
7 1 .539924 .444651 .013307
ITEM: TIMESTEP
350
ITEM: NUMBER OF ATOMS
7
ITEM: BOX BOUNDS ss ss ss
-3.0839 3.1235
-2.7138 3.3935
-1.8574 2.0672
ITEM: ATOMS id type xs ys zs
1 1 .506387 .992093 .492480
2 1 .992482 .605698 .604324
3 1 .786363 .008496 .579548
4 1 .172129 .033046 .452538
5 1 .007925 .634930 .376633
6 1 .453015 .461334 .987017
7 1 .539678 .444766 .013606
ITEM: TIMESTEP
400
ITEM: NUMBER OF ATOMS
7
ITEM: BOX BOUNDS ss ss ss
-3.0805 3.1346
-2.7099 3.3895
-1.8574 2.0673
ITEM: ATOMS id type xs ys zs
1 1 .505793 .991930 .492288
2 1 .990612 .606208 .604381
3 1 .784603 .008996 .579500
4 1 .171241 .032480 .453006
5 1 .007101 .635357 .376361
6 1 .451509 .461144 .988024
7 1 .537917 .445181 .013949
ITEM: TIMESTEP
1
ITEM: NUMBER OF ATOMS
7
ITEM: BOX BOUNDS ss ss ss
-3.0731 3.1176
-2.6987 3.3853
-1.8362 2.0577
ITEM: ATOMS id type xs ys zs
1 1 .506468 .999386 .496399
2 1 .994694 .605254 .600510
3 1 .787422 .000662 .576955
4 1 .170539 .029646 .453284
5 1 .009315 .636903 .369203
6 1 .453804 .460674 .979481
7 1 .543663 .442875 .004830
ITEM: TIMESTEP
50
ITEM: NUMBER OF ATOMS
7
ITEM: BOX BOUNDS ss ss ss
-3.0731 3.1176
-2.7264 3.4159
-1.8457 2.0577
ITEM: ATOMS id type xs ys zs
1 1 .506167 .994946 .498102
2 1 .994664 .604175 .601416
3 1 .787482 .004677 .577947
4 1 .170368 .033759 .454993
5 1 .009464 .635463 .370473
6 1 .453968 .460809 .978822
7 1 .543790 .442993 .007400
ITEM: TIMESTEP
100
ITEM: NUMBER OF ATOMS
7
ITEM: BOX BOUNDS ss ss ss
-3.0731 3.1268
-2.7357 3.4237
-1.8503 2.0577
ITEM: ATOMS id type xs ys zs
1 1 .505422 .993322 .498778
2 1 .993259 .604366 .601873
3 1 .785915 .006380 .578263
4 1 .170194 .035122 .455613
5 1 .009776 .635193 .370661
6 1 .453606 .461041 .979319
7 1 .542584 .443286 .008917
ITEM: TIMESTEP
150
ITEM: NUMBER OF ATOMS
7
ITEM: BOX BOUNDS ss ss ss
-3.0731 3.1370
-2.7439 3.4215
-1.8584 2.0577
ITEM: ATOMS id type xs ys zs
1 1 .505193 .992845 .499448
2 1 .991684 .605687 .602104
3 1 .784019 .008108 .578629
4 1 .170110 .036183 .456416
5 1 .010248 .635766 .371787
6 1 .453351 .461554 .980835
7 1 .540984 .444148 .011495
ITEM: TIMESTEP
200
ITEM: NUMBER OF ATOMS
7
ITEM: BOX BOUNDS ss ss ss
-3.0731 3.1341
-2.7415 3.4173
-1.8595 2.0577
ITEM: ATOMS id type xs ys zs
1 1 .505733 .992613 .500057
2 1 .992379 .606313 .601797
3 1 .784449 .008197 .577941
4 1 .169975 .036353 .456685
5 1 .010368 .636635 .371841
6 1 .454021 .461486 .982074
7 1 .540617 .444453 .011983
ITEM: TIMESTEP
250
ITEM: NUMBER OF ATOMS
7
ITEM: BOX BOUNDS ss ss ss
-3.0731 3.1401
-2.7466 3.4210
-1.8559 2.0577
ITEM: ATOMS id type xs ys zs
1 1 .505458 .990907 .499597
2 1 .991607 .606222 .601142
3 1 .783601 .009511 .576796
4 1 .169429 .037822 .456525
5 1 .010113 .636777 .370689
6 1 .453792 .461722 .982990
7 1 .539780 .444834 .011150
ITEM: TIMESTEP
300
ITEM: NUMBER OF ATOMS
7
ITEM: BOX BOUNDS ss ss ss
-3.0731 3.1308
-2.7337 3.4122
-1.8584 2.0577
ITEM: ATOMS id type xs ys zs
1 1 .506641 .991372 .499605
2 1 .993484 .606119 .601324
3 1 .784433 .008183 .575958
4 1 .169517 .036509 .455961
5 1 .009563 .637061 .370886
6 1 .454687 .461113 .984416
7 1 .540465 .444729 .012313
ITEM: TIMESTEP
350
ITEM: NUMBER OF ATOMS
7
ITEM: BOX BOUNDS ss ss ss
-3.0731 3.1348
-2.7263 3.4042
-1.8558 2.0577
ITEM: ATOMS id type xs ys zs
1 1 .507289 .992003 .499770
2 1 .993346 .605917 .601064
3 1 .784444 .007811 .575805
4 1 .170521 .035729 .453876
5 1 .009704 .637284 .371736
6 1 .454718 .460667 .986239
7 1 .540288 .445654 .012227
ITEM: TIMESTEP
400
ITEM: NUMBER OF ATOMS
7
ITEM: BOX BOUNDS ss ss ss
-3.0731 3.1413
-2.7341 3.3967
-1.8599 2.0637
ITEM: ATOMS id type xs ys zs
1 1 .507070 .992855 .500381
2 1 .992396 .606768 .600852
3 1 .783926 .009667 .575872
4 1 .171152 .037255 .454000
5 1 .009754 .638366 .372401
6 1 .454048 .461782 .986078
7 1 .539776 .447463 .013147
ITEM: TIMESTEP
1
ITEM: NUMBER OF ATOMS
7
ITEM: BOX BOUNDS ss ss ss
-3.0731 3.1208
-2.6984 3.3855
-1.8397 2.0577
ITEM: ATOMS id type xs ys zs
1 1 .506209 .999364 .496864
2 1 .994184 .605223 .600880
3 1 .787018 .000625 .577341
4 1 .170451 .029608 .453787
5 1 .009309 .636869 .369781
6 1 .453570 .460642 .979493
7 1 .543384 .442843 .005744
ITEM: TIMESTEP
50
ITEM: NUMBER OF ATOMS
7
ITEM: BOX BOUNDS ss ss ss
-3.0731 3.1208
-2.7274 3.4121
-1.8440 2.0577
ITEM: ATOMS id type xs ys zs
1 1 .505864 .995665 .497965
2 1 .994124 .604599 .601283
3 1 .787087 .004778 .577714
4 1 .170264 .033934 .454860
5 1 .009467 .635945 .370241
6 1 .453734 .461202 .978732
7 1 .543567 .443346 .006941
ITEM: TIMESTEP
100
ITEM: NUMBER OF ATOMS
7
ITEM: BOX BOUNDS ss ss ss
-3.0731 3.1208
-2.7347 3.4242
-1.8573 2.0577
ITEM: ATOMS id type xs ys zs
1 1 .505788 .993332 .500110
2 1 .994058 .604121 .602504
3 1 .786685 .006108 .578920
4 1 .170345 .034992 .457051
5 1 .009835 .635128 .371525
6 1 .454055 .460807 .979294
7 1 .543351 .443128 .010397
ITEM: TIMESTEP
150
ITEM: NUMBER OF ATOMS
7
ITEM: BOX BOUNDS ss ss ss
-3.0731 3.1235
-2.7405 3.4172
-1.8568 2.0577
ITEM: ATOMS id type xs ys zs
1 1 .505837 .993450 .500275
2 1 .993692 .605536 .601074
3 1 .785787 .007734 .578381
4 1 .170724 .035342 .456893
5 1 .010000 .636036 .370672
6 1 .454027 .461446 .980760
7 1 .542390 .444016 .010566
ITEM: TIMESTEP
200
ITEM: NUMBER OF ATOMS
7
ITEM: BOX BOUNDS ss ss ss
-3.0731 3.1307
-2.7380 3.4164
-1.8541 2.0577
ITEM: ATOMS id type xs ys zs
1 1 .505611 .992404 .499054
2 1 .992978 .605492 .598491
3 1 .784828 .008051 .577936
4 1 .171060 .034437 .455791
5 1 .010178 .635591 .370029
6 1 .454005 .461072 .981846
7 1 .540646 .443619 .009830
ITEM: TIMESTEP
250
ITEM: NUMBER OF ATOMS
7
ITEM: BOX BOUNDS ss ss ss
-3.0731 3.1363
-2.7344 3.4080
-1.8660 2.0577
ITEM: ATOMS id type xs ys zs
1 1 .504751 .992319 .499481
2 1 .992404 .605531 .596492
3 1 .783928 .008081 .578891
4 1 .171451 .034022 .456588
5 1 .009968 .636129 .371914
6 1 .454409 .461085 .982939
7 1 .539395 .444605 .012097
ITEM: TIMESTEP
300
ITEM: NUMBER OF ATOMS
7
ITEM: BOX BOUNDS ss ss ss
-3.0731 3.1348
-2.7258 3.4085
-1.8584 2.0577
ITEM: ATOMS id type xs ys zs
1 1 .504849 .991218 .498280
2 1 .992959 .605333 .592705
3 1 .784006 .007201 .577388
4 1 .171519 .033124 .454890
5 1 .009717 .635524 .370507
6 1 .455131 .459858 .983434
7 1 .539169 .443880 .009520
ITEM: TIMESTEP
350
ITEM: NUMBER OF ATOMS
7
ITEM: BOX BOUNDS ss ss ss
-3.0731 3.1356
-2.7370 3.3982
-1.8693 2.0577
ITEM: ATOMS id type xs ys zs
1 1 .505096 .992111 .499782
2 1 .992907 .607512 .592469
3 1 .783946 .009794 .578026
4 1 .171521 .035494 .455845
5 1 .009567 .637004 .371691
6 1 .455384 .461443 .983864
7 1 .538916 .445650 .011308
ITEM: TIMESTEP
400
ITEM: NUMBER OF ATOMS
7
ITEM: BOX BOUNDS ss ss ss
-3.0731 3.1472
-2.7245 3.3974
-1.8735 2.0577
ITEM: ATOMS id type xs ys zs
1 1 .504803 .991708 .500356
2 1 .990958 .606944 .592603
3 1 .782570 .008313 .578168
4 1 .171454 .033757 .456141
5 1 .009508 .635956 .372014
6 1 .454443 .460335 .984455
7 1 .537766 .444708 .011749
ITEM: TIMESTEP
1
ITEM: NUMBER OF ATOMS
7
ITEM: BOX BOUNDS ss ss ss
-3.0695 3.1204
-2.6985 3.3852
-1.8633 2.0577
ITEM: ATOMS id type xs ys zs
1 1 .505952 .999407 .499889
2 1 .994242 .605251 .603275
3 1 .786943 .000635 .579878
4 1 .169978 .029619 .457070
5 1 .008730 .636896 .373561
6 1 .453280 .460669 .979616
7 1 .543153 .442865 .011707
ITEM: TIMESTEP
50
ITEM: NUMBER OF ATOMS
7
ITEM: BOX BOUNDS ss ss ss
-3.0695 3.1204
-2.7255 3.4111
-1.8633 2.0577
ITEM: ATOMS id type xs ys zs
1 1 .505546 .995926 .500478
2 1 .994222 .604586 .603192
3 1 .787043 .004404 .579859
4 1 .169777 .033652 .457568
5 1 .008892 .635932 .373309
6 1 .453444 .461131 .978732
7 1 .543351 .443241 .011857
ITEM: TIMESTEP
100
ITEM: NUMBER OF ATOMS
7
ITEM: BOX BOUNDS ss ss ss
-3.0695 3.1238
-2.7421 3.4220
-1.8633 2.0577
ITEM: ATOMS id type xs ys zs
1 1 .505278 .993808 .500964
2 1 .993658 .604950 .603013
3 1 .786295 .007266 .579907
4 1 .169747 .036184 .457713
5 1 .009255 .635786 .372457
6 1 .453496 .461926 .978953
7 1 .542687 .443806 .012198
ITEM: TIMESTEP
150
ITEM: NUMBER OF ATOMS
7
ITEM: BOX BOUNDS ss ss ss
-3.0695 3.1270
-2.7435 3.4298
-1.8633 2.0577
ITEM: ATOMS id type xs ys zs
1 1 .505610 .991636 .501541
2 1 .993088 .604983 .601718
3 1 .785170 .008372 .580506
4 1 .169444 .036773 .457283
5 1 .009699 .635061 .370556
6 1 .453121 .461743 .980062
7 1 .542086 .443268 .012511
ITEM: TIMESTEP
200
ITEM: NUMBER OF ATOMS
7
ITEM: BOX BOUNDS ss ss ss
-3.0695 3.1343
-2.7386 3.4250
-1.8633 2.0577
ITEM: ATOMS id type xs ys zs
1 1 .505385 .991201 .501100
2 1 .992131 .606086 .600529
3 1 .783834 .008893 .581911
4 1 .168563 .036073 .456533
5 1 .010095 .635762 .367400
6 1 .451957 .461454 .980386
7 1 .541511 .442859 .012795
ITEM: TIMESTEP
250
ITEM: NUMBER OF ATOMS
7
ITEM: BOX BOUNDS ss ss ss
-3.0695 3.1335
-2.7417 3.4112
-1.8749 2.0577
ITEM: ATOMS id type xs ys zs
1 1 .505994 .992659 .502445
2 1 .992809 .608234 .601873
3 1 .783952 .010978 .584102
4 1 .167969 .036154 .457495
5 1 .010353 .638151 .367194
6 1 .451154 .462466 .980548
7 1 .541638 .444002 .016024
ITEM: TIMESTEP
300
ITEM: NUMBER OF ATOMS
7
ITEM: BOX BOUNDS ss ss ss
-3.0695 3.1353
-2.7346 3.4135
-1.8633 2.0577
ITEM: ATOMS id type xs ys zs
1 1 .506303 .991643 .501357
2 1 .992557 .607835 .601368
3 1 .784227 .011027 .582870
4 1 .167473 .035298 .455445
5 1 .010002 .638053 .364257
6 1 .450345 .461383 .980776
7 1 .541260 .443579 .013158
ITEM: TIMESTEP
350
ITEM: NUMBER OF ATOMS
7
ITEM: BOX BOUNDS ss ss ss
-3.0695 3.1341
-2.7369 3.4053
-1.8633 2.0577
ITEM: ATOMS id type xs ys zs
1 1 .506446 .992413 .501308
2 1 .992550 .608869 .602002
3 1 .785030 .012094 .582854
4 1 .167318 .036399 .455333
5 1 .009503 .639155 .363472
6 1 .450148 .462210 .981567
7 1 .541007 .444663 .013105
ITEM: TIMESTEP
400
ITEM: NUMBER OF ATOMS
7
ITEM: BOX BOUNDS ss ss ss
-3.0695 3.1323
-2.7321 3.4047
-1.8633 2.0577
ITEM: ATOMS id type xs ys zs
1 1 .506842 .992021 .501463
2 1 .992333 .608355 .602685
3 1 .785196 .011314 .581651
4 1 .167978 .036858 .454896
5 1 .009240 .639279 .364146
6 1 .450635 .462031 .983057
7 1 .540591 .444273 .012676
ITEM: TIMESTEP
1
ITEM: NUMBER OF ATOMS
7
ITEM: BOX BOUNDS ss ss ss
-3.0409 3.1123
-2.6983 3.3858
-1.8418 2.0267
ITEM: ATOMS id type xs ys zs
1 1 .504325 .999312 .501121
2 1 .995532 .605178 .605909
3 1 .786995 .000593 .582196
4 1 .166340 .029574 .457719
5 1 .004132 .636825 .373085
6 1 .451336 .460601 .987359
7 1 .541748 .442803 .006320
ITEM: TIMESTEP
50
ITEM: NUMBER OF ATOMS
7
ITEM: BOX BOUNDS ss ss ss
-3.0415 3.1123
-2.7265 3.4215
-1.8462 2.0267
ITEM: ATOMS id type xs ys zs
1 1 .503920 .994326 .502336
2 1 .995509 .603627 .606311
3 1 .787143 .004490 .582618
4 1 .166197 .033704 .458882
5 1 .004424 .634949 .373527
6 1 .451550 .460422 .986443
7 1 .542028 .442524 .007632
ITEM: TIMESTEP
100
ITEM: NUMBER OF ATOMS
7
ITEM: BOX BOUNDS ss ss ss
-3.0525 3.1210
-2.7370 3.4263
-1.8540 2.0267
ITEM: ATOMS id type xs ys zs
1 1 .503924 .993613 .503745
2 1 .994151 .604082 .607073
3 1 .786173 .006006 .583095
4 1 .167418 .035236 .460034
5 1 .006533 .635233 .374000
6 1 .452240 .460949 .986464
7 1 .541849 .443061 .009969
ITEM: TIMESTEP
150
ITEM: NUMBER OF ATOMS
7
ITEM: BOX BOUNDS ss ss ss
-3.0532 3.1276
-2.7469 3.4253
-1.8652 2.0267
ITEM: ATOMS id type xs ys zs
1 1 .503916 .993131 .505326
2 1 .993232 .605031 .607308
3 1 .784373 .007555 .583085
4 1 .167615 .037030 .461242
5 1 .007169 .635946 .374289
6 1 .451715 .462244 .988208
7 1 .540790 .444124 .013608
ITEM: TIMESTEP
200
ITEM: NUMBER OF ATOMS
7
ITEM: BOX BOUNDS ss ss ss
-3.0664 3.1268
-2.7514 3.4291
-1.8635 2.0332
ITEM: ATOMS id type xs ys zs
1 1 .506645 .991458 .505177
2 1 .993342 .604469 .603758
3 1 .782893 .008353 .580361
4 1 .170142 .038008 .459138
5 1 .010718 .635942 .371313
6 1 .452614 .462939 .989977
7 1 .541118 .444475 .014627
ITEM: TIMESTEP
250
ITEM: NUMBER OF ATOMS
7
ITEM: BOX BOUNDS ss ss ss
-3.0490 3.1277
-2.7478 3.4185
-1.8513 2.0436
ITEM: ATOMS id type xs ys zs
1 1 .505876 .992724 .503268
2 1 .993284 .605049 .600096
3 1 .781534 .008086 .577718
4 1 .167632 .037583 .455879
5 1 .008202 .636633 .367542
6 1 .451327 .463441 .988188
7 1 .539565 .445038 .011167
ITEM: TIMESTEP
300
ITEM: NUMBER OF ATOMS
7
ITEM: BOX BOUNDS ss ss ss
-3.0454 3.1314
-2.7394 3.4188
-1.8579 2.0439
ITEM: ATOMS id type xs ys zs
1 1 .505738 .992047 .505962
2 1 .992744 .604412 .600265
3 1 .780531 .007843 .578440
4 1 .166382 .036700 .456356
5 1 .007742 .636065 .367647
6 1 .450955 .462131 .988774
7 1 .539300 .444391 .011875
ITEM: TIMESTEP
350
ITEM: NUMBER OF ATOMS
7
ITEM: BOX BOUNDS ss ss ss
-3.0505 3.1358
-2.7446 3.4106
-1.8633 2.0571
ITEM: ATOMS id type xs ys zs
1 1 .505619 .992657 .506089
2 1 .991721 .605693 .599040
3 1 .780104 .009787 .576839
4 1 .166752 .037987 .454897
5 1 .008578 .637108 .366785
6 1 .451057 .462727 .986370
7 1 .539499 .445871 .012206
ITEM: TIMESTEP
400
ITEM: NUMBER OF ATOMS
7
ITEM: BOX BOUNDS ss ss ss
-3.0600 3.1308
-2.7367 3.4084
-1.8678 2.0582
ITEM: ATOMS id type xs ys zs
1 1 .506866 .992246 .505619
2 1 .992242 .605083 .599896
3 1 .781354 .009107 .576804
4 1 .168379 .037051 .455374
5 1 .009898 .636643 .366801
6 1 .451991 .461763 .986779
7 1 .540409 .445758 .012459
ITEM: TIMESTEP
1
ITEM: NUMBER OF ATOMS
7
ITEM: BOX BOUNDS ss ss ss
-3.0530 3.1139
-2.6985 3.3851
-1.8494 2.0346
ITEM: ATOMS id type xs ys zs
1 1 .505163 .999425 .501075
2 1 .995274 .605259 .605453
3 1 .787199 .000625 .581829
4 1 .167932 .029613 .457846
5 1 .006084 .636909 .373546
6 1 .452292 .460668 .985383
7 1 .542504 .442868 .008238
ITEM: TIMESTEP
50
ITEM: NUMBER OF ATOMS
7
ITEM: BOX BOUNDS ss ss ss
-3.0530 3.1151
-2.7278 3.4168
-1.8494 2.0346
ITEM: ATOMS id type xs ys zs
1 1 .504582 .995152 .501740
2 1 .995053 .604178 .605381
3 1 .787190 .004637 .581787
4 1 .167666 .033937 .458381
5 1 .006280 .635546 .373314
6 1 .452391 .460921 .984358
7 1 .542655 .442959 .008375
ITEM: TIMESTEP
100
ITEM: NUMBER OF ATOMS
7
ITEM: BOX BOUNDS ss ss ss
-3.0530 3.1260
-2.7378 3.4226
-1.8517 2.0346
ITEM: ATOMS id type xs ys zs
1 1 .503423 .994104 .502340
2 1 .993397 .604547 .605433
3 1 .785540 .006137 .582036
4 1 .167320 .035439 .458735
5 1 .006692 .635509 .372808
6 1 .452006 .461353 .984532
7 1 .541443 .443313 .009374
ITEM: TIMESTEP
150
ITEM: NUMBER OF ATOMS
7
ITEM: BOX BOUNDS ss ss ss
-3.0530 3.1321
-2.7505 3.4259
-1.8590 2.0346
ITEM: ATOMS id type xs ys zs
1 1 .503040 .992802 .503096
2 1 .992654 .605485 .605873
3 1 .784523 .008389 .582627
4 1 .167348 .037554 .459363
5 1 .006896 .635806 .372658
6 1 .451809 .462204 .985568
7 1 .540554 .443952 .011700
ITEM: TIMESTEP
200
ITEM: NUMBER OF ATOMS
7
ITEM: BOX BOUNDS ss ss ss
-3.0530 3.1305
-2.7530 3.4224
-1.8638 2.0346
ITEM: ATOMS id type xs ys zs
1 1 .503296 .992759 .502982
2 1 .993136 .605832 .605858
3 1 .784714 .009156 .582894
4 1 .167827 .037803 .459330
5 1 .006695 .636350 .372227
6 1 .451950 .462665 .985689
7 1 .540279 .444596 .012448
ITEM: TIMESTEP
250
ITEM: NUMBER OF ATOMS
7
ITEM: BOX BOUNDS ss ss ss
-3.0598 3.1362
-2.7506 3.4276
-1.8664 2.0346
ITEM: ATOMS id type xs ys zs
1 1 .503569 .991620 .503203
2 1 .992356 .604270 .604917
3 1 .784363 .009568 .583486
4 1 .169120 .037452 .459312
5 1 .007907 .636154 .371402
6 1 .452178 .462172 .986048
7 1 .540117 .444332 .012650
ITEM: TIMESTEP
300
ITEM: NUMBER OF ATOMS
7
ITEM: BOX BOUNDS ss ss ss
-3.0573 3.1389
-2.7450 3.4196
-1.8710 2.0346
ITEM: ATOMS id type xs ys zs
1 1 .503498 .992574 .504198
2 1 .991698 .604499 .604255
3 1 .784425 .009391 .584684
4 1 .169272 .036649 .459605
5 1 .007512 .636697 .370646
6 1 .451585 .462519 .986448
7 1 .539501 .444512 .014105
ITEM: TIMESTEP
350
ITEM: NUMBER OF ATOMS
7
ITEM: BOX BOUNDS ss ss ss
-3.0699 3.1464
-2.7397 3.4279
-1.8808 2.0346
ITEM: ATOMS id type xs ys zs
1 1 .504198 .991118 .505301
2 1 .990085 .603784 .605067
3 1 .783904 .008893 .584994
4 1 .170949 .035466 .460545
5 1 .009543 .635477 .370707
6 1 .451644 .461551 .986252
7 1 .539505 .443517 .016152
ITEM: TIMESTEP
400
ITEM: NUMBER OF ATOMS
7
ITEM: BOX BOUNDS ss ss ss
-3.0619 3.1471
-2.7337 3.4203
-1.8740 2.0459
ITEM: ATOMS id type xs ys zs
1 1 .503560 .992444 .503048
2 1 .989904 .604726 .603158
3 1 .782691 .008505 .580634
4 1 .169559 .034653 .458065
5 1 .008411 .635573 .367405
6 1 .450573 .462048 .983489
7 1 .539042 .444148 .013835
ITEM: TIMESTEP
1
ITEM: NUMBER OF ATOMS
7
ITEM: BOX BOUNDS ss ss ss
-3.0459 3.1135
-2.7108 3.3931
-1.8482 2.0206
ITEM: ATOMS id type xs ys zs
1 1 .504626 .998129 .502737
2 1 .995348 .605271 .607520
3 1 .787014 .002642 .583806
4 1 .166986 .031535 .459335
5 1 .004939 .636813 .374701
6 1 .451697 .461161 .988950
7 1 .542018 .443420 .007957
ITEM: TIMESTEP
50
ITEM: NUMBER OF ATOMS
7
ITEM: BOX BOUNDS ss ss ss
-3.0459 3.1135
-2.7274 3.4172
-1.8482 2.0206
ITEM: ATOMS id type xs ys zs
1 1 .504119 .995173 .503444
2 1 .995314 .604094 .607451
3 1 .787159 .004498 .583714
4 1 .166741 .033864 .459933
5 1 .005116 .635494 .374455
6 1 .451878 .460828 .987816
7 1 .542316 .442899 .008087
ITEM: TIMESTEP
100
ITEM: NUMBER OF ATOMS
7
ITEM: BOX BOUNDS ss ss ss
-3.0542 3.1228
-2.7411 3.4257
-1.8521 2.0206
ITEM: ATOMS id type xs ys zs
1 1 .503786 .993819 .504507
2 1 .993852 .604470 .607523
3 1 .785976 .006511 .583925
4 1 .167628 .035898 .460856
5 1 .006634 .635619 .374298
6 1 .452287 .461556 .987839
7 1 .541855 .443274 .009411
ITEM: TIMESTEP
150
ITEM: NUMBER OF ATOMS
7
ITEM: BOX BOUNDS ss ss ss
-3.0583 3.1334
-2.7436 3.4290
-1.8600 2.0206
ITEM: ATOMS id type xs ys zs
1 1 .502902 .991971 .506139
2 1 .992123 .605019 .608121
3 1 .784482 .007916 .584696
4 1 .168629 .036551 .463241
5 1 .006796 .635492 .374127
6 1 .451827 .462113 .989236
7 1 .540736 .442799 .011018
ITEM: TIMESTEP
200
ITEM: NUMBER OF ATOMS
7
ITEM: BOX BOUNDS ss ss ss
-3.0622 3.1318
-2.7531 3.4209
-1.8688 2.0260
ITEM: ATOMS id type xs ys zs
1 1 .502446 .992165 .505854
2 1 .992835 .606354 .608675
3 1 .784078 .009955 .584726
4 1 .170056 .037662 .465225
5 1 .007268 .636492 .374296
6 1 .452799 .463565 .989486
7 1 .540849 .444467 .013701
ITEM: TIMESTEP
250
ITEM: NUMBER OF ATOMS
7
ITEM: BOX BOUNDS ss ss ss
-3.0657 3.1317
-2.7430 3.4239
-1.8659 2.0305
ITEM: ATOMS id type xs ys zs
1 1 .502467 .990943 .504534
2 1 .992819 .605496 .607278
3 1 .783680 .008143 .583504
4 1 .170667 .036094 .464908
5 1 .008081 .634542 .372391
6 1 .453229 .462582 .989908
7 1 .540847 .443593 .014301
ITEM: TIMESTEP
300
ITEM: NUMBER OF ATOMS
7
ITEM: BOX BOUNDS ss ss ss
-3.0631 3.1443
-2.7440 3.4178
-1.8623 2.0375
ITEM: ATOMS id type xs ys zs
1 1 .501268 .991198 .502059
2 1 .991027 .606093 .604942
3 1 .781431 .008044 .581503
4 1 .170159 .036192 .463595
5 1 .007229 .634493 .370275
6 1 .452237 .463321 .989657
7 1 .539110 .444570 .014746
ITEM: TIMESTEP
350
ITEM: NUMBER OF ATOMS
7
ITEM: BOX BOUNDS ss ss ss
-3.0750 3.1416
-2.7477 3.4096
-1.8625 2.0533
ITEM: ATOMS id type xs ys zs
1 1 .502607 .992186 .500140
2 1 .991338 .607597 .602498
3 1 .781936 .008951 .579460
4 1 .171635 .036795 .460837
5 1 .009007 .635074 .368913
6 1 .453641 .464090 .986923
7 1 .539814 .445774 .015529
ITEM: TIMESTEP
400
ITEM: NUMBER OF ATOMS
7
ITEM: BOX BOUNDS ss ss ss
-3.0686 3.1392
-2.7504 3.4056
-1.8482 2.0551
ITEM: ATOMS id type xs ys zs
1 1 .502838 .992565 .499219
2 1 .991445 .608756 .600779
3 1 .781753 .010222 .578089
4 1 .170188 .036755 .457539
5 1 .008351 .635253 .367232
6 1 .453049 .464290 .987153
7 1 .539237 .446020 .011941
ITEM: TIMESTEP
1
ITEM: NUMBER OF ATOMS
7
ITEM: BOX BOUNDS ss ss ss
-3.0501 3.1135
-2.7147 3.3931
-1.8482 2.0387
ITEM: ATOMS id type xs ys zs
1 1 .504968 .998132 .500396
2 1 .995347 .605520 .604690
3 1 .787164 .003269 .581084
4 1 .167556 .032144 .457197
5 1 .005624 .637044 .372958
6 1 .452072 .461501 .984332
7 1 .542333 .443767 .007921
ITEM: TIMESTEP
50
ITEM: NUMBER OF ATOMS
7
ITEM: BOX BOUNDS ss ss ss
-3.0501 3.1135
-2.7268 3.4188
-1.8482 2.0387
ITEM: ATOMS id type xs ys zs
1 1 .504467 .994943 .501144
2 1 .995278 .603901 .604617
3 1 .787340 .004365 .581057
4 1 .167269 .033754 .457853
5 1 .005797 .635275 .372702
6 1 .452244 .460646 .983127
7 1 .542611 .442693 .008075
ITEM: TIMESTEP
100
ITEM: NUMBER OF ATOMS
7
ITEM: BOX BOUNDS ss ss ss
-3.0503 3.1227
-2.7432 3.4269
-1.8567 2.0387
ITEM: ATOMS id type xs ys zs
1 1 .503479 .993761 .502658
2 1 .993729 .604482 .605381
3 1 .785868 .006774 .581970
4 1 .167108 .036291 .459275
5 1 .006226 .635629 .373145
6 1 .451935 .461416 .983068
7 1 .541623 .443384 .010523
ITEM: TIMESTEP
150
ITEM: NUMBER OF ATOMS
7
ITEM: BOX BOUNDS ss ss ss
-3.0501 3.1301
-2.7438 3.4273
-1.8557 2.0387
ITEM: ATOMS id type xs ys zs
1 1 .503222 .992787 .502862
2 1 .992458 .605140 .605277
3 1 .784362 .007486 .581746
4 1 .167656 .036434 .458944
5 1 .006453 .635452 .371941
6 1 .451450 .461154 .983550
7 1 .541204 .443704 .010318
ITEM: TIMESTEP
200
ITEM: NUMBER OF ATOMS
7
ITEM: BOX BOUNDS ss ss ss
-3.0501 3.1236
-2.7451 3.4247
-1.8577 2.0387
ITEM: ATOMS id type xs ys zs
1 1 .504533 .991729 .501416
2 1 .992618 .606290 .607120
3 1 .785778 .009377 .580693
4 1 .168825 .036528 .460980
5 1 .006327 .635449 .370769
6 1 .451307 .461684 .984237
7 1 .541023 .443864 .010136
ITEM: TIMESTEP
250
ITEM: NUMBER OF ATOMS
7
ITEM: BOX BOUNDS ss ss ss
-3.0501 3.1274
-2.7383 3.4167
-1.8608 2.0387
ITEM: ATOMS id type xs ys zs
1 1 .504816 .991866 .499578
2 1 .991533 .607454 .608750
3 1 .785743 .009113 .579515
4 1 .168488 .035587 .463702
5 1 .006127 .636164 .369621
6 1 .450666 .461944 .985244
7 1 .540178 .443451 .010800
ITEM: TIMESTEP
300
ITEM: NUMBER OF ATOMS
7
ITEM: BOX BOUNDS ss ss ss
-3.0564 3.1259
-2.7306 3.4115
-1.8653 2.0387
ITEM: ATOMS id type xs ys zs
1 1 .505626 .992158 .499191
2 1 .991667 .608045 .609626
3 1 .786040 .008234 .579338
4 1 .168780 .034521 .464655
5 1 .007112 .636300 .369557
6 1 .451271 .461802 .986130
7 1 .540600 .442825 .012098
ITEM: TIMESTEP
350
ITEM: NUMBER OF ATOMS
7
ITEM: BOX BOUNDS ss ss ss
-3.0568 3.1248
-2.7328 3.4102
-1.8649 2.0390
ITEM: ATOMS id type xs ys zs
1 1 .505490 .991965 .498971