ITEM: TIMESTEP
64001
ITEM: NUMBER OF ATOMS
48
ITEM: BOX BOUNDS xy xz yz  pp  pp  pp
     -0.003081      2.203080      0.000000
     -0.005336      3.815850      0.000000
     -0.007546      5.396420      0.000000
ITEM: ATOMS id type xs ys zs
     1     1      0.048755      0.988223      0.986950
     2     1      0.293112      0.237303      0.986163
     3     1      0.272751      0.408677      0.151541
     4     1      0.022304      0.159382      0.150296
     5     1      0.967416      0.015444      0.319139
     6     1      0.220267      0.262864      0.318714
     7     1      0.211956      0.443142      0.485107
     8     1      0.958926      0.195828      0.485267
     9     1      0.907755      0.044576      0.651780
    10     1      0.153766      0.294399      0.653467
    11     1      0.322505      0.400981      0.822859
    12     1      0.073706      0.149484      0.821844
    13     1      0.039063      0.487052      0.986999
    14     1      0.292005      0.735976      0.987006
    15     1      0.277696      0.908788      0.151328
    16     1      0.026161      0.657856      0.152826
    17     1      0.971941      0.513504      0.320637
    18     1      0.219300      0.764547      0.319858
    19     1      0.209087      0.944000      0.484314
    20     1      0.963868      0.692892      0.485641
    21     1      0.904717      0.544172      0.652408
    22     1      0.157734      0.794826      0.653217
    23     1      0.329474      0.899260      0.821684
    24     1      0.073832      0.648972      0.821706
    25     1      0.549028      0.987291      0.986252
    26     1      0.791389      0.238028      0.985519
    27     1      0.772665      0.409893      0.153252
    28     1      0.523411      0.159499      0.151489
    29     1      0.467803      0.015790      0.319729
    30     1      0.720658      0.265183      0.320210
    31     1      0.709851      0.444818      0.484636
    32     1      0.458970      0.193428      0.484282
    33     1      0.408860      0.042850      0.650845
    34     1      0.651619      0.294699      0.651217
    35     1      0.823548      0.399334      0.820467
    36     1      0.572423      0.150091      0.820110
    37     1      0.541821      0.488354      0.988057
    38     1      0.794034      0.738025      0.988900
    39     1      0.776804      0.909082      0.152377
    40     1      0.525811      0.659956      0.152857
    41     1      0.469568      0.513649      0.319502
    42     1      0.720881      0.764140      0.320508
    43     1      0.712471      0.943446      0.484038
    44     1      0.462438      0.694510      0.485161
    45     1      0.404204      0.544567      0.653230
    46     1      0.658609      0.793931      0.653103
    47     1      0.828777      0.898849      0.822480
    48     1      0.575370      0.649093      0.822871
ITEM: TIMESTEP
64050
ITEM: NUMBER OF ATOMS
48
ITEM: BOX BOUNDS xy xz yz  pp  pp  pp
     -0.003081      2.203080      0.000000
     -0.005336      3.815850      0.000000
     -0.007546      5.396420      0.000000
ITEM: ATOMS id type xs ys zs
     1     1      0.048089      0.988632      0.987229
     2     1      0.293679      0.238536      0.986135
     3     1      0.272714      0.409828      0.151818
     4     1      0.024210      0.159780      0.150612
     5     1      0.968122      0.015312      0.319893
     6     1      0.220707      0.263150      0.319070
     7     1      0.211599      0.442672      0.484871
     8     1      0.958454      0.194698      0.485500
     9     1      0.907702      0.043535      0.652562
    10     1      0.153730      0.294382      0.653569
    11     1      0.322006      0.400728      0.822479
    12     1      0.072278      0.149817      0.821555
    13     1      0.039778      0.487959      0.987560
    14     1      0.292242      0.737030      0.987240
    15     1      0.277852      0.909623      0.151145
    16     1      0.026091      0.658901      0.151834
    17     1      0.970847      0.513738      0.320729
    18     1      0.221235      0.763823      0.319429
    19     1      0.208778      0.943122      0.484339
    20     1      0.962489      0.692665      0.485176
    21     1      0.903318      0.543489      0.652832
    22     1      0.158116      0.793885      0.652823
    23     1      0.328297      0.899323      0.821597
    24     1      0.074722      0.648725      0.821901
    25     1      0.548776      0.987617      0.986028
    26     1      0.791931      0.238374      0.985741
    27     1      0.772588      0.409674      0.152114
    28     1      0.524240      0.160204      0.151177
    29     1      0.468823      0.014881      0.319758
    30     1      0.721720      0.265007      0.320074
    31     1      0.708662      0.444120      0.484390
    32     1      0.458751      0.193280      0.483990
    33     1      0.408833      0.042607      0.651173
    34     1      0.651401      0.294039      0.651530
    35     1      0.822110      0.400333      0.820793
    36     1      0.571909      0.150491      0.820765
    37     1      0.541630      0.488254      0.988124
    38     1      0.793567      0.738947      0.988582
    39     1      0.776969      0.910170      0.151972
    40     1      0.526339      0.660641      0.152362
    41     1      0.469659      0.514983      0.319441
    42     1      0.721313      0.764618      0.320395
    43     1      0.709596      0.943361      0.484514
    44     1      0.461347      0.693441      0.485324
    45     1      0.403682      0.543776      0.653239
    46     1      0.658404      0.792880      0.652806
    47     1      0.828782      0.898765      0.822484
    48     1      0.575274      0.650162      0.822942
ITEM: TIMESTEP
64100
ITEM: NUMBER OF ATOMS
48
ITEM: BOX BOUNDS xy xz yz  pp  pp  pp
     -0.003081      2.203080      0.000000
     -0.005336      3.815850      0.000000
     -0.007546      5.396420      0.000000
ITEM: ATOMS id type xs ys zs
     1     1      0.048333      0.989276      0.986887
     2     1      0.292771      0.238154      0.986365
     3     1      0.274130      0.409850      0.151850
     4     1      0.026176      0.159781      0.150933
     5     1      0.968603      0.014854      0.319681
     6     1      0.220691      0.262769      0.319105
     7     1      0.210843      0.441956      0.484472
     8     1      0.957016      0.193348      0.511928
     9     1      0.908125      0.041914      0.653362
    10     1      0.154007      0.294448      0.654375
    11     1      0.322712      0.400759      0.822621
    12     1      0.071165      0.149627      0.821461
    13     1      0.040113      0.488121      0.987066
    14     1      0.293296      0.737688      0.987487
    15     1      0.279523      0.909996      0.150842
    16     1      0.026420      0.659741      0.151925
    17     1      0.970289      0.514693      0.320501
    18     1      0.220559      0.764735      0.319506
    19     1      0.207847      0.942376      0.484581
    20     1      0.960511      0.691754      0.485485
    21     1      0.903897      0.543536      0.651693
    22     1      0.157546      0.793622      0.652972
    23     1      0.327311      0.899700      0.821972
    24     1      0.074508      0.649138      0.822372
    25     1      0.549298      0.988423      0.985919
    26     1      0.793185      0.239076      0.986047
    27     1      0.774644      0.409371      0.152480
    28     1      0.525321      0.160613      0.151086
    29     1      0.470026      0.014992      0.319969
    30     1      0.720581      0.263642      0.320286
    31     1      0.708438      0.442656      0.484731
    32     1      0.457945      0.192223      0.484196
    33     1      0.407293      0.042459      0.650980
    34     1      0.650731      0.292199      0.650955
    35     1      0.823155      0.399546      0.794222
    36     1      0.570190      0.150326      0.820810
    37     1      0.541881      0.488623      0.988485
    38     1      0.794158      0.739251      0.988162
    39     1      0.777095      0.910240      0.151999
    40     1      0.527381      0.660337      0.153011
    41     1      0.471312      0.514967      0.319576
    42     1      0.721472      0.765004      0.320550
    43     1      0.708376      0.942311      0.484863
    44     1      0.459231      0.692274      0.485029
    45     1      0.405779      0.543403      0.653281
    46     1      0.658170      0.792772      0.652598
    47     1      0.827173      0.898904      0.822256
    48     1      0.575046      0.649931      0.822953
ITEM: TIMESTEP
64150
ITEM: NUMBER OF ATOMS
48
ITEM: BOX BOUNDS xy xz yz  pp  pp  pp
     -0.003081      2.203080      0.000000
     -0.005336      3.815850      0.000000
     -0.007546      5.396420      0.000000
ITEM: ATOMS id type xs ys zs
     1     1      0.047578      0.989740      0.986548
     2     1      0.294404      0.238281      0.987236
     3     1      0.274988      0.409976      0.152139
     4     1      0.025100      0.160478      0.151221
     5     1      0.968643      0.015933      0.320152
     6     1      0.219374      0.264291      0.319722
     7     1      0.210387      0.441194      0.485549
     8     1      0.953998      0.193961      0.497709
     9     1      0.905743      0.038530      0.656174
    10     1      0.156588      0.296326      0.656977
    11     1      0.324639      0.401294      0.823407
    12     1      0.072850      0.149996      0.821946
    13     1      0.040715      0.487643      0.986247
    14     1      0.294968      0.738324      0.987174
    15     1      0.278609      0.910382      0.151479
    16     1      0.026499      0.659027      0.151619
    17     1      0.971519      0.515004      0.319760
    18     1      0.220017      0.765243      0.319904
    19     1      0.206333      0.942491      0.484748
    20     1      0.959953      0.691963      0.484764
    21     1      0.907003      0.546747      0.648712
    22     1      0.157336      0.793342      0.653089
    23     1      0.327355      0.899949      0.821918
    24     1      0.074149      0.649453      0.821951
    25     1      0.548804      0.988761      0.986043
    26     1      0.793701      0.240287      0.984939
    27     1      0.775732      0.409586      0.152338
    28     1      0.526130      0.160762      0.151413
    29     1      0.470319      0.014198      0.319424
    30     1      0.722333      0.263376      0.321982
    31     1      0.707337      0.441719      0.483874
    32     1      0.454963      0.190913      0.483399
    33     1      0.406423      0.042328      0.651277
    34     1      0.648012      0.289680      0.648327
    35     1      0.826151      0.399410      0.809280
    36     1      0.570643      0.150526      0.820855
    37     1      0.543497      0.489357      0.987510
    38     1      0.794440      0.739960      0.988003
    39     1      0.778259      0.910846      0.152068
    40     1      0.526328      0.661146      0.152727
    41     1      0.471354      0.514711      0.319714
    42     1      0.721600      0.765150      0.320847
    43     1      0.708587      0.942467      0.485142
    44     1      0.459462      0.692197      0.484545
    45     1      0.406643      0.543481      0.653147
    46     1      0.657074      0.792485      0.653015
    47     1      0.826081      0.898481      0.822683
    48     1      0.576301      0.649702      0.822422
ITEM: TIMESTEP
64200
ITEM: NUMBER OF ATOMS
48
ITEM: BOX BOUNDS xy xz yz  pp  pp  pp
     -0.003081      2.203080      0.000000
     -0.005336      3.815850      0.000000
     -0.007546      5.396420      0.000000
ITEM: ATOMS id type xs ys zs
     1     1      0.047795      0.989603      0.986272
     2     1      0.294071      0.239569      0.987089
     3     1      0.274273      0.411259      0.152721
     4     1      0.025474      0.160273      0.150898
     5     1      0.968839      0.015812      0.320042
     6     1      0.218190      0.263951      0.320066
     7     1      0.207326      0.441010      0.485728
     8     1      0.952893      0.193470      0.492325
     9     1      0.905832      0.038905      0.655520
    10     1      0.154860      0.294633      0.656223
    11     1      0.325836      0.400490      0.823373
    12     1      0.075443      0.150109      0.822163
    13     1      0.040024      0.488068      0.985921
    14     1      0.294090      0.738407      0.987754
    15     1      0.278194      0.910457      0.151503
    16     1      0.025676      0.659723      0.151995
    17     1      0.971514      0.514528      0.319735
    18     1      0.220475      0.764902      0.319241
    19     1      0.204952      0.941572      0.485182
    20     1      0.960808      0.691973      0.484108
    21     1      0.906822      0.545589      0.649370
    22     1      0.158707      0.792365      0.652937
    23     1      0.325572      0.899942      0.822270
    24     1      0.074276      0.649807      0.822150
    25     1      0.549064      0.988831      0.986350
    26     1      0.794591      0.240354      0.984568
    27     1      0.774998      0.409700      0.152620
    28     1      0.528223      0.159812      0.151646
    29     1      0.469563      0.014211      0.319589
    30     1      0.721513      0.264364      0.321727
    31     1      0.706051      0.442036      0.484283
    32     1      0.453662      0.189792      0.483280
    33     1      0.406579      0.042097      0.651230
    34     1      0.649197      0.290081      0.648838
    35     1      0.827694      0.399782      0.814037
    36     1      0.572929      0.150357      0.820603
    37     1      0.544615      0.489693      0.987727
    38     1      0.794114      0.738862      0.988028
    39     1      0.778971      0.910689      0.151963
    40     1      0.525301      0.660634      0.152306
    41     1      0.471930      0.514968      0.320060
    42     1      0.721042      0.765063      0.320305
    43     1      0.707771      0.942249      0.485632
    44     1      0.459607      0.691814      0.484814
    45     1      0.407647      0.542215      0.653006
    46     1      0.656483      0.792231      0.653064
    47     1      0.825029      0.899203      0.823323
    48     1      0.574491      0.649696      0.822235
ITEM: TIMESTEP
64250
ITEM: NUMBER OF ATOMS
48
ITEM: BOX BOUNDS xy xz yz  pp  pp  pp
     -0.003081      2.203080      0.000000
     -0.005336      3.815850      0.000000
     -0.007546      5.396420      0.000000
ITEM: ATOMS id type xs ys zs
     1     1      0.047394      0.989945      0.986907
     2     1      0.295684      0.239434      0.987321
     3     1      0.275444      0.411478      0.152010
     4     1      0.027825      0.159817      0.150862
     5     1      0.968269      0.015720      0.320795
     6     1      0.216860      0.263621      0.319856
     7     1      0.204084      0.439839      0.484901
     8     1      0.900618      0.223215      0.512963
     9     1      0.906301      0.038923      0.655205
    10     1      0.156022      0.294533      0.657128
    11     1      0.325248      0.401473      0.822818
    12     1      0.073991      0.150018      0.821760
    13     1      0.040100      0.488319      0.985832
    14     1      0.294828      0.738815      0.987509
    15     1      0.278932      0.910564      0.151062
    16     1      0.025491      0.659780      0.152342
    17     1      0.971931      0.513995      0.320144
    18     1      0.219615      0.764991      0.319750
    19     1      0.205015      0.941277      0.485161
    20     1      0.961204      0.691518      0.484387
    21     1      0.913658      0.544377      0.650002
    22     1      0.158551      0.791561      0.652519
    23     1      0.323725      0.899718      0.821820
    24     1      0.074170      0.650247      0.821648
    25     1      0.547012      0.989356      0.986541
    26     1      0.794348      0.240627      0.984823
    27     1      0.774597      0.409809      0.152855
    28     1      0.527646      0.160736      0.151471
    29     1      0.470121      0.014158      0.319750
    30     1      0.722702      0.264339      0.321738
    31     1      0.705172      0.447723      0.480651
    32     1      0.447473      0.189510      0.483552
    33     1      0.406227      0.041016      0.651641
    34     1      0.648040      0.284230      0.655384
    35     1      0.826066      0.399843      0.816386
    36     1      0.572916      0.150527      0.820612
    37     1      0.544716      0.489969      0.987919
    38     1      0.795042      0.738563      0.988097
    39     1      0.779447      0.910636      0.151876
    40     1      0.525547      0.661294      0.152957
    41     1      0.470985      0.514689      0.319547
    42     1      0.719779      0.765340      0.320473
    43     1      0.707134      0.941390      0.485418
    44     1      0.459268      0.691640      0.484791
    45     1      0.461910      0.512169      0.629483
    46     1      0.656260      0.791757      0.653388
    47     1      0.823758      0.899381      0.822867
    48     1      0.574426      0.649343      0.822077
ITEM: TIMESTEP
64300
ITEM: NUMBER OF ATOMS
48
ITEM: BOX BOUNDS xy xz yz  pp  pp  pp
     -0.003081      2.203080      0.000000
     -0.005336      3.815850      0.000000
     -0.007546      5.396420      0.000000
ITEM: ATOMS id type xs ys zs
     1     1      0.046819      0.989552      0.986970
     2     1      0.296358      0.240151      0.987569
     3     1      0.275136      0.411012      0.151636
     4     1      0.027090      0.160102      0.151082
     5     1      0.968298      0.016815      0.320776
     6     1      0.216209      0.264562      0.319653
     7     1      0.200162      0.439788      0.483513
     8     1      0.922255      0.208050      0.501199
     9     1      0.908798      0.037470      0.655285
    10     1      0.158075      0.293094      0.657750
    11     1      0.326462      0.401811      0.822143
    12     1      0.073291      0.149862      0.822668
    13     1      0.042671      0.488692      0.986150
    14     1      0.295430      0.739562      0.987372
    15     1      0.279637      0.910966      0.151482
    16     1      0.026517      0.660499      0.151576
    17     1      0.970319      0.514670      0.318730
    18     1      0.219336      0.764970      0.319131
    19     1      0.203786      0.942339      0.485033
    20     1      0.960253      0.692370      0.483977
    21     1      0.923841      0.542040      0.649757
    22     1      0.159814      0.789541      0.652258
    23     1      0.324195      0.899774      0.821814
    24     1      0.073394      0.650654      0.821983
    25     1      0.546846      0.990116      0.986590
    26     1      0.795995      0.240326      0.985294
    27     1      0.774540      0.410247      0.152546
    28     1      0.528325      0.160986      0.152274
    29     1      0.469739      0.014269      0.320261
    30     1      0.721111      0.264649      0.322243
    31     1      0.704032      0.448881      0.480617
    32     1      0.440905      0.191029      0.484930
    33     1      0.405096      0.039912      0.651872
    34     1      0.651826      0.282658      0.655814
    35     1      0.825803      0.400473      0.818191
    36     1      0.571616      0.148604      0.822336
    37     1      0.545781      0.489974      0.987459
    38     1      0.795249      0.738500      0.987027
    39     1      0.778929      0.910615      0.152167
    40     1      0.526030      0.661250      0.152300
    41     1      0.468801      0.515214      0.319006
    42     1      0.719754      0.765242      0.320007
    43     1      0.706936      0.943631      0.486434
    44     1      0.456515      0.693840      0.483720
    45     1      0.442362      0.525903      0.641000
    46     1      0.657564      0.790567      0.652766
    47     1      0.824132      0.899223      0.823149
    48     1      0.573293      0.648711      0.819952
ITEM: TIMESTEP
64350
ITEM: NUMBER OF ATOMS
48
ITEM: BOX BOUNDS xy xz yz  pp  pp  pp
     -0.003081      2.203080      0.000000
     -0.005336      3.815850      0.000000
     -0.007546      5.396420      0.000000
ITEM: ATOMS id type xs ys zs
     1     1      0.046780      0.990185      0.986779
     2     1      0.296233      0.240896      0.987769
     3     1      0.275169      0.411763      0.151464
     4     1      0.026989      0.159909      0.151069
     5     1      0.969760      0.016576      0.321132
     6     1      0.217164      0.264061      0.319135
     7     1      0.202649      0.440094      0.483823
     8     1      0.941157      0.204156      0.486557
     9     1      0.912351      0.030777      0.660410
    10     1      0.164762      0.291579      0.655989
    11     1      0.326518      0.401291      0.822243
    12     1      0.074704      0.150124      0.823184
    13     1      0.043324      0.489148      0.986033
    14     1      0.294137      0.739655      0.987588
    15     1      0.279503      0.911002      0.151197
    16     1      0.027182      0.660739      0.151451
    17     1      0.970676      0.515002      0.318658
    18     1      0.219287      0.766435      0.319404
    19     1      0.154019      0.970897      0.505047
    20     1      0.958782      0.693767      0.484113
    21     1      0.924785      0.540269      0.649903
    22     1      0.161903      0.786872      0.652326
    23     1      0.322735      0.899021      0.821912
    24     1      0.074419      0.650319      0.822077
    25     1      0.546458      0.990040      0.986912
    26     1      0.796340      0.240964      0.986054
    27     1      0.774823      0.410215      0.152240
    28     1      0.528105      0.160857      0.151957
    29     1      0.468872      0.014537      0.320453
    30     1      0.718259      0.264900      0.321489
    31     1      0.703359      0.447132      0.482477
    32     1      0.438383      0.191677      0.484207
    33     1      0.409588      0.039302      0.654757
    34     1      0.694469      0.260273      0.638814
    35     1      0.824319      0.399587      0.817732
    36     1      0.572084      0.149209      0.822100
    37     1      0.545082      0.491331      0.987315
    38     1      0.794128      0.739086      0.986728
    39     1      0.780250      0.910448      0.151926
    40     1      0.526839      0.660691      0.151891
    41     1      0.466931      0.515099      0.318525
    42     1      0.719836      0.764785      0.319498
    43     1      0.694475      0.944150      0.486459
    44     1      0.455585      0.694810      0.483637
    45     1      0.435208      0.529561      0.645456
    46     1      0.658870      0.789184      0.652530
    47     1      0.822004      0.898729      0.823785
    48     1      0.572469      0.648213      0.819968
ITEM: TIMESTEP
64400
ITEM: NUMBER OF ATOMS
48
ITEM: BOX BOUNDS xy xz yz  pp  pp  pp
     -0.003081      2.203080      0.000000
     -0.005336      3.815850      0.000000
     -0.007546      5.396420      0.000000
ITEM: ATOMS id type xs ys zs
     1     1      0.045918      0.989607      0.987242
     2     1      0.296117      0.240999      0.987983
     3     1      0.275219      0.411669      0.150996
     4     1      0.027462      0.160862      0.151427
     5     1      0.969289      0.016088      0.321335
     6     1      0.216183      0.265119      0.318815
     7     1      0.147302      0.472534      0.485193
     8     1      0.942371      0.201697      0.486417
     9     1      0.913415      0.030568      0.658321
    10     1      0.169409      0.287852      0.653489
    11     1      0.324378      0.401118      0.821995
    12     1      0.074349      0.149849      0.823350
    13     1      0.043790      0.489218      0.985568
    14     1      0.294370      0.739909      0.987479
    15     1      0.280048      0.910775      0.151559
    16     1      0.026115      0.661306      0.151068
    17     1      0.965868      0.515411      0.318084
    18     1      0.218819      0.766892      0.319856
    19     1      0.170797      0.958795      0.496978
    20     1      0.952680      0.700906      0.483949
    21     1      0.933557      0.534327      0.653341
    22     1      0.172726      0.785235      0.652383
    23     1      0.320585      0.898471      0.822380
    24     1      0.073961      0.650169      0.822831
    25     1      0.545564      0.989884      0.986636
    26     1      0.795768      0.240630      0.986390
    27     1      0.775623      0.410358      0.151573
    28     1      0.527455      0.160591      0.151599
    29     1      0.467000      0.015390      0.320751
    30     1      0.715008      0.266250      0.320918
    31     1      0.695020      0.445672      0.495270
    32     1      0.441379      0.192760      0.484793
    33     1      0.411530      0.037610      0.655023
    34     1      0.682640      0.269893      0.647287
    35     1      0.822571      0.398938      0.817923
    36     1      0.571982      0.151017      0.821874
    37     1      0.544868      0.491260      0.985466
    38     1      0.792360      0.738876      0.985645
    39     1      0.779775      0.910930      0.152380
    40     1      0.527158      0.660272      0.151498
    41     1      0.469707      0.514614      0.320991
    42     1      0.719423      0.765811      0.319830
    43     1      0.687454      0.944859      0.487569
    44     1      0.452127      0.694556      0.484436
    45     1      0.426372      0.527902      0.645684
    46     1      0.721823      0.758422      0.647980
    47     1      0.819559      0.897714      0.824358
    48     1      0.574091      0.648161      0.808109
ITEM: TIMESTEP
64450
ITEM: NUMBER OF ATOMS
48
ITEM: BOX BOUNDS xy xz yz  pp  pp  pp
     -0.003081      2.203080      0.000000
     -0.005336      3.815850      0.000000
     -0.007546      5.396420      0.000000
ITEM: ATOMS id type xs ys zs
     1     1      0.045495      0.989541      0.987524
     2     1      0.296036      0.240846      0.987754
     3     1      0.275731      0.412228      0.151286
     4     1      0.026593      0.160868      0.152040
     5     1      0.968179      0.016187      0.321737
     6     1      0.214560      0.265698      0.319204
     7     1      0.173335      0.458626      0.485839
     8     1      0.943800      0.199580      0.487399
     9     1      0.915186      0.029899      0.656080
    10     1      0.173334      0.284862      0.652545
    11     1      0.322233      0.400553      0.821707
    12     1      0.072373      0.149842      0.823104
    13     1      0.044141      0.488992      0.985739
    14     1      0.294168      0.739463      0.987325
    15     1      0.281114      0.911429      0.151663
    16     1      0.026004      0.662027      0.150234
    17     1      0.963654      0.516764      0.317014
    18     1      0.218472      0.767204      0.319832
    19     1      0.179477      0.953404      0.492835
    20     1      0.949781      0.702993      0.483817
    21     1      0.933422      0.530357      0.652659
    22     1      0.186370      0.783371      0.652038
    23     1      0.319419      0.900113      0.823059
    24     1      0.072292      0.650478      0.822187
    25     1      0.546726      0.991018      0.987300
    26     1      0.796985      0.240741      0.987174
    27     1      0.776137      0.410254      0.150836
    28     1      0.527666      0.160826      0.151919
    29     1      0.467179      0.015240      0.320825
    30     1      0.713904      0.266339      0.320741
    31     1      0.688429      0.445773      0.490786
    32     1      0.440697      0.195842      0.485247
    33     1      0.415964      0.034834      0.655099
    34     1      0.678866      0.275315      0.649696
    35     1      0.821472      0.398692      0.819359
    36     1      0.571441      0.151289      0.822333
    37     1      0.546059      0.491289      0.985071
    38     1      0.791183      0.738505      0.985352
    39     1      0.779254      0.910984      0.152202
    40     1      0.526885      0.659944      0.151897
    41     1      0.466384      0.514881      0.321388
    42     1      0.717737      0.766055      0.319157
    43     1      0.686045      0.945503      0.489164
    44     1      0.450711      0.696103      0.485374
    45     1      0.426804      0.528318      0.647441
    46     1      0.702848      0.771849      0.648261
    47     1      0.818723      0.898161      0.823454
    48     1      0.571710      0.647885      0.814351
ITEM: TIMESTEP
64500
ITEM: NUMBER OF ATOMS
48
ITEM: BOX BOUNDS xy xz yz  pp  pp  pp
     -0.003081      2.203080      0.000000
     -0.005336      3.815850      0.000000
     -0.007546      5.396420      0.000000
ITEM: ATOMS id type xs ys zs
     1     1      0.044778      0.989152      0.987553
     2     1      0.296290      0.240270      0.987917
     3     1      0.276339      0.411556      0.151478
     4     1      0.026923      0.160243      0.152176
     5     1      0.966288      0.016471      0.321539
     6     1      0.213004      0.266883      0.319910
     7     1      0.184210      0.453078      0.485459
     8     1      0.943808      0.197952      0.487322
     9     1      0.918909      0.030420      0.654896
    10     1      0.175771      0.282428      0.651990
    11     1      0.320310      0.400889      0.821427
    12     1      0.070733      0.150132      0.823087
    13     1      0.044990      0.489067      0.985862
    14     1      0.294550      0.739913      0.987124
    15     1      0.280688      0.911232      0.152074
    16     1      0.025836      0.660797      0.150172
    17     1      0.963427      0.517857      0.317410