ITEM: TIMESTEP
64001
ITEM: NUMBER OF ATOMS
48
ITEM: BOX BOUNDS xy xz yz  pp  pp  pp
     -0.003081      2.203080      0.000000
     -0.005336      3.815850      0.000000
     -0.007546      5.396420      0.000000
ITEM: ATOMS id type xs ys zs
     1     1      0.048628      0.988212      0.986962
     2     1      0.293311      0.237285      0.986042
     3     1      0.272483      0.408432      0.151713
     4     1      0.022288      0.159282      0.150318
     5     1      0.967366      0.015671      0.319105
     6     1      0.220020      0.262743      0.318666
     7     1      0.212025      0.443113      0.485078
     8     1      0.959287      0.195779      0.485164
     9     1      0.907752      0.044476      0.651841
    10     1      0.153769      0.294578      0.653469
    11     1      0.322828      0.400796      0.822846
    12     1      0.073641      0.149426      0.821791
    13     1      0.039068      0.487162      0.987035
    14     1      0.292076      0.735895      0.986901
    15     1      0.278023      0.908762      0.151367
    16     1      0.026213      0.657853      0.152985
    17     1      0.971875      0.513346      0.320715
    18     1      0.219094      0.764723      0.319858
    19     1      0.209134      0.943836      0.484405
    20     1      0.963919      0.693066      0.485639
    21     1      0.904755      0.544326      0.652432
    22     1      0.157552      0.794863      0.653224
    23     1      0.329374      0.899205      0.821638
    24     1      0.073967      0.649157      0.821623
    25     1      0.549139      0.987265      0.986166
    26     1      0.791451      0.237994      0.985448
    27     1      0.772737      0.409859      0.153162
    28     1      0.523820      0.159603      0.151472
    29     1      0.468007      0.015989      0.319873
    30     1      0.720493      0.264922      0.320233
    31     1      0.709886      0.444865      0.484498
    32     1      0.459054      0.193539      0.484092
    33     1      0.409314      0.042845      0.650980
    34     1      0.651824      0.294721      0.651294
    35     1      0.823756      0.399377      0.820358
    36     1      0.572369      0.150388      0.820074
    37     1      0.541929      0.488456      0.988087
    38     1      0.793815      0.737923      0.988967
    39     1      0.776576      0.909067      0.152390
    40     1      0.525717      0.659842      0.152978
    41     1      0.469407      0.513460      0.319474
    42     1      0.720776      0.764011      0.320614
    43     1      0.712280      0.943301      0.483962
    44     1      0.462206      0.694514      0.485192
    45     1      0.404411      0.544431      0.653276
    46     1      0.658507      0.793697      0.653034
    47     1      0.828895      0.898871      0.822395
    48     1      0.575845      0.649157      0.822952
ITEM: TIMESTEP
64050
ITEM: NUMBER OF ATOMS
48
ITEM: BOX BOUNDS xy xz yz  pp  pp  pp
     -0.003081      2.203080      0.000000
     -0.005336      3.815850      0.000000
     -0.007546      5.396420      0.000000
ITEM: ATOMS id type xs ys zs
     1     1      0.048241      0.987942      0.987071
     2     1      0.292345      0.237847      0.986919
     3     1      0.274053      0.409007      0.151617
     4     1      0.022839      0.160267      0.150843
     5     1      0.967907      0.015548      0.319655
     6     1      0.219991      0.263552      0.318601
     7     1      0.210500      0.442573      0.485169
     8     1      0.957663      0.194396      0.485357
     9     1      0.906996      0.043294      0.651901
    10     1      0.154283      0.294050      0.653762
    11     1      0.321462      0.401241      0.823040
    12     1      0.074547      0.148853      0.821019
    13     1      0.040713      0.488245      0.986810
    14     1      0.293570      0.736662      0.986727
    15     1      0.279321      0.909280      0.151554
    16     1      0.026666      0.658724      0.153260
    17     1      0.972114      0.513643      0.320374
    18     1      0.221911      0.764254      0.320003
    19     1      0.209662      0.943770      0.484228
    20     1      0.962654      0.692589      0.484850
    21     1      0.905231      0.543709      0.652818
    22     1      0.156171      0.793686      0.652451
    23     1      0.328385      0.898392      0.821847
    24     1      0.074320      0.650167      0.822085
    25     1      0.549487      0.987762      0.986256
    26     1      0.791418      0.238384      0.985782
    27     1      0.772388      0.409357      0.152624
    28     1      0.524902      0.160161      0.151673
    29     1      0.467739      0.015102      0.319747
    30     1      0.718925      0.264078      0.320610
    31     1      0.708396      0.444330      0.484120
    32     1      0.457416      0.193184      0.484108
    33     1      0.408424      0.042702      0.651050
    34     1      0.652988      0.294145      0.651414
    35     1      0.823065      0.399073      0.820921
    36     1      0.573074      0.150077      0.820066
    37     1      0.541854      0.488573      0.987370
    38     1      0.794833      0.738256      0.988172
    39     1      0.778700      0.909275      0.152255
    40     1      0.525620      0.659367      0.152615
    41     1      0.469243      0.514266      0.319656
    42     1      0.722773      0.764641      0.320652
    43     1      0.710651      0.942393      0.484071
    44     1      0.461749      0.692837      0.485154
    45     1      0.404163      0.544350      0.653825
    46     1      0.656346      0.794190      0.653063
    47     1      0.827357      0.898994      0.822080
    48     1      0.574551      0.649257      0.822647
ITEM: TIMESTEP
64100
ITEM: NUMBER OF ATOMS
48
ITEM: BOX BOUNDS xy xz yz  pp  pp  pp
     -0.003081      2.203080      0.000000
     -0.005336      3.815850      0.000000
     -0.007546      5.396420      0.000000
ITEM: ATOMS id type xs ys zs
     1     1      0.047991      0.988284      0.987174
     2     1      0.294158      0.238374      0.986726
     3     1      0.275098      0.409850      0.151331
     4     1      0.024090      0.160474      0.151004
     5     1      0.969612      0.015231      0.319703
     6     1      0.220096      0.264157      0.318540
     7     1      0.209148      0.441807      0.485104
     8     1      0.957730      0.193922      0.485345
     9     1      0.906983      0.042864      0.652418
    10     1      0.154934      0.293927      0.653598
    11     1      0.322324      0.400663      0.822330
    12     1      0.073162      0.148340      0.821287
    13     1      0.041715      0.489106      0.986254
    14     1      0.294307      0.737844      0.986726
    15     1      0.277917      0.909694      0.151392
    16     1      0.026912      0.659870      0.153104
    17     1      0.972124      0.512897      0.320078
    18     1      0.222789      0.764338      0.320321
    19     1      0.210819      0.943564      0.484238
    20     1      0.960757      0.692112      0.485117
    21     1      0.903997      0.543122      0.652878
    22     1      0.157353      0.792643      0.651855
    23     1      0.328015      0.899666      0.821587
    24     1      0.073964      0.650687      0.821915
    25     1      0.548075      0.988904      0.987084
    26     1      0.792113      0.239792      0.985933
    27     1      0.774742      0.410084      0.152725
    28     1      0.525207      0.159957      0.151652
    29     1      0.469078      0.014801      0.319256
    30     1      0.719420      0.263700      0.320310
    31     1      0.707405      0.443369      0.484467
    32     1      0.457721      0.192310      0.483708
    33     1      0.409242      0.042452      0.651332
    34     1      0.653945      0.293159      0.651096
    35     1      0.822146      0.399619      0.821148
    36     1      0.572238      0.150153      0.820337
    37     1      0.542123      0.488773      0.987641
    38     1      0.794894      0.738238      0.987814
    39     1      0.777568      0.909173      0.152270
    40     1      0.526064      0.659871      0.151998
    41     1      0.469369      0.514135      0.319696
    42     1      0.723164      0.764140      0.319981
    43     1      0.710760      0.943241      0.484429
    44     1      0.460347      0.692879      0.485258
    45     1      0.404537      0.542949      0.653345
    46     1      0.656145      0.792846      0.652537
    47     1      0.825970      0.899486      0.821794
    48     1      0.574781      0.649666      0.822439
ITEM: TIMESTEP
64150
ITEM: NUMBER OF ATOMS
48
ITEM: BOX BOUNDS xy xz yz  pp  pp  pp
     -0.003081      2.203080      0.000000
     -0.005336      3.815850      0.000000
     -0.007546      5.396420      0.000000
ITEM: ATOMS id type xs ys zs
     1     1      0.046382      0.989379      0.986799
     2     1      0.294237      0.238578      0.986131
     3     1      0.276437      0.409500      0.151456
     4     1      0.024955      0.160283      0.151206
     5     1      0.968839      0.014687      0.319853
     6     1      0.220989      0.264192      0.318917
     7     1      0.207414      0.441651      0.485015
     8     1      0.957816      0.192793      0.485320
     9     1      0.906090      0.042311      0.652615
    10     1      0.154570      0.293063      0.653168
    11     1      0.322103      0.400603      0.822797
    12     1      0.072500      0.148642      0.821525
    13     1      0.041492      0.489064      0.986509
    14     1      0.295838      0.738727      0.987122
    15     1      0.278417      0.910575      0.151526
    16     1      0.027232      0.659713      0.152909
    17     1      0.970935      0.513967      0.320178
    18     1      0.221193      0.763810      0.320410
    19     1      0.208729      0.942896      0.484396
    20     1      0.960991      0.692489      0.485151
    21     1      0.903593      0.543115      0.652028
    22     1      0.156633      0.792694      0.652105
    23     1      0.327236      0.900179      0.821128
    24     1      0.073454      0.650390      0.822474
    25     1      0.546722      0.989112      0.986693
    26     1      0.793491      0.240757      0.986201
    27     1      0.776329      0.409886      0.152034
    28     1      0.526185      0.160956      0.151678
    29     1      0.468914      0.014747      0.319913
    30     1      0.720046      0.264278      0.319901
    31     1      0.707001      0.442429      0.484666
    32     1      0.457825      0.192160      0.484040
    33     1      0.407379      0.041552      0.651330
    34     1      0.653362      0.293205      0.651264
    35     1      0.823139      0.399119      0.821010
    36     1      0.573543      0.150968      0.820859
    37     1      0.543092      0.489453      0.987783
    38     1      0.795800      0.739010      0.987801
    39     1      0.777986      0.909558      0.152014
    40     1      0.526763      0.660504      0.152739
    41     1      0.468888      0.514240      0.319940
    42     1      0.722159      0.764487      0.320082
    43     1      0.708468      0.942077      0.485081
    44     1      0.460444      0.692317      0.484940
    45     1      0.402979      0.542202      0.653308
    46     1      0.656637      0.792012      0.653202
    47     1      0.826220      0.898984      0.821669
    48     1      0.575355      0.649338      0.822008
ITEM: TIMESTEP
64200
ITEM: NUMBER OF ATOMS
48
ITEM: BOX BOUNDS xy xz yz  pp  pp  pp
     -0.003081      2.203080      0.000000
     -0.005336      3.815850      0.000000
     -0.007546      5.396420      0.000000
ITEM: ATOMS id type xs ys zs
     1     1      0.046284      0.989106      0.986772
     2     1      0.293674      0.239484      0.986573
     3     1      0.275755      0.411451      0.152045
     4     1      0.025136      0.160443      0.151427
     5     1      0.969755      0.013903      0.319603
     6     1      0.221017      0.263136      0.318870
     7     1      0.206345      0.441521      0.484940
     8     1      0.957682      0.192436      0.485626
     9     1      0.906285      0.041736      0.652947
    10     1      0.153210      0.292684      0.653389
    11     1      0.323007      0.399890      0.822718
    12     1      0.072113      0.148947      0.821056
    13     1      0.041624      0.489454      0.986887
    14     1      0.295476      0.739292      0.986842
    15     1      0.279042      0.911315      0.151719
    16     1      0.027060      0.660306      0.152628
    17     1      0.971639      0.513943      0.320166
    18     1      0.221519      0.764447      0.320014
    19     1      0.209303      0.943221      0.484871
    20     1      0.960882      0.692070      0.484901
    21     1      0.902245      0.542562      0.651944
    22     1      0.156549      0.791580      0.652313
    23     1      0.325618      0.899459      0.820915
    24     1      0.073248      0.650052      0.822181
    25     1      0.547827      0.990516      0.985978
    26     1      0.793713      0.239768      0.986399
    27     1      0.777166      0.410081      0.152494
    28     1      0.525870      0.160609      0.151958
    29     1      0.469353      0.014244      0.319861
    30     1      0.720502      0.264101      0.320320
    31     1      0.706886      0.441625      0.484718
    32     1      0.458339      0.191820      0.484451
    33     1      0.407097      0.041835      0.651542
    34     1      0.655016      0.292638      0.651435
    35     1      0.822249      0.399869      0.820667
    36     1      0.572913      0.150596      0.820789
    37     1      0.543105      0.489880      0.987166
    38     1      0.795737      0.739264      0.987553
    39     1      0.776998      0.909535      0.152034
    40     1      0.527497      0.660886      0.152900
    41     1      0.470175      0.514512      0.319808
    42     1      0.721898      0.764413      0.320758
    43     1      0.708192      0.941942      0.485057
    44     1      0.461000      0.691570      0.485377
    45     1      0.404063      0.541869      0.653480
    46     1      0.656870      0.791755      0.652697
    47     1      0.824528      0.899280      0.821881
    48     1      0.574236      0.650084      0.822296
ITEM: TIMESTEP
64250
ITEM: NUMBER OF ATOMS
48
ITEM: BOX BOUNDS xy xz yz  pp  pp  pp
     -0.003081      2.203080      0.000000
     -0.005336      3.815850      0.000000
     -0.007546      5.396420      0.000000
ITEM: ATOMS id type xs ys zs
     1     1      0.045926      0.989284      0.986556
     2     1      0.294126      0.239552      0.986548
     3     1      0.276068      0.411031      0.152187
     4     1      0.025705      0.160109      0.151294
     5     1      0.967967      0.014021      0.319547
     6     1      0.220645      0.263613      0.319141
     7     1      0.205547      0.440830      0.485371
     8     1      0.957435      0.191491      0.485436
     9     1      0.906921      0.040842      0.652501
    10     1      0.154401      0.291583      0.653153
    11     1      0.321716      0.400283      0.822359
    12     1      0.071557      0.150439      0.821201
    13     1      0.041451      0.489711      0.987096
    14     1      0.295107      0.739293      0.987419
    15     1      0.278043      0.911245      0.151230
    16     1      0.025788      0.660056      0.152456
    17     1      0.972105      0.513809      0.320269
    18     1      0.221335      0.764612      0.319558
    19     1      0.207943      0.942036      0.484466
    20     1      0.960729      0.691648      0.484789
    21     1      0.903296      0.542483      0.651900
    22     1      0.156768      0.790802      0.652207
    23     1      0.324398      0.899316      0.820986
    24     1      0.072019      0.650431      0.822070
    25     1      0.547041      0.989760      0.985899
    26     1      0.793392      0.239734      0.986447
    27     1      0.777851      0.411016      0.152391
    28     1      0.525038      0.161264      0.152095
    29     1      0.469543      0.014712      0.319638
    30     1      0.721710      0.264217      0.319744
    31     1      0.706983      0.440660      0.484352
    32     1      0.457638      0.191363      0.484254
    33     1      0.407215      0.041486      0.652385
    34     1      0.654349      0.291712      0.651556
    35     1      0.821697      0.400606      0.820578
    36     1      0.573587      0.150354      0.820736
    37     1      0.543370      0.489947      0.987106
    38     1      0.794732      0.740473      0.987729
    39     1      0.776610      0.910058      0.152211
    40     1      0.527041      0.660874      0.152668
    41     1      0.471461      0.513727      0.320249
    42     1      0.721948      0.764344      0.320441
    43     1      0.708699      0.942029      0.484666
    44     1      0.460412      0.691116      0.485334
    45     1      0.404785      0.541538      0.653313
    46     1      0.657230      0.790808      0.652992
    47     1      0.822894      0.899925      0.822408
    48     1      0.572440      0.649904      0.822200
ITEM: TIMESTEP
64300
ITEM: NUMBER OF ATOMS
48
ITEM: BOX BOUNDS xy xz yz  pp  pp  pp
     -0.003081      2.203080      0.000000
     -0.005336      3.815850      0.000000
     -0.007546      5.396420      0.000000
ITEM: ATOMS id type xs ys zs
     1     1      0.046905      0.989946      0.986416
     2     1      0.294435      0.239725      0.986305
     3     1      0.277476      0.410715      0.151373
     4     1      0.026023      0.160039      0.151333
     5     1      0.969892      0.014654      0.319883
     6     1      0.220249      0.263295      0.319371
     7     1      0.206341      0.440392      0.485261
     8     1      0.957295      0.190146      0.485758
     9     1      0.907353      0.039805      0.652880
    10     1      0.155348      0.290764      0.652526
    11     1      0.320550      0.399675      0.821689
    12     1      0.072058      0.149601      0.821100
    13     1      0.042052      0.490067      0.986865
    14     1      0.295487      0.739859      0.987010
    15     1      0.278326      0.911444      0.151505
    16     1      0.027003      0.660311      0.152746
    17     1      0.971099      0.513965      0.319852
    18     1      0.220579      0.764251      0.319836
    19     1      0.208646      0.941760      0.484383
    20     1      0.961125      0.690921      0.485540
    21     1      0.903207      0.542153      0.652284
    22     1      0.156569      0.790758      0.652358
    23     1      0.322842      0.900026      0.821351
    24     1      0.070553      0.650423      0.822563
    25     1      0.545920      0.989314      0.986353
    26     1      0.794810      0.239980      0.986327
    27     1      0.779365      0.410280      0.152382
    28     1      0.525818      0.160891      0.151573
    29     1      0.469429      0.015082      0.320203
    30     1      0.721426      0.263918      0.319984
    31     1      0.705669      0.441009      0.484182
    32     1      0.456214      0.190866      0.484908
    33     1      0.407552      0.041018      0.651631
    34     1      0.655649      0.290706      0.651411
    35     1      0.820997      0.400437      0.820472
    36     1      0.573682      0.150652      0.821301
    37     1      0.544239      0.489697      0.986799
    38     1      0.796031      0.740495      0.987630
    39     1      0.777042      0.910489      0.151958
    40     1      0.526412      0.661386      0.152100
    41     1      0.470951      0.514112      0.319222
    42     1      0.721615      0.763981      0.320260
    43     1      0.709065      0.941483      0.484969
    44     1      0.460596      0.690607      0.485125
    45     1      0.404179      0.541522      0.652720
    46     1      0.655625      0.790934      0.652855
    47     1      0.821526      0.900418      0.822040
    48     1      0.570756      0.650611      0.821896
ITEM: TIMESTEP
64350
ITEM: NUMBER OF ATOMS
48
ITEM: BOX BOUNDS xy xz yz  pp  pp  pp
     -0.003081      2.203080      0.000000
     -0.005336      3.815850      0.000000
     -0.007546      5.396420      0.000000
ITEM: ATOMS id type xs ys zs
     1     1      0.046279      0.989550      0.987085
     2     1      0.295089      0.240296      0.986160
     3     1      0.277494      0.411011      0.151734
     4     1      0.026910      0.160749      0.151298
     5     1      0.970472      0.014542      0.319766
     6     1      0.220205      0.263450      0.319187
     7     1      0.205927      0.440297      0.485367
     8     1      0.957977      0.190049      0.485662
     9     1      0.908225      0.039299      0.652694
    10     1      0.157381      0.290342      0.652600
    11     1      0.321082      0.400950      0.822030
    12     1      0.071449      0.150261      0.821724
    13     1      0.043449      0.490485      0.987125
    14     1      0.296764      0.739422      0.987031
    15     1      0.277600      0.910657      0.151674
    16     1      0.027340      0.660464      0.152338
    17     1      0.972781      0.513617      0.320009
    18     1      0.219667      0.764196      0.319675
    19     1      0.207456      0.940335      0.485069
    20     1      0.960277      0.691004      0.484485
    21     1      0.903867      0.540768      0.651195
    22     1      0.157534      0.790125      0.652493
    23     1      0.322466      0.899929      0.821336
    24     1      0.069565      0.649506      0.821846
    25     1      0.545165      0.990318      0.986509
    26     1      0.796042      0.240111      0.986285
    27     1      0.778957      0.410535      0.151629
    28     1      0.527082      0.161088      0.151771
    29     1      0.469663      0.013372      0.320184
    30     1      0.722042      0.263845      0.320509
    31     1      0.706540      0.440858      0.484233
    32     1      0.456666      0.191023      0.484672
    33     1      0.407457      0.040389      0.651845
    34     1      0.655779      0.289977      0.651512
    35     1      0.821103      0.401166      0.821314
    36     1      0.572316      0.151202      0.821611
    37     1      0.544652      0.489525      0.986995
    38     1      0.795926      0.740254      0.987770
    39     1      0.778001      0.909999      0.151791
    40     1      0.527700      0.660688      0.151827
    41     1      0.471452      0.513842      0.319867
    42     1      0.719287      0.764142      0.319960
    43     1      0.708015      0.940419      0.484591
    44     1      0.459578      0.690627      0.485266
    45     1      0.405286      0.541181      0.652360
    46     1      0.655374      0.790733      0.652801
    47     1      0.821490      0.900442      0.821758
    48     1      0.571535      0.651004      0.822232
ITEM: TIMESTEP
64400
ITEM: NUMBER OF ATOMS
48
ITEM: BOX BOUNDS xy xz yz  pp  pp  pp
     -0.003081      2.203080      0.000000
     -0.005336      3.815850      0.000000
     -0.007546      5.396420      0.000000
ITEM: ATOMS id type xs ys zs
     1     1      0.046748      0.989626      0.986881
     2     1      0.296299      0.240691      0.986729
     3     1      0.277133      0.411511      0.151929
     4     1      0.028290      0.161000      0.151513
     5     1      0.970679      0.014726      0.319527
     6     1      0.220781      0.263835      0.319443
     7     1      0.206168      0.440627      0.485334
     8     1      0.958123      0.189813      0.485875
     9     1      0.908292      0.039303      0.652026
    10     1      0.157808      0.289985      0.652727
    11     1      0.320793      0.400822      0.822203
    12     1      0.070762      0.149749      0.822047
    13     1      0.043661      0.489737      0.987055
    14     1      0.296648      0.739407      0.986801
    15     1      0.278181      0.910664      0.151383
    16     1      0.027764      0.660190      0.151911
    17     1      0.973007      0.513977      0.319920
    18     1      0.219597      0.764673      0.319524
    19     1      0.206935      0.940707      0.485191
    20     1      0.960206      0.691533      0.485250
    21     1      0.904514      0.540807      0.651937
    22     1      0.157922      0.789943      0.652789
    23     1      0.320839      0.899761      0.821633
    24     1      0.070724      0.650694      0.821827
    25     1      0.546693      0.990076      0.986702
    26     1      0.794339      0.240045      0.986740
    27     1      0.779190      0.411071      0.151652
    28     1      0.528355      0.161429      0.151722
    29     1      0.469405      0.014382      0.319820
    30     1      0.721199      0.264000      0.320654
    31     1      0.706058      0.440281      0.484508
    32     1      0.456841      0.190936      0.484985
    33     1      0.407108      0.039679      0.652059
    34     1      0.656439      0.289825      0.652337
    35     1      0.821128      0.400804      0.821451
    36     1      0.570813      0.150920      0.821989
    37     1      0.543845      0.490229      0.986893
    38     1      0.795834      0.739684      0.987183
    39     1      0.779959      0.909926      0.151416
    40     1      0.527307      0.660185      0.151879
    41     1      0.471840      0.513977      0.319919
    42     1      0.720344      0.764857      0.319703
    43     1      0.708648      0.939575      0.484334
    44     1      0.457238      0.690348      0.484749
    45     1      0.406791      0.539852      0.652387
    46     1      0.654942      0.790086      0.652795
    47     1      0.820125      0.900952      0.822383
    48     1      0.571462      0.650875      0.821852
ITEM: TIMESTEP
64450
ITEM: NUMBER OF ATOMS
48
ITEM: BOX BOUNDS xy xz yz  pp  pp  pp
     -0.003081      2.203080      0.000000
     -0.005336      3.815850      0.000000
     -0.007546      5.396420      0.000000
ITEM: ATOMS id type xs ys zs
     1     1      0.046796      0.989534      0.986677
     2     1      0.294608      0.240166      0.987022
     3     1      0.278293      0.411234      0.151179
     4     1      0.028413      0.161026      0.151864
     5     1      0.971300      0.014593      0.319177
     6     1      0.221709      0.264589      0.319879
     7     1      0.205687      0.440355      0.485337
     8     1      0.957676      0.190273      0.485094
     9     1      0.907565      0.038968      0.652402
    10     1      0.155942      0.289341      0.652397
    11     1      0.319390      0.400623      0.822107
    12     1      0.070257      0.150028      0.822286
    13     1      0.044635      0.490135      0.987000
    14     1      0.297586      0.739617      0.986394
    15     1      0.278091      0.910467      0.151030
    16     1      0.026570      0.660549      0.152198
    17     1      0.972119      0.514196      0.319773
    18     1      0.220244      0.765335      0.319526
    19     1      0.206900      0.940297      0.484810
    20     1      0.958858      0.689695      0.484811
    21     1      0.905272      0.539664      0.652422
    22     1      0.157167      0.789237      0.652743
    23     1      0.321380      0.900578      0.822027
    24     1      0.070134      0.650931      0.821977
    25     1      0.547172      0.991186      0.986945
    26     1      0.795045      0.240794      0.986493
    27     1      0.777711      0.411321      0.152152
    28     1      0.528993      0.162047      0.152247
    29     1      0.470586      0.015054      0.319646
    30     1      0.722103      0.263885      0.320421
    31     1      0.705425      0.440557      0.484693
    32     1      0.456396      0.189910      0.485041
    33     1      0.407941      0.039832      0.652265
    34     1      0.655890      0.289785      0.652452
    35     1      0.820143      0.400829      0.821648
    36     1      0.570885      0.151173      0.822221
    37     1      0.545133      0.490165      0.986397
    38     1      0.796286      0.739611      0.986841
    39     1      0.779691      0.910774      0.152027
    40     1      0.527229      0.660519      0.151688
    41     1      0.470918      0.514840      0.320048
    42     1      0.721879      0.765109      0.319890
    43     1      0.707642      0.939905      0.484436
    44     1      0.457478      0.690701      0.485455
    45     1      0.406250      0.539818      0.652441
    46     1      0.655536      0.790085      0.652753
    47     1      0.819522      0.900509      0.822358
    48     1      0.570655      0.650192      0.821369
ITEM: TIMESTEP
64500
ITEM: NUMBER OF ATOMS
48
ITEM: BOX BOUNDS xy xz yz  pp  pp  pp
     -0.003081      2.203080      0.000000
     -0.005336      3.815850      0.000000
     -0.007546      5.396420      0.000000
ITEM: ATOMS id type xs ys zs
     1     1      0.045114      0.990215      0.987006
     2     1      0.294716      0.239957      0.987474
     3     1      0.277906      0.411753      0.151360
     4     1      0.026405      0.162047      0.151756
     5     1      0.969652      0.015447      0.319428
     6     1      0.222125      0.265253      0.319249
     7     1      0.206114      0.439759      0.484971
     8     1      0.956186      0.190288      0.484883
     9     1      0.908361      0.038216      0.652566
    10     1      0.156619      0.289739      0.652322
    11     1      0.317318      0.401279      0.822299
    12     1      0.070741      0.150514      0.822141
    13     1      0.045142      0.490754      0.987151
    14     1      0.297479      0.739813      0.986191
    15     1      0.277460      0.911030      0.151518
    16     1      0.028130      0.660754      0.151962
    17     1      0.971287      0.514579      0.319767