ITEM: TIMESTEP
64001
ITEM: NUMBER OF ATOMS
48
ITEM: BOX BOUNDS xy xz yz  pp  pp  pp
     -0.003081      2.203080      0.000000
     -0.005336      3.815850      0.000000
     -0.007546      5.396420      0.000000
ITEM: ATOMS id type xs ys zs
     1     1      0.048570      0.988159      0.986958
     2     1      0.293182      0.237285      0.986188
     3     1      0.272373      0.408707      0.151618
     4     1      0.022077      0.159324      0.150410
     5     1      0.966877      0.015429      0.319093
     6     1      0.220216      0.262789      0.318680
     7     1      0.212124      0.443141      0.485012
     8     1      0.959370      0.195773      0.485188
     9     1      0.907829      0.044637      0.651866
    10     1      0.153645      0.294451      0.653521
    11     1      0.322770      0.400984      0.822783
    12     1      0.073788      0.149466      0.821812
    13     1      0.038850      0.487139      0.987039
    14     1      0.292117      0.735981      0.986975
    15     1      0.277865      0.908674      0.151267
    16     1      0.026493      0.657946      0.152789
    17     1      0.971907      0.513345      0.320676
    18     1      0.218937      0.764590      0.319809
    19     1      0.208816      0.943828      0.484397
    20     1      0.963841      0.693042      0.485621
    21     1      0.904861      0.544300      0.652498
    22     1      0.157685      0.794880      0.653339
    23     1      0.329315      0.899311      0.821787
    24     1      0.073919      0.649126      0.821674
    25     1      0.549185      0.987308      0.986170
    26     1      0.791239      0.238112      0.985452
    27     1      0.772809      0.410010      0.153043
    28     1      0.523805      0.159763      0.151460
    29     1      0.467758      0.016002      0.319841
    30     1      0.720591      0.264999      0.320169
    31     1      0.709844      0.444793      0.484588
    32     1      0.459051      0.193344      0.484270
    33     1      0.409053      0.042995      0.650929
    34     1      0.651792      0.294860      0.651242
    35     1      0.823645      0.399472      0.820520
    36     1      0.572351      0.150278      0.820059
    37     1      0.541721      0.488489      0.987973
    38     1      0.794022      0.738076      0.988926
    39     1      0.776655      0.909260      0.152368
    40     1      0.525757      0.659946      0.152910
    41     1      0.469590      0.513584      0.319460
    42     1      0.720895      0.764205      0.320534
    43     1      0.712103      0.943454      0.483930
    44     1      0.462014      0.694552      0.485131
    45     1      0.404408      0.544579      0.653302
    46     1      0.658665      0.793725      0.653073
    47     1      0.828881      0.898656      0.822402
    48     1      0.575687      0.649137      0.822880
ITEM: TIMESTEP
64050
ITEM: NUMBER OF ATOMS
48
ITEM: BOX BOUNDS xy xz yz  pp  pp  pp
     -0.003081      2.203080      0.000000
     -0.005336      3.815850      0.000000
     -0.007546      5.396420      0.000000
ITEM: ATOMS id type xs ys zs
     1     1      0.049521      0.987080      0.986914
     2     1      0.294314      0.237704      0.986490
     3     1      0.272877      0.409606      0.151538
     4     1      0.023683      0.159632      0.150791
     5     1      0.968891      0.015501      0.319289
     6     1      0.218320      0.262944      0.319018
     7     1      0.213204      0.442378      0.484896
     8     1      0.959003      0.194879      0.484930
     9     1      0.908245      0.043437      0.651531
    10     1      0.151960      0.294333      0.653105
    11     1      0.322431      0.400668      0.822412
    12     1      0.072803      0.150024      0.821884
    13     1      0.040294      0.487970      0.987137
    14     1      0.294295      0.736944      0.987097
    15     1      0.278359      0.909929      0.151547
    16     1      0.026184      0.658313      0.152843
    17     1      0.972108      0.513679      0.319999
    18     1      0.220010      0.765484      0.319670
    19     1      0.208331      0.943570      0.484508
    20     1      0.961901      0.692722      0.485573
    21     1      0.905351      0.543990      0.652172
    22     1      0.157185      0.793540      0.653155
    23     1      0.328458      0.899631      0.821717
    24     1      0.074795      0.650114      0.821804
    25     1      0.549677      0.988091      0.985719
    26     1      0.794108      0.237702      0.985467
    27     1      0.774943      0.410021      0.152484
    28     1      0.524664      0.160833      0.151697
    29     1      0.469346      0.015143      0.319602
    30     1      0.719769      0.264605      0.319484
    31     1      0.709051      0.444210      0.484784
    32     1      0.458632      0.191163      0.483758
    33     1      0.408809      0.042756      0.651738
    34     1      0.652428      0.294487      0.651237
    35     1      0.823322      0.399741      0.821147
    36     1      0.573267      0.149809      0.820181
    37     1      0.542593      0.488171      0.988187
    38     1      0.794965      0.738210      0.988577
    39     1      0.776414      0.909116      0.152597
    40     1      0.524943      0.660129      0.152720
    41     1      0.468987      0.513540      0.320481
    42     1      0.721493      0.763728      0.320576
    43     1      0.709586      0.942904      0.484312
    44     1      0.459835      0.693645      0.485110
    45     1      0.405350      0.544094      0.652758
    46     1      0.657338      0.793386      0.653434
    47     1      0.828333      0.898958      0.821846
    48     1      0.575552      0.648762      0.822477
ITEM: TIMESTEP
64100
ITEM: NUMBER OF ATOMS
48
ITEM: BOX BOUNDS xy xz yz  pp  pp  pp
     -0.003081      2.203080      0.000000
     -0.005336      3.815850      0.000000
     -0.007546      5.396420      0.000000
ITEM: ATOMS id type xs ys zs
     1     1      0.048840      0.986673      0.986579
     2     1      0.294849      0.238378      0.986173
     3     1      0.274047      0.410205      0.151561
     4     1      0.024860      0.158964      0.150538
     5     1      0.969134      0.015721      0.319736
     6     1      0.219116      0.263312      0.318807
     7     1      0.212019      0.441957      0.485172
     8     1      0.959463      0.194416      0.485010
     9     1      0.906938      0.043149      0.652310
    10     1      0.151968      0.293695      0.653715
    11     1      0.323264      0.400404      0.822770
    12     1      0.072318      0.149319      0.821634
    13     1      0.042842      0.488608      0.987082
    14     1      0.295356      0.737860      0.987117
    15     1      0.278724      0.910052      0.151212
    16     1      0.026320      0.659660      0.152700
    17     1      0.972134      0.514050      0.320531
    18     1      0.219867      0.765175      0.320224
    19     1      0.207856      0.942510      0.485073
    20     1      0.960930      0.691912      0.485126
    21     1      0.905379      0.543421      0.652531
    22     1      0.158332      0.792993      0.653061
    23     1      0.326180      0.899055      0.821537
    24     1      0.073678      0.650318      0.822041
    25     1      0.549702      0.988764      0.985252
    26     1      0.795986      0.238324      0.985232
    27     1      0.774778      0.410496      0.152392
    28     1      0.525056      0.160658      0.151459
    29     1      0.470279      0.014116      0.319593
    30     1      0.717984      0.264303      0.319543
    31     1      0.709943      0.443481      0.484421
    32     1      0.458663      0.192031      0.483932
    33     1      0.406374      0.043285      0.651812
    34     1      0.653166      0.294008      0.651433
    35     1      0.823722      0.399392      0.820441
    36     1      0.573294      0.150531      0.820673
    37     1      0.543248      0.488674      0.988349
    38     1      0.794353      0.738067      0.987955
    39     1      0.777996      0.909514      0.151373
    40     1      0.525341      0.660088      0.152895
    41     1      0.468454      0.513544      0.319765
    42     1      0.721787      0.764911      0.320425
    43     1      0.709893      0.941814      0.484883
    44     1      0.459553      0.692532      0.485649
    45     1      0.404150      0.543535      0.653416
    46     1      0.656807      0.792186      0.653590
    47     1      0.826504      0.899995      0.821558
    48     1      0.576290      0.649234      0.822689
ITEM: TIMESTEP
64150
ITEM: NUMBER OF ATOMS
48
ITEM: BOX BOUNDS xy xz yz  pp  pp  pp
     -0.003081      2.203080      0.000000
     -0.005336      3.815850      0.000000
     -0.007546      5.396420      0.000000
ITEM: ATOMS id type xs ys zs
     1     1      0.055742      0.995654      0.986790
     2     1      0.294728      0.239002      0.986043
     3     1      0.274523      0.409858      0.151551
     4     1      0.025821      0.159106      0.150868
     5     1      0.969218      0.015334      0.319895
     6     1      0.219066      0.263486      0.319071
     7     1      0.211646      0.441862      0.485314
     8     1      0.958518      0.193730      0.484714
     9     1      0.905780      0.043840      0.651829
    10     1      0.153070      0.292953      0.654004
    11     1      0.322534      0.399963      0.822819
    12     1      0.073812      0.148780      0.821759
    13     1      0.043184      0.488894      0.987554
    14     1      0.306966      0.739667      0.987038
    15     1      0.278939      0.910356      0.150983
    16     1      0.026404      0.660803      0.151166
    17     1      0.971694      0.514210      0.320065
    18     1      0.221688      0.765043      0.321149
    19     1      0.203200      0.946218      0.485556
    20     1      0.958186      0.691352      0.485384
    21     1      0.897058      0.533686      0.652063
    22     1      0.105471      0.767828      0.663725
    23     1      0.336374      0.875037      0.804747
    24     1      0.074203      0.640278      0.827520
    25     1      0.547483      0.988517      0.984440
    26     1      0.794738      0.239641      0.985442
    27     1      0.775135      0.410277      0.152145
    28     1      0.524710      0.161059      0.151778
    29     1      0.469117      0.013457      0.319874
    30     1      0.719056      0.264379      0.319300
    31     1      0.709301      0.443709      0.484019
    32     1      0.459779      0.192347      0.484137
    33     1      0.405367      0.042895      0.651269
    34     1      0.653384      0.292607      0.651463
    35     1      0.823334      0.397915      0.820683
    36     1      0.572068      0.150570      0.820659
    37     1      0.543699      0.489462      0.988016
    38     1      0.842052      0.760156      0.970816
    39     1      0.778083      0.909479      0.151439
    40     1      0.528583      0.660745      0.152794
    41     1      0.469151      0.514420      0.320272
    42     1      0.719415      0.765167      0.321017
    43     1      0.713880      0.944522      0.485195
    44     1      0.447446      0.718120      0.503095
    45     1      0.405414      0.542532      0.653945
    46     1      0.650786      0.795477      0.659355
    47     1      0.827929      0.907278      0.815521
    48     1      0.581038      0.644971      0.823843
ITEM: TIMESTEP
64200
ITEM: NUMBER OF ATOMS
48
ITEM: BOX BOUNDS xy xz yz  pp  pp  pp
     -0.003081      2.203080      0.000000
     -0.005336      3.815850      0.000000
     -0.007546      5.396420      0.000000
ITEM: ATOMS id type xs ys zs
     1     1      0.054279      0.995842      0.986359
     2     1      0.295635      0.240742      0.986791
     3     1      0.275153      0.410568      0.152351
     4     1      0.025384      0.160493      0.151692
     5     1      0.968598      0.015660      0.319855
     6     1      0.219602      0.264324      0.318946
     7     1      0.210481      0.444539      0.485485
     8     1      0.956948      0.195429      0.484428
     9     1      0.915073      0.043710      0.653523
    10     1      0.153613      0.292435      0.653061
    11     1      0.326071      0.396592      0.822066
    12     1      0.090388      0.148267      0.821486
    13     1      0.042259      0.489029      0.988576
    14     1      0.312152      0.740550      0.985983
    15     1      0.280916      0.910547      0.150976
    16     1      0.027977      0.661705      0.150796
    17     1      0.972134      0.513991      0.319546
    18     1      0.221294      0.764539      0.321529
    19     1      0.188501      0.945384      0.486660
    20     1      0.954377      0.691887      0.485051
    21     1      0.898114      0.534197      0.652594
    22     1      0.124539      0.778015      0.657672
    23     1      0.337531      0.883825      0.812182
    24     1      0.077272      0.639329      0.825671
    25     1      0.549059      0.989878      0.981765
    26     1      0.792406      0.239096      0.984731
    27     1      0.776046      0.410380      0.152171
    28     1      0.525754      0.160550      0.151842
    29     1      0.470359      0.013692      0.321600
    30     1      0.719011      0.265494      0.319436
    31     1      0.707729      0.444655      0.483451
    32     1      0.449968      0.202308      0.483658
    33     1      0.389964      0.041639      0.650952
    34     1      0.652626      0.292914      0.649288
    35     1      0.822152      0.394816      0.821076
    36     1      0.614712      0.130222      0.804915
    37     1      0.545818      0.489646      0.987516
    38     1      0.825577      0.749869      0.979490
    39     1      0.778750      0.909428      0.150640
    40     1      0.530767      0.660594      0.152244
    41     1      0.469301      0.514631      0.320582
    42     1      0.718644      0.765289      0.321854
    43     1      0.671218      0.964452      0.501239
    44     1      0.449946      0.708017      0.495517
    45     1      0.403136      0.541286      0.654395
    46     1      0.642879      0.793683      0.659698
    47     1      0.845415      0.894883      0.817603
    48     1      0.582627      0.643497      0.824291
ITEM: TIMESTEP
64250
ITEM: NUMBER OF ATOMS
48
ITEM: BOX BOUNDS xy xz yz  pp  pp  pp
     -0.003081      2.203080      0.000000
     -0.005336      3.815850      0.000000
     -0.007546      5.396420      0.000000
ITEM: ATOMS id type xs ys zs
     1     1      0.052776      0.993929      0.986466
     2     1      0.296410      0.241043      0.987457
     3     1      0.277076      0.411260      0.152265
     4     1      0.026145      0.160258      0.151209
     5     1      0.965821      0.015940      0.320150
     6     1      0.216120      0.265154      0.317196
     7     1      0.206196      0.447893      0.484986
     8     1      0.939898      0.195553      0.484695
     9     1      0.913063      0.041680      0.654365
    10     1      0.168279      0.292341      0.652548
    11     1      0.327745      0.395463      0.822754
    12     1      0.095172      0.146737      0.820997
    13     1      0.043353      0.487635      0.988993
    14     1      0.310707      0.740616      0.985843
    15     1      0.280375      0.910704      0.151603
    16     1      0.030340      0.662022      0.150506
    17     1      0.970194      0.515351      0.319071
    18     1      0.219604      0.764807      0.321763
    19     1      0.182953      0.944080      0.487091
    20     1      0.951804      0.692420      0.485110
    21     1      0.901450      0.537628      0.652412
    22     1      0.132968      0.783096      0.655164
    23     1      0.340852      0.888114      0.815629
    24     1      0.080362      0.640097      0.824274
    25     1      0.548889      0.989976      0.981792
    26     1      0.792952      0.238994      0.984868
    27     1      0.777397      0.409776      0.151911
    28     1      0.526298      0.160150      0.151754
    29     1      0.468021      0.014303      0.322377
    30     1      0.717616      0.264651      0.319801
    31     1      0.703661      0.444436      0.482458
    32     1      0.409314      0.198042      0.485868
    33     1      0.393369      0.041728      0.650543
    34     1      0.696314      0.290000      0.647605
    35     1      0.824263      0.394351      0.822114
    36     1      0.605406      0.136153      0.810644
    37     1      0.546731      0.490442      0.988240
    38     1      0.816005      0.745958      0.983340
    39     1      0.779130      0.909533      0.150427
    40     1      0.531296      0.660684      0.151997
    41     1      0.468512      0.515058      0.320179
    42     1      0.717527      0.765897      0.322811
    43     1      0.677412      0.957667      0.495808
    44     1      0.448930      0.703312      0.492095
    45     1      0.404468      0.539915      0.654160
    46     1      0.640000      0.793494      0.658962
    47     1      0.847491      0.893736      0.819085
    48     1      0.583287      0.642930      0.823430
ITEM: TIMESTEP
64300
ITEM: NUMBER OF ATOMS
48
ITEM: BOX BOUNDS xy xz yz  pp  pp  pp
     -0.003081      2.203080      0.000000
     -0.005336      3.815850      0.000000
     -0.007546      5.396420      0.000000
ITEM: ATOMS id type xs ys zs
     1     1      0.051445      0.992459      0.986219
     2     1      0.296824      0.241647      0.987525
     3     1      0.277320      0.411393      0.151971
     4     1      0.026334      0.161267      0.150434
     5     1      0.965851      0.016484      0.320301
     6     1      0.213641      0.265923      0.317234
     7     1      0.202335      0.448162      0.484858
     8     1      0.936989      0.195448      0.485055
     9     1      0.908917      0.041008      0.654367
    10     1      0.170836      0.291658      0.651339
    11     1      0.330560      0.394788      0.823070
    12     1      0.097487      0.145863      0.820527
    13     1      0.044421      0.488816      0.988175
    14     1      0.307985      0.741449      0.985647
    15     1      0.280444      0.912543      0.152055
    16     1      0.030970      0.661392      0.151420
    17     1      0.967597      0.516448      0.319108
    18     1      0.219082      0.764865      0.321181
    19     1      0.182830      0.943102      0.487360
    20     1      0.947542      0.692347      0.485736
    21     1      0.902608      0.538794      0.652976
    22     1      0.138018      0.785569      0.655166
    23     1      0.342072      0.891052      0.816774
    24     1      0.081989      0.641164      0.822967
    25     1      0.549566      0.990381      0.982841
    26     1      0.792513      0.238396      0.985302
    27     1      0.778057      0.410802      0.152314
    28     1      0.526331      0.159973      0.152270
    29     1      0.466860      0.015871      0.321837
    30     1      0.713486      0.266098      0.319924
    31     1      0.700698      0.444941      0.483146
    32     1      0.423877      0.197741      0.486168
    33     1      0.397078      0.040454      0.651131
    34     1      0.679476      0.288625      0.647058
    35     1      0.826866      0.394338      0.821749
    36     1      0.601118      0.140306      0.813414
    37     1      0.546239      0.491078      0.987977
    38     1      0.811076      0.742546      0.985034
    39     1      0.777545      0.911316      0.150911
    40     1      0.533020      0.660850      0.151518
    41     1      0.466936      0.516201      0.319775
    42     1      0.715961      0.767221      0.322632
    43     1      0.681369      0.953093      0.493366
    44     1      0.448809      0.700143      0.489920
    45     1      0.405766      0.539728      0.654097
    46     1      0.641615      0.793207      0.657945
    47     1      0.847581      0.894429      0.819849
    48     1      0.583788      0.643699      0.823207
ITEM: TIMESTEP
64350
ITEM: NUMBER OF ATOMS
48
ITEM: BOX BOUNDS xy xz yz  pp  pp  pp
     -0.003081      2.203080      0.000000
     -0.005336      3.815850      0.000000
     -0.007546      5.396420      0.000000
ITEM: ATOMS id type xs ys zs
     1     1      0.051437      0.991409      0.985798
     2     1      0.296539      0.240578      0.988176
     3     1      0.277608      0.411476      0.151941
     4     1      0.026385      0.160867      0.150357
     5     1      0.964448      0.016842      0.320498
     6     1      0.213011      0.267339      0.317711
     7     1      0.200631      0.447226      0.484863
     8     1      0.938357      0.195759      0.486085
     9     1      0.909072      0.040408      0.653899
    10     1      0.168369      0.290316      0.651100
    11     1      0.332240      0.395475      0.822698
    12     1      0.096780      0.145970      0.819888
    13     1      0.044624      0.488863      0.988024
    14     1      0.307101      0.741591      0.986351
    15     1      0.279591      0.912000      0.151940
    16     1      0.032129      0.661643      0.151204
    17     1      0.966998      0.516540      0.319111
    18     1      0.219289      0.766839      0.320858
    19     1      0.184755      0.942718      0.487333
    20     1      0.946133      0.693204      0.485608
    21     1      0.905057      0.538737      0.652790
    22     1      0.141671      0.787394      0.654367
    23     1      0.342949      0.892244      0.817619
    24     1      0.082641      0.642028      0.822578
    25     1      0.549859      0.990582      0.983447
    26     1      0.792837      0.238320      0.985358
    27     1      0.776562      0.410308      0.151797
    28     1      0.527726      0.160366      0.151743
    29     1      0.464376      0.016598      0.322081
    30     1      0.713336      0.266242      0.320507
    31     1      0.698798      0.445449      0.483852
    32     1      0.430468      0.196965      0.486235
    33     1      0.399872      0.039979      0.651149
    34     1      0.672034      0.288605      0.647917
    35     1      0.829995      0.394432      0.821235
    36     1      0.598205      0.141524      0.815027
    37     1      0.547718      0.490840      0.987779
    38     1      0.807910      0.741805      0.986246
    39     1      0.778717      0.910630      0.151180
    40     1      0.532047      0.660733      0.151832
    41     1      0.466447      0.516804      0.319676
    42     1      0.716414      0.767485      0.321862
    43     1      0.685240      0.949701      0.491208
    44     1      0.446938      0.697423      0.488874
    45     1      0.405551      0.539476      0.654008
    46     1      0.642527      0.792907      0.657721
    47     1      0.847551      0.893395      0.820190
    48     1      0.584279      0.644103      0.823063
ITEM: TIMESTEP
64400
ITEM: NUMBER OF ATOMS
48
ITEM: BOX BOUNDS xy xz yz  pp  pp  pp
     -0.003081      2.203080      0.000000
     -0.005336      3.815850      0.000000
     -0.007546      5.396420      0.000000
ITEM: ATOMS id type xs ys zs
     1     1      0.065677      0.990940      0.986215
     2     1      0.298367      0.239512      0.987740
     3     1      0.277750      0.411352      0.152109
     4     1      0.026373      0.160718      0.150651
     5     1      0.963492      0.016920      0.320663
     6     1      0.211451      0.267126      0.318757
     7     1      0.199345      0.447576      0.484844
     8     1      0.940303      0.196042      0.486676
     9     1      0.907009      0.039538      0.653434
    10     1      0.165779      0.290877      0.651490
    11     1      0.332934      0.395562      0.822887
    12     1      0.092119      0.146707      0.819815
    13     1      0.045488      0.489288      0.987346
    14     1      0.306540      0.741610      0.986145
    15     1      0.281442      0.911611      0.152282
    16     1      0.033718      0.661399      0.151501
    17     1      0.966825      0.516664      0.319028
    18     1      0.216067      0.766557      0.320411
    19     1      0.185416      0.943094      0.486522
    20     1      0.944271      0.693306      0.485726
    21     1      0.905630      0.539142      0.652207
    22     1      0.142637      0.786854      0.652392
    23     1      0.304135      0.894243      0.819424
    24     1      0.082913      0.641573      0.822235
    25     1      0.587651      0.990156      0.982756
    26     1      0.796898      0.241347      0.985569
    27     1      0.777842      0.410277      0.151849
    28     1      0.528137      0.159749      0.152036
    29     1      0.463227      0.016639      0.321887
    30     1      0.711844      0.266414      0.320278
    31     1      0.699293      0.444753      0.484549
    32     1      0.434835      0.196841      0.485952
    33     1      0.400769      0.038838      0.651025
    34     1      0.667199      0.288190      0.648459
    35     1      0.829697      0.394565      0.820890
    36     1      0.594678      0.141978      0.815852
    37     1      0.547093      0.491263      0.987759
    38     1      0.807857      0.739931      0.986193
    39     1      0.781173      0.909592      0.152481
    40     1      0.531450      0.661895      0.151635
    41     1      0.465106      0.517030      0.320127
    42     1      0.714224      0.767509      0.322179
    43     1      0.686894      0.947226      0.489683
    44     1      0.445806      0.696797      0.488022
    45     1      0.404892      0.539429      0.653690
    46     1      0.642774      0.791670      0.656056
    47     1      0.830088      0.893489      0.820640
    48     1      0.583896      0.645351      0.822594
ITEM: TIMESTEP
64450
ITEM: NUMBER OF ATOMS
48
ITEM: BOX BOUNDS xy xz yz  pp  pp  pp
     -0.003081      2.203080      0.000000
     -0.005336      3.815850      0.000000
     -0.007546      5.396420      0.000000
ITEM: ATOMS id type xs ys zs
     1     1      0.066329      0.992462      0.986280
     2     1      0.348170      0.239519      0.985762
     3     1      0.278833      0.410580      0.151601
     4     1      0.028133      0.160491      0.150872
     5     1      0.961903      0.017179      0.320833
     6     1      0.210420      0.267166      0.319452
     7     1      0.197325      0.446377      0.485330
     8     1      0.939495      0.195621      0.486481
     9     1      0.907143      0.038683      0.652861
    10     1      0.163590      0.290139      0.651783
    11     1      0.332824      0.394714      0.821742
    12     1      0.041429      0.148569      0.820851
    13     1      0.047070      0.489083      0.987874
    14     1      0.305908      0.741919      0.985951
    15     1      0.283760      0.911037      0.151973
    16     1      0.033330      0.661281      0.152263
    17     1      0.966189      0.516877      0.319784
    18     1      0.215087      0.767152      0.321179
    19     1      0.186724      0.943290      0.486871
    20     1      0.942314      0.694034      0.485858
    21     1      0.904959      0.538520      0.652107
    22     1      0.143746      0.787442      0.652552
    23     1      0.316146      0.895434      0.819940
    24     1      0.082800      0.642736      0.822099
    25     1      0.573186      0.988053      0.983429
    26     1      0.809877      0.241698      0.985465
    27     1      0.777124      0.410203      0.151477
    28     1      0.530381      0.158579      0.153224
    29     1      0.462308      0.017022      0.321867
    30     1      0.710856      0.266396      0.320636
    31     1      0.697282      0.444772      0.484900
    32     1      0.436499      0.195768      0.485987
    33     1      0.401701      0.038489      0.651247
    34     1      0.666190      0.287510      0.649666
    35     1      0.827779      0.396477      0.820798
    36     1      0.578712      0.142985      0.816671
    37     1      0.548651      0.493113      0.987728
    38     1      0.808146      0.739364      0.986287
    39     1      0.783135      0.909201      0.152387
    40     1      0.532014      0.661535      0.152406
    41     1      0.465738      0.517291      0.320610
    42     1      0.713851      0.767455      0.322046
    43     1      0.687625      0.946205      0.488171
    44     1      0.444321      0.695554      0.487089
    45     1      0.406317      0.539523      0.652967
    46     1      0.643559      0.790885      0.654718
    47     1      0.827029      0.894201      0.820884
    48     1      0.582624      0.646424      0.822263
ITEM: TIMESTEP
64500
ITEM: NUMBER OF ATOMS
48
ITEM: BOX BOUNDS xy xz yz  pp  pp  pp
     -0.003081      2.203080      0.000000
     -0.005336      3.815850      0.000000
     -0.007546      5.396420      0.000000
ITEM: ATOMS id type xs ys zs
     1     1      0.064147      0.992261      0.985828
     2     1      0.328653      0.239220      0.983626
     3     1      0.280542      0.410213      0.151753
     4     1      0.029900      0.160323      0.150883
     5     1      0.961505      0.018095      0.320895
     6     1      0.208773      0.267205      0.320350
     7     1      0.195363      0.445716      0.485611
     8     1      0.939134      0.194652      0.485012
     9     1      0.905534      0.038161      0.652174
    10     1      0.158884      0.286294      0.647297
    11     1      0.334807      0.393592      0.808603
    12     1      0.059487      0.149288      0.821078
    13     1      0.049930      0.489350      0.987405
    14     1      0.304564      0.741028      0.986570
    15     1      0.284846      0.911593      0.152174
    16     1      0.033384      0.660595      0.152183
    17     1      0.964208      0.517637      0.320479