ITEM: TIMESTEP
64001
ITEM: NUMBER OF ATOMS
48
ITEM: BOX BOUNDS xy xz yz  pp  pp  pp
     -0.003081      2.203080      0.000000
     -0.005336      3.815850      0.000000
     -0.007546      5.396420      0.000000
ITEM: ATOMS id type xs ys zs
     1     1      0.048647      0.988383      0.986960
     2     1      0.293127      0.237304      0.986061
     3     1      0.272463      0.408706      0.151640
     4     1      0.022387      0.159199      0.150317
     5     1      0.967263      0.015566      0.318927
     6     1      0.220251      0.263065      0.318781
     7     1      0.212156      0.443212      0.485121
     8     1      0.958971      0.195717      0.485176
     9     1      0.907635      0.044607      0.651874
    10     1      0.153711      0.294508      0.653464
    11     1      0.322683      0.400916      0.822733
    12     1      0.073696      0.149427      0.821830
    13     1      0.038948      0.487219      0.987085
    14     1      0.292200      0.735839      0.986919
    15     1      0.278058      0.908722      0.151258
    16     1      0.026204      0.658016      0.152842
    17     1      0.971874      0.513416      0.320684
    18     1      0.219060      0.764743      0.319844
    19     1      0.208794      0.943772      0.484348
    20     1      0.963941      0.692988      0.485686
    21     1      0.904905      0.544284      0.652439
    22     1      0.157748      0.794892      0.653131
    23     1      0.329402      0.899528      0.821751
    24     1      0.073854      0.649261      0.821670
    25     1      0.549205      0.987093      0.986226
    26     1      0.791305      0.238067      0.985409
    27     1      0.772837      0.409983      0.153085
    28     1      0.524057      0.159553      0.151494
    29     1      0.467872      0.015891      0.319802
    30     1      0.720710      0.264952      0.320207
    31     1      0.709831      0.444945      0.484607
    32     1      0.459089      0.193582      0.484312
    33     1      0.409011      0.042716      0.650919
    34     1      0.651686      0.294869      0.651321
    35     1      0.823794      0.399399      0.820503
    36     1      0.572318      0.150223      0.820139
    37     1      0.541806      0.488314      0.988087
    38     1      0.794223      0.737992      0.988882
    39     1      0.776600      0.909089      0.152415
    40     1      0.525878      0.659841      0.152863
    41     1      0.469511      0.513491      0.319400
    42     1      0.720708      0.764061      0.320510
    43     1      0.712198      0.943395      0.483886
    44     1      0.462024      0.694509      0.485072
    45     1      0.404206      0.544799      0.653258
    46     1      0.658463      0.793620      0.653113
    47     1      0.828875      0.898907      0.822422
    48     1      0.575699      0.649181      0.822901
ITEM: TIMESTEP
64050
ITEM: NUMBER OF ATOMS
48
ITEM: BOX BOUNDS xy xz yz  pp  pp  pp
     -0.003081      2.203080      0.000000
     -0.005336      3.815850      0.000000
     -0.007546      5.396420      0.000000
ITEM: ATOMS id type xs ys zs
     1     1      0.048078      0.988289      0.987003
     2     1      0.295265      0.237546      0.986353
     3     1      0.272355      0.408507      0.151245
     4     1      0.023032      0.159582      0.150816
     5     1      0.968397      0.015537      0.319278
     6     1      0.220310      0.263299      0.318609
     7     1      0.211171      0.442729      0.485459
     8     1      0.959168      0.195207      0.485060
     9     1      0.908127      0.043421      0.651888
    10     1      0.154453      0.294096      0.653358
    11     1      0.322007      0.400794      0.822336
    12     1      0.072924      0.148501      0.821402
    13     1      0.039447      0.487021      0.987100
    14     1      0.292653      0.737251      0.987142
    15     1      0.276758      0.909232      0.151397
    16     1      0.026719      0.658294      0.152629
    17     1      0.971070      0.513911      0.320193
    18     1      0.220301      0.764525      0.319899
    19     1      0.207913      0.943873      0.484363
    20     1      0.962684      0.693747      0.485239
    21     1      0.905473      0.543810      0.652151
    22     1      0.156640      0.795229      0.653682
    23     1      0.328096      0.899109      0.821861
    24     1      0.074865      0.649806      0.821762
    25     1      0.549039      0.988304      0.985923
    26     1      0.792919      0.237994      0.985670
    27     1      0.772184      0.409017      0.152795
    28     1      0.525211      0.159151      0.151754
    29     1      0.469492      0.014851      0.319978
    30     1      0.721530      0.266235      0.320012
    31     1      0.709440      0.444567      0.484608
    32     1      0.459780      0.192749      0.483612
    33     1      0.408502      0.042293      0.651188
    34     1      0.652901      0.293809      0.651779
    35     1      0.823635      0.398997      0.820480
    36     1      0.573064      0.150374      0.820552
    37     1      0.542944      0.488485      0.988055
    38     1      0.794611      0.737895      0.988230
    39     1      0.776773      0.909310      0.152187
    40     1      0.525663      0.659952      0.152767
    41     1      0.469766      0.513599      0.319219
    42     1      0.721408      0.764441      0.320811
    43     1      0.709854      0.942849      0.484084
    44     1      0.459743      0.693874      0.485200
    45     1      0.404015      0.544632      0.652777
    46     1      0.658097      0.793421      0.652909
    47     1      0.828335      0.899491      0.822353
    48     1      0.574551      0.649075      0.822281
ITEM: TIMESTEP
64100
ITEM: NUMBER OF ATOMS
48
ITEM: BOX BOUNDS xy xz yz  pp  pp  pp
     -0.003081      2.203080      0.000000
     -0.005336      3.815850      0.000000
     -0.007546      5.396420      0.000000
ITEM: ATOMS id type xs ys zs
     1     1      0.047160      0.989250      0.987000
     2     1      0.294308      0.238875      0.986886
     3     1      0.273310      0.408845      0.151504
     4     1      0.023357      0.160102      0.151265
     5     1      0.968953      0.014964      0.319906
     6     1      0.221083      0.263316      0.319226
     7     1      0.210384      0.441850      0.485461
     8     1      0.958937      0.193765      0.484882
     9     1      0.907318      0.042980      0.651944
    10     1      0.154634      0.293292      0.653328
    11     1      0.322246      0.400796      0.822061
    12     1      0.072992      0.148396      0.821457
    13     1      0.040202      0.487769      0.986817
    14     1      0.294814      0.737767      0.987300
    15     1      0.277101      0.910159      0.151307
    16     1      0.026823      0.659160      0.152264
    17     1      0.970436      0.513345      0.320448
    18     1      0.220111      0.765250      0.320046
    19     1      0.208209      0.943021      0.484923
    20     1      0.962376      0.693312      0.484859
    21     1      0.905436      0.543318      0.652337
    22     1      0.156061      0.794450      0.653472
    23     1      0.327134      0.900541      0.822052
    24     1      0.073958      0.651080      0.821997
    25     1      0.547332      0.988601      0.986742
    26     1      0.791769      0.238816      0.985416
    27     1      0.772107      0.409582      0.152696
    28     1      0.526863      0.160526      0.151676
    29     1      0.469505      0.014866      0.319357
    30     1      0.721563      0.265957      0.319863
    31     1      0.709657      0.443861      0.484527
    32     1      0.460413      0.192731      0.483681
    33     1      0.409231      0.041856      0.650741
    34     1      0.654511      0.294308      0.651681
    35     1      0.822653      0.399290      0.820348
    36     1      0.571239      0.150556      0.820305
    37     1      0.543402      0.489840      0.988048
    38     1      0.794791      0.738308      0.987699
    39     1      0.775948      0.909789      0.152270
    40     1      0.525968      0.660254      0.152646
    41     1      0.469139      0.513836      0.319504
    42     1      0.721446      0.764574      0.320479
    43     1      0.708032      0.942847      0.484146
    44     1      0.459252      0.693328      0.485343
    45     1      0.403760      0.544651      0.652757
    46     1      0.657307      0.792810      0.652719
    47     1      0.825869      0.900677      0.821942
    48     1      0.573957      0.649692      0.822207
ITEM: TIMESTEP
64150
ITEM: NUMBER OF ATOMS
48
ITEM: BOX BOUNDS xy xz yz  pp  pp  pp
     -0.003081      2.203080      0.000000
     -0.005336      3.815850      0.000000
     -0.007546      5.396420      0.000000
ITEM: ATOMS id type xs ys zs
     1     1      0.046994      0.988277      0.986843
     2     1      0.294082      0.238524      0.986653
     3     1      0.273562      0.410261      0.151228
     4     1      0.023215      0.160573      0.151109
     5     1      0.969518      0.015212      0.319166
     6     1      0.220750      0.264224      0.318992
     7     1      0.209312      0.441284      0.485602
     8     1      0.958557      0.193273      0.485313
     9     1      0.907442      0.042598      0.652101
    10     1      0.154861      0.292816      0.653514
    11     1      0.321932      0.401124      0.821828
    12     1      0.072815      0.149597      0.821549
    13     1      0.042122      0.489107      0.986607
    14     1      0.295385      0.739205      0.987096
    15     1      0.275971      0.910629      0.151452
    16     1      0.027098      0.659893      0.152845
    17     1      0.970971      0.514323      0.320494
    18     1      0.220304      0.765112      0.319770
    19     1      0.206875      0.942396      0.484602
    20     1      0.960219      0.692906      0.485066
    21     1      0.906105      0.543612      0.652046
    22     1      0.155828      0.794304      0.652600
    23     1      0.326527      0.900967      0.821978
    24     1      0.071957      0.651452      0.822173
    25     1      0.547771      0.988739      0.987025
    26     1      0.793759      0.239212      0.985523
    27     1      0.773001      0.410696      0.152762
    28     1      0.525503      0.160420      0.152331
    29     1      0.469895      0.013915      0.319456
    30     1      0.721546      0.264489      0.319934
    31     1      0.708527      0.443356      0.484144
    32     1      0.458283      0.192021      0.483943
    33     1      0.408465      0.042835      0.651173
    34     1      0.653506      0.293803      0.651300
    35     1      0.822370      0.400519      0.820700
    36     1      0.572309      0.150069      0.820163
    37     1      0.543019      0.489454      0.987698
    38     1      0.795123      0.739304      0.988058
    39     1      0.777196      0.910888      0.152491
    40     1      0.524872      0.660776      0.152671
    41     1      0.470056      0.514507      0.319644
    42     1      0.719503      0.764498      0.320760
    43     1      0.707682      0.942118      0.483976
    44     1      0.458199      0.692135      0.485182
    45     1      0.404494      0.543700      0.652623
    46     1      0.657053      0.792806      0.652506
    47     1      0.824397      0.900031      0.821520
    48     1      0.574358      0.650265      0.822302
ITEM: TIMESTEP
64200
ITEM: NUMBER OF ATOMS
48
ITEM: BOX BOUNDS xy xz yz  pp  pp  pp
     -0.003081      2.203080      0.000000
     -0.005336      3.815850      0.000000
     -0.007546      5.396420      0.000000
ITEM: ATOMS id type xs ys zs
     1     1      0.047085      0.989035      0.986773
     2     1      0.294482      0.239001      0.986612
     3     1      0.275508      0.410829      0.150912
     4     1      0.025615      0.160785      0.151230
     5     1      0.969000      0.014936      0.319269
     6     1      0.221095      0.264582      0.319158
     7     1      0.207910      0.441042      0.485589
     8     1      0.958022      0.191641      0.485454
     9     1      0.906000      0.042126      0.652633
    10     1      0.153978      0.292230      0.653604
    11     1      0.321314      0.401224      0.822201
    12     1      0.071968      0.150002      0.821829
    13     1      0.042568      0.489412      0.986339
    14     1      0.296725      0.739123      0.987224
    15     1      0.277853      0.910283      0.151966
    16     1      0.025887      0.659854      0.152363
    17     1      0.970151      0.513885      0.320667
    18     1      0.219928      0.764503      0.319513
    19     1      0.206909      0.941701      0.484921
    20     1      0.960132      0.691649      0.485240
    21     1      0.905524      0.543628      0.652714
    22     1      0.157326      0.793997      0.652835
    23     1      0.324939      0.900430      0.821823
    24     1      0.073698      0.651499      0.821478
    25     1      0.548063      0.989987      0.987436
    26     1      0.794002      0.239488      0.985817
    27     1      0.774760      0.410589      0.152200
    28     1      0.526293      0.160743      0.151806
    29     1      0.469604      0.014166      0.319925
    30     1      0.721196      0.264450      0.319559
    31     1      0.707865      0.441261      0.484760
    32     1      0.457277      0.190917      0.483672
    33     1      0.408517      0.041613      0.651304
    34     1      0.653685      0.293520      0.651494
    35     1      0.822049      0.400589      0.821242
    36     1      0.571945      0.150438      0.821059
    37     1      0.543718      0.489620      0.987617
    38     1      0.794501      0.738995      0.987536
    39     1      0.779600      0.910801      0.152401
    40     1      0.523622      0.660910      0.152942
    41     1      0.469972      0.513519      0.319837
    42     1      0.720938      0.763833      0.320257
    43     1      0.707458      0.941701      0.484105
    44     1      0.459570      0.690998      0.485156
    45     1      0.404252      0.542922      0.652681
    46     1      0.656948      0.792576      0.651975
    47     1      0.822999      0.900497      0.822058
    48     1      0.573945      0.650695      0.822019
ITEM: TIMESTEP
64250
ITEM: NUMBER OF ATOMS
48
ITEM: BOX BOUNDS xy xz yz  pp  pp  pp
     -0.003081      2.203080      0.000000
     -0.005336      3.815850      0.000000
     -0.007546      5.396420      0.000000
ITEM: ATOMS id type xs ys zs
     1     1      0.046665      0.989597      0.986676
     2     1      0.295261      0.238651      0.987160
     3     1      0.274861      0.411205      0.151377
     4     1      0.026225      0.161171      0.151525
     5     1      0.969000      0.015019      0.319167
     6     1      0.220582      0.264531      0.319636
     7     1      0.207829      0.440912      0.485436
     8     1      0.956474      0.190215      0.484801
     9     1      0.907156      0.041784      0.652456
    10     1      0.153968      0.291546      0.653090
    11     1      0.321413      0.401046      0.822417
    12     1      0.072853      0.150812      0.821712
    13     1      0.043492      0.490380      0.986167
    14     1      0.295545      0.740091      0.987294
    15     1      0.277055      0.910552      0.151569
    16     1      0.025849      0.660363      0.151717
    17     1      0.969931      0.514247      0.320450
    18     1      0.219764      0.764012      0.318874
    19     1      0.207840      0.941339      0.484621
    20     1      0.958695      0.691359      0.484561
    21     1      0.903997      0.543331      0.652283
    22     1      0.156578      0.793263      0.652800
    23     1      0.324253      0.901182      0.822014
    24     1      0.072700      0.651412      0.821272
    25     1      0.547190      0.990398      0.987832
    26     1      0.794467      0.239529      0.986267
    27     1      0.775584      0.411193      0.152121
    28     1      0.527090      0.160824      0.152423
    29     1      0.469838      0.014410      0.319155
    30     1      0.721379      0.264569      0.319618
    31     1      0.708254      0.440533      0.485091
    32     1      0.457804      0.190589      0.484495
    33     1      0.408163      0.040937      0.651470
    34     1      0.653274      0.292456      0.651677
    35     1      0.821830      0.400744      0.821492
    36     1      0.571844      0.150843      0.821518
    37     1      0.544624      0.489902      0.987527
    38     1      0.793809      0.740345      0.987130
    39     1      0.779697      0.909887      0.152319
    40     1      0.524912      0.661035      0.153052
    41     1      0.469622      0.513967      0.320262
    42     1      0.721061      0.764317      0.320528
    43     1      0.707286      0.940688      0.484855
    44     1      0.458373      0.691058      0.485023
    45     1      0.404355      0.543056      0.652960
    46     1      0.657802      0.792330      0.652049
    47     1      0.822503      0.900758      0.822445
    48     1      0.572363      0.650861      0.821544
ITEM: TIMESTEP
64300
ITEM: NUMBER OF ATOMS
48
ITEM: BOX BOUNDS xy xz yz  pp  pp  pp
     -0.003081      2.203080      0.000000
     -0.005336      3.815850      0.000000
     -0.007546      5.396420      0.000000
ITEM: ATOMS id type xs ys zs
     1     1      0.046718      0.990195      0.986631
     2     1      0.294879      0.239498      0.987356
     3     1      0.276023      0.410823      0.151901
     4     1      0.027288      0.161389      0.151321
     5     1      0.970279      0.015212      0.319724
     6     1      0.220343      0.264319      0.319465
     7     1      0.207082      0.440800      0.484922
     8     1      0.956853      0.189791      0.484524
     9     1      0.906507      0.041020      0.652461
    10     1      0.155712      0.291792      0.653081
    11     1      0.320588      0.401074      0.822458
    12     1      0.070574      0.151483      0.822027
    13     1      0.043554      0.489312      0.986507
    14     1      0.296612      0.739577      0.986639
    15     1      0.277358      0.910280      0.150991
    16     1      0.027614      0.660993      0.151771
    17     1      0.970491      0.515029      0.319756
    18     1      0.221512      0.764466      0.319633
    19     1      0.208191      0.940880      0.484561
    20     1      0.959220      0.690893      0.485089
    21     1      0.903565      0.542285      0.652508
    22     1      0.157566      0.792512      0.652825
    23     1      0.322882      0.900788      0.821983
    24     1      0.072686      0.651596      0.821400
    25     1      0.546638      0.990186      0.987830
    26     1      0.795487      0.240414      0.986769
    27     1      0.775630      0.411144      0.151785
    28     1      0.527301      0.161021      0.152221
    29     1      0.469970      0.014523      0.319153
    30     1      0.719851      0.264596      0.319763
    31     1      0.707889      0.440691      0.484638
    32     1      0.456538      0.190085      0.484716
    33     1      0.408327      0.040544      0.652134
    34     1      0.655807      0.291871      0.651735
    35     1      0.821251      0.400306      0.821346
    36     1      0.570907      0.151072      0.822023
    37     1      0.545332      0.489729      0.987086
    38     1      0.794592      0.740317      0.987294
    39     1      0.777750      0.911349      0.151840
    40     1      0.527098      0.661040      0.152329
    41     1      0.470640      0.514627      0.320191
    42     1      0.719630      0.764466      0.320454
    43     1      0.707600      0.940409      0.484797
    44     1      0.457940      0.690839      0.485085
    45     1      0.403304      0.542613      0.653107
    46     1      0.659026      0.791853      0.651993
    47     1      0.822397      0.900768      0.822268
    48     1      0.573344      0.650836      0.821587
ITEM: TIMESTEP
64350
ITEM: NUMBER OF ATOMS
48
ITEM: BOX BOUNDS xy xz yz  pp  pp  pp
     -0.003081      2.203080      0.000000
     -0.005336      3.815850      0.000000
     -0.007546      5.396420      0.000000
ITEM: ATOMS id type xs ys zs
     1     1      0.046020      0.990405      0.987124
     2     1      0.295726      0.239650      0.987340
     3     1      0.275351      0.411039      0.152288
     4     1      0.027996      0.161242      0.151313
     5     1      0.970133      0.014781      0.319567
     6     1      0.219453      0.264240      0.319655
     7     1      0.206901      0.440349      0.485050
     8     1      0.956206      0.190000      0.485182
     9     1      0.907227      0.041362      0.652300
    10     1      0.155983      0.290665      0.652484
    11     1      0.319960      0.400457      0.822666
    12     1      0.070427      0.149899      0.821887
    13     1      0.044689      0.489763      0.986496
    14     1      0.295970      0.739280      0.986908
    15     1      0.277476      0.910925      0.151510
    16     1      0.027053      0.662159      0.151191
    17     1      0.969738      0.515196      0.319728
    18     1      0.221006      0.764793      0.319251
    19     1      0.208488      0.940307      0.484261
    20     1      0.958818      0.691229      0.484744
    21     1      0.904932      0.541598      0.652968
    22     1      0.158345      0.791701      0.652699
    23     1      0.322397      0.900671      0.822646
    24     1      0.071105      0.651516      0.822133
    25     1      0.546636      0.990091      0.987663
    26     1      0.794812      0.240178      0.986934
    27     1      0.776418      0.412494      0.151969
    28     1      0.528599      0.161025      0.152204
    29     1      0.470469      0.014770      0.319689
    30     1      0.720328      0.265482      0.319885
    31     1      0.707356      0.440848      0.484459
    32     1      0.457182      0.190078      0.484676
    33     1      0.407713      0.041437      0.652187
    34     1      0.655174      0.291840      0.651850
    35     1      0.822190      0.399279      0.821365
    36     1      0.571665      0.150965      0.821954
    37     1      0.545520      0.490079      0.986549
    38     1      0.795360      0.740967      0.987027
    39     1      0.777793      0.911201      0.152535
    40     1      0.526765      0.661206      0.152245
    41     1      0.470617      0.514880      0.319815
    42     1      0.719719      0.764935      0.320304
    43     1      0.707465      0.940319      0.484662
    44     1      0.457699      0.690354      0.484590
    45     1      0.402814      0.541894      0.652738
    46     1      0.658830      0.791926      0.651750
    47     1      0.821936      0.900613      0.822160
    48     1      0.572902      0.650414      0.821595
ITEM: TIMESTEP
64400
ITEM: NUMBER OF ATOMS
48
ITEM: BOX BOUNDS xy xz yz  pp  pp  pp
     -0.003081      2.203080      0.000000
     -0.005336      3.815850      0.000000
     -0.007546      5.396420      0.000000
ITEM: ATOMS id type xs ys zs
     1     1      0.046602      0.990497      0.987003
     2     1      0.297425      0.241226      0.987374
     3     1      0.276485      0.411624      0.152471
     4     1      0.029604      0.161398      0.151480
     5     1      0.969711      0.014489      0.319997
     6     1      0.218985      0.264886      0.319776
     7     1      0.206735      0.440535      0.485376
     8     1      0.957321      0.189910      0.484496
     9     1      0.906579      0.040950      0.652286
    10     1      0.155459      0.290777      0.652814
    11     1      0.320595      0.401212      0.822063
    12     1      0.070678      0.149899      0.822342
    13     1      0.045337      0.490685      0.987076
    14     1      0.296299      0.740378      0.986834
    15     1      0.279243      0.911361      0.152211
    16     1      0.025647      0.661777      0.151850
    17     1      0.969733      0.514681      0.319935
    18     1      0.219088      0.764816      0.319833
    19     1      0.208850      0.940854      0.484681
    20     1      0.958230      0.690402      0.484480
    21     1      0.904170      0.541460      0.652631
    22     1      0.159506      0.791025      0.652201
    23     1      0.320872      0.900440      0.821970
    24     1      0.069722      0.651599      0.822090
    25     1      0.546892      0.990259      0.986790
    26     1      0.795081      0.240441      0.986756
    27     1      0.776766      0.411933      0.151687
    28     1      0.529176      0.161433      0.151825
    29     1      0.470284      0.014824      0.320218
    30     1      0.718409      0.264834      0.319834
    31     1      0.707049      0.440478      0.484776
    32     1      0.457095      0.190484      0.485051
    33     1      0.407649      0.041075      0.651922
    34     1      0.656173      0.291526      0.652179
    35     1      0.820775      0.399846      0.821168
    36     1      0.569800      0.151479      0.821505
    37     1      0.545411      0.490636      0.986531
    38     1      0.794947      0.740008      0.987377
    39     1      0.776965      0.911115      0.152206
    40     1      0.525956      0.661478      0.152249
    41     1      0.471895      0.514824      0.320256
    42     1      0.719094      0.764257      0.320381
    43     1      0.707887      0.940802      0.485202
    44     1      0.459058      0.690584      0.484572
    45     1      0.403805      0.541004      0.652961
    46     1      0.659312      0.791683      0.651823
    47     1      0.820863      0.901068      0.821823
    48     1      0.571034      0.650795      0.821548
ITEM: TIMESTEP
64450
ITEM: NUMBER OF ATOMS
48
ITEM: BOX BOUNDS xy xz yz  pp  pp  pp
     -0.003081      2.203080      0.000000
     -0.005336      3.815850      0.000000
     -0.007546      5.396420      0.000000
ITEM: ATOMS id type xs ys zs
     1     1      0.045195      0.989884      0.987205
     2     1      0.296048      0.240573      0.986842
     3     1      0.276927      0.411806      0.152183
     4     1      0.029499      0.161485      0.151757
     5     1      0.970020      0.014691      0.319930
     6     1      0.219477      0.264311      0.319686
     7     1      0.208519      0.439899      0.485122
     8     1      0.957507      0.190049      0.484373
     9     1      0.907594      0.040571      0.652672
    10     1      0.156047      0.290340      0.652849
    11     1      0.319094      0.401352      0.822104
    12     1      0.069992      0.150612      0.822637
    13     1      0.044680      0.490452      0.987197
    14     1      0.295811      0.740444      0.987026
    15     1      0.278054      0.911848      0.152074
    16     1      0.026830      0.661649      0.151502
    17     1      0.969680      0.514603      0.319883
    18     1      0.220699      0.764846      0.320014
    19     1      0.206735      0.940386      0.485153
    20     1      0.959350      0.690620      0.484808
    21     1      0.905367      0.540708      0.652447
    22     1      0.158990      0.790454      0.652593
    23     1      0.320981      0.900832      0.821875
    24     1      0.069705      0.650844      0.822059
    25     1      0.546297      0.989814      0.987231
    26     1      0.794607      0.240822      0.987441
    27     1      0.777247      0.411793      0.151599
    28     1      0.527984      0.161893      0.152004
    29     1      0.471858      0.015404      0.319711
    30     1      0.719941      0.265068      0.319940
    31     1      0.707424      0.440115      0.484699
    32     1      0.456211      0.190591      0.484911
    33     1      0.408703      0.041131      0.651785
    34     1      0.656818      0.290660      0.652381
    35     1      0.819612      0.400384      0.821072
    36     1      0.569507      0.151156      0.822085
    37     1      0.544954      0.491185      0.986961
    38     1      0.794491      0.739977      0.987632
    39     1      0.776811      0.911670      0.152188
    40     1      0.528098      0.661521      0.151960
    41     1      0.470573      0.513826      0.320085
    42     1      0.720218      0.765092      0.320371
    43     1      0.706766      0.940668      0.485093
    44     1      0.458061      0.690242      0.484296
    45     1      0.406243      0.540740      0.652680
    46     1      0.659083      0.790723      0.651765
    47     1      0.819974      0.901177      0.822043
    48     1      0.571471      0.651180      0.821551
ITEM: TIMESTEP
64500
ITEM: NUMBER OF ATOMS
48
ITEM: BOX BOUNDS xy xz yz  pp  pp  pp
     -0.003081      2.203080      0.000000
     -0.005336      3.815850      0.000000
     -0.007546      5.396420      0.000000
ITEM: ATOMS id type xs ys zs
     1     1      0.045149      0.989615      0.987365
     2     1      0.296271      0.240211      0.987086
     3     1      0.278300      0.411279      0.151651
     4     1      0.028407      0.162025      0.151637
     5     1      0.971329      0.015234      0.319452
     6     1      0.218465      0.264414      0.319898
     7     1      0.207179      0.439712      0.485167
     8     1      0.957185      0.189578      0.485044
     9     1      0.907796      0.039976      0.652594
    10     1      0.155510      0.290206      0.652429
    11     1      0.319566      0.401583      0.822349
    12     1      0.070368      0.151670      0.822599
    13     1      0.043129      0.490516      0.986677
    14     1      0.295643      0.740225      0.987372
    15     1      0.278412      0.911726      0.151706
    16     1      0.026035      0.661593      0.152011
    17     1      0.971066      0.514958      0.319740