ITEM: TIMESTEP
64001
ITEM: NUMBER OF ATOMS
48
ITEM: BOX BOUNDS xy xz yz  pp  pp  pp
     -0.003081      2.203080      0.000000
     -0.005336      3.815850      0.000000
     -0.007546      5.396420      0.000000
ITEM: ATOMS id type xs ys zs
     1     1      0.048599      0.988162      0.986961
     2     1      0.292936      0.237228      0.986107
     3     1      0.272572      0.408719      0.151637
     4     1      0.022325      0.159349      0.150296
     5     1      0.967055      0.015546      0.319089
     6     1      0.220397      0.262939      0.318786
     7     1      0.212229      0.443212      0.485154
     8     1      0.959215      0.195709      0.485195
     9     1      0.907931      0.044493      0.651819
    10     1      0.153926      0.294410      0.653655
    11     1      0.322775      0.400963      0.822718
    12     1      0.073929      0.149448      0.821837
    13     1      0.038870      0.487048      0.987077
    14     1      0.292355      0.735802      0.986925
    15     1      0.278050      0.908864      0.151294
    16     1      0.026162      0.658025      0.152739
    17     1      0.972322      0.513503      0.320623
    18     1      0.219318      0.764558      0.319819
    19     1      0.209012      0.943931      0.484376
    20     1      0.963554      0.692996      0.485614
    21     1      0.904546      0.544271      0.652560
    22     1      0.157779      0.794940      0.653333
    23     1      0.329383      0.899305      0.821702
    24     1      0.073657      0.649195      0.821713
    25     1      0.549014      0.987192      0.986208
    26     1      0.791464      0.237988      0.985473
    27     1      0.772726      0.409876      0.153258
    28     1      0.523819      0.159569      0.151332
    29     1      0.467902      0.016054      0.319791
    30     1      0.720569      0.264936      0.320270
    31     1      0.710034      0.444885      0.484551
    32     1      0.459210      0.193438      0.484201
    33     1      0.409308      0.042803      0.650920
    34     1      0.652017      0.295047      0.651133
    35     1      0.823811      0.399296      0.820466
    36     1      0.572241      0.150203      0.820129
    37     1      0.541731      0.488410      0.987964
    38     1      0.794060      0.737849      0.988951
    39     1      0.776818      0.908942      0.152427
    40     1      0.525471      0.659989      0.152910
    41     1      0.469648      0.513615      0.319544
    42     1      0.720793      0.764128      0.320521
    43     1      0.712378      0.943455      0.483887
    44     1      0.462323      0.694623      0.485179
    45     1      0.404719      0.544514      0.653195
    46     1      0.658764      0.793797      0.653091
    47     1      0.828802      0.899084      0.822406
    48     1      0.575684      0.649244      0.822785
ITEM: TIMESTEP
64050
ITEM: NUMBER OF ATOMS
48
ITEM: BOX BOUNDS xy xz yz  pp  pp  pp
     -0.003081      2.203080      0.000000
     -0.005336      3.815850      0.000000
     -0.007546      5.396420      0.000000
ITEM: ATOMS id type xs ys zs
     1     1      0.046573      0.988970      0.986231
     2     1      0.294668      0.238519      0.985982
     3     1      0.274494      0.409456      0.151437
     4     1      0.022738      0.159314      0.150572
     5     1      0.968931      0.016210      0.319174
     6     1      0.220435      0.263659      0.318476
     7     1      0.212583      0.443248      0.485169
     8     1      0.959262      0.195284      0.484997
     9     1      0.907218      0.043543      0.651700
    10     1      0.153712      0.294352      0.653575
    11     1      0.323637      0.400503      0.822746
    12     1      0.072486      0.149167      0.821126
    13     1      0.041041      0.487291      0.986606
    14     1      0.291976      0.737521      0.987299
    15     1      0.278520      0.909768      0.151387
    16     1      0.026440      0.659236      0.152562
    17     1      0.972289      0.513273      0.320221
    18     1      0.220101      0.764862      0.319740
    19     1      0.208902      0.943857      0.484565
    20     1      0.962977      0.692323      0.485297
    21     1      0.904716      0.543775      0.653026
    22     1      0.156404      0.793651      0.653251
    23     1      0.327480      0.899522      0.821646
    24     1      0.074161      0.649815      0.822260
    25     1      0.549414      0.987532      0.986154
    26     1      0.793134      0.238041      0.985725
    27     1      0.773884      0.409750      0.152621
    28     1      0.523690      0.159425      0.151216
    29     1      0.469689      0.015134      0.319688
    30     1      0.719806      0.265337      0.320137
    31     1      0.709727      0.444049      0.484615
    32     1      0.459122      0.193838      0.484051
    33     1      0.408618      0.042786      0.650749
    34     1      0.653689      0.295030      0.651264
    35     1      0.824086      0.399351      0.820506
    36     1      0.572633      0.150780      0.820427
    37     1      0.542176      0.488327      0.987640
    38     1      0.794081      0.737770      0.988174
    39     1      0.778009      0.910074      0.151979
    40     1      0.525424      0.659847      0.152682
    41     1      0.471208      0.513578      0.319646
    42     1      0.722189      0.764770      0.319972
    43     1      0.710690      0.942391      0.483907
    44     1      0.461784      0.693401      0.484923
    45     1      0.404663      0.544512      0.653266
    46     1      0.657511      0.793345      0.653004
    47     1      0.827152      0.899509      0.822060
    48     1      0.575540      0.649687      0.822486
ITEM: TIMESTEP
64100
ITEM: NUMBER OF ATOMS
48
ITEM: BOX BOUNDS xy xz yz  pp  pp  pp
     -0.003081      2.203080      0.000000
     -0.005336      3.815850      0.000000
     -0.007546      5.396420      0.000000
ITEM: ATOMS id type xs ys zs
     1     1      0.046727      0.988572      0.986419
     2     1      0.293169      0.238398      0.986094
     3     1      0.275317      0.410383      0.151428
     4     1      0.024970      0.160352      0.151041
     5     1      0.968935      0.015951      0.319399
     6     1      0.220462      0.263681      0.319613
     7     1      0.211862      0.443128      0.485775
     8     1      0.958934      0.194640      0.509744
     9     1      0.906919      0.042148      0.653628
    10     1      0.156800      0.294179      0.654900
    11     1      0.322460      0.400736      0.822473
    12     1      0.072538      0.149618      0.821243
    13     1      0.040414      0.487057      0.986160
    14     1      0.293696      0.738247      0.987713
    15     1      0.277247      0.909553      0.152084
    16     1      0.026574      0.659896      0.152737
    17     1      0.971663      0.514464      0.320443
    18     1      0.221542      0.765177      0.319918
    19     1      0.207124      0.943057      0.484652
    20     1      0.961315      0.691766      0.484869
    21     1      0.903472      0.544484      0.651419
    22     1      0.155979      0.793157      0.652574
    23     1      0.326833      0.898998      0.821511
    24     1      0.072554      0.649771      0.822147
    25     1      0.547094      0.988033      0.986591
    26     1      0.794321      0.238987      0.985741
    27     1      0.773955      0.410984      0.152172
    28     1      0.524582      0.160118      0.151373
    29     1      0.469324      0.015028      0.319636
    30     1      0.720842      0.264060      0.319614
    31     1      0.709514      0.443015      0.484565
    32     1      0.459370      0.193094      0.484042
    33     1      0.408062      0.042531      0.651359
    34     1      0.651339      0.292548      0.649992
    35     1      0.825572      0.399289      0.796492
    36     1      0.571931      0.151343      0.820908
    37     1      0.542966      0.488055      0.987299
    38     1      0.793419      0.737540      0.987460
    39     1      0.778274      0.910123      0.151743
    40     1      0.525343      0.660456      0.152637
    41     1      0.470549      0.513756      0.319425
    42     1      0.723336      0.764974      0.319631
    43     1      0.709556      0.942623      0.484154
    44     1      0.461209      0.693436      0.485390
    45     1      0.403182      0.543330      0.653844
    46     1      0.657418      0.792549      0.653076
    47     1      0.826494      0.899233      0.821997
    48     1      0.573304      0.649113      0.822891
ITEM: TIMESTEP
64150
ITEM: NUMBER OF ATOMS
48
ITEM: BOX BOUNDS xy xz yz  pp  pp  pp
     -0.003081      2.203080      0.000000
     -0.005336      3.815850      0.000000
     -0.007546      5.396420      0.000000
ITEM: ATOMS id type xs ys zs
     1     1      0.047979      0.988760      0.986443
     2     1      0.294727      0.238723      0.987307
     3     1      0.274282      0.411170      0.151686
     4     1      0.026839      0.160533      0.150732
     5     1      0.969943      0.015930      0.319852
     6     1      0.218111      0.264070      0.320680
     7     1      0.209508      0.442052      0.485909
     8     1      0.955467      0.194040      0.496925
     9     1      0.904973      0.039233      0.655511
    10     1      0.159455      0.295264      0.656595
    11     1      0.320763      0.401033      0.823311
    12     1      0.071310      0.149821      0.821750
    13     1      0.041894      0.487185      0.985582
    14     1      0.352599      0.704250      0.962358
    15     1      0.276144      0.909910      0.151979
    16     1      0.027805      0.659908      0.152712
    17     1      0.971221      0.514775      0.320298
    18     1      0.224253      0.765230      0.320273
    19     1      0.207059      0.943192      0.484561
    20     1      0.962526      0.692414      0.483952
    21     1      0.907047      0.546593      0.649202
    22     1      0.156985      0.793199      0.652649
    23     1      0.325143      0.899824      0.821425
    24     1      0.072034      0.649276      0.820887
    25     1      0.548412      0.988301      0.986231
    26     1      0.793774      0.240638      0.984845
    27     1      0.775283      0.410783      0.152671
    28     1      0.527358      0.160237      0.152079
    29     1      0.470053      0.015291      0.319855
    30     1      0.722945      0.263566      0.321198
    31     1      0.709773      0.442891      0.484019
    32     1      0.456595      0.191609      0.483940
    33     1      0.405538      0.042537      0.651932
    34     1      0.650695      0.290512      0.648362
    35     1      0.766054      0.433982      0.835680
    36     1      0.572063      0.151900      0.820854
    37     1      0.544911      0.485615      0.989019
    38     1      0.797640      0.739790      0.987678
    39     1      0.778423      0.910163      0.151623
    40     1      0.525915      0.660228      0.152553
    41     1      0.470585      0.514670      0.319747
    42     1      0.723280      0.764400      0.319524
    43     1      0.709142      0.942399      0.484077
    44     1      0.462228      0.692661      0.485615
    45     1      0.406028      0.542746      0.653513
    46     1      0.657319      0.792232      0.653301
    47     1      0.824651      0.900027      0.822784
    48     1      0.575387      0.653254      0.818968
ITEM: TIMESTEP
64200
ITEM: NUMBER OF ATOMS
48
ITEM: BOX BOUNDS xy xz yz  pp  pp  pp
     -0.003081      2.203080      0.000000
     -0.005336      3.815850      0.000000
     -0.007546      5.396420      0.000000
ITEM: ATOMS id type xs ys zs
     1     1      0.049784      0.987853      0.986017
     2     1      0.294948      0.238585      0.986843
     3     1      0.275045      0.411418      0.152645
     4     1      0.026969      0.160539      0.150922
     5     1      0.970188      0.016127      0.319648
     6     1      0.218033      0.263716      0.321020
     7     1      0.207652      0.441355      0.485501
     8     1      0.954129      0.193483      0.492040
     9     1      0.903799      0.039792      0.654846
    10     1      0.158644      0.293420      0.655791
    11     1      0.307475      0.403181      0.823646
    12     1      0.068824      0.151500      0.822806
    13     1      0.043906      0.487478      0.987367
    14     1      0.323519      0.721903      0.974533
    15     1      0.277917      0.910019      0.150953
    16     1      0.029077      0.660584      0.151917
    17     1      0.970872      0.515952      0.320491
    18     1      0.223273      0.764708      0.319978
    19     1      0.206463      0.942799      0.484508
    20     1      0.961810      0.692827      0.483682
    21     1      0.905147      0.543457      0.650835
    22     1      0.157865      0.792764      0.651369
    23     1      0.322017      0.901665      0.821315
    24     1      0.069999      0.650016      0.818771
    25     1      0.548154      0.988749      0.986611
    26     1      0.794793      0.238913      0.985812
    27     1      0.776163      0.410510      0.154065
    28     1      0.528400      0.160881      0.152093
    29     1      0.469853      0.014651      0.319709
    30     1      0.723703      0.263664      0.321494
    31     1      0.708773      0.442517      0.484448
    32     1      0.456024      0.191322      0.484053
    33     1      0.405995      0.042111      0.651358
    34     1      0.655853      0.292484      0.650701
    35     1      0.791501      0.415137      0.827558
    36     1      0.571593      0.152792      0.820491
    37     1      0.545664      0.482487      0.991107
    38     1      0.807343      0.738153      0.986634
    39     1      0.779437      0.910695      0.151677
    40     1      0.526090      0.661686      0.151478
    41     1      0.470847      0.514838      0.319540
    42     1      0.721688      0.765047      0.319321
    43     1      0.708517      0.942611      0.484585
    44     1      0.460872      0.692433      0.485152
    45     1      0.406741      0.541513      0.652596
    46     1      0.657507      0.793490      0.651358
    47     1      0.823044      0.901258      0.822808
    48     1      0.575388      0.658072      0.816301
ITEM: TIMESTEP
64250
ITEM: NUMBER OF ATOMS
48
ITEM: BOX BOUNDS xy xz yz  pp  pp  pp
     -0.003081      2.203080      0.000000
     -0.005336      3.815850      0.000000
     -0.007546      5.396420      0.000000
ITEM: ATOMS id type xs ys zs
     1     1      0.049284      0.987969      0.987177
     2     1      0.295458      0.238760      0.987086
     3     1      0.274764      0.411728      0.153406
     4     1      0.027329      0.160973      0.152073
     5     1      0.971101      0.014809      0.320202
     6     1      0.217997      0.263872      0.320914
     7     1      0.209359      0.440876      0.485559
     8     1      0.956706      0.191843      0.489641
     9     1      0.907346      0.040419      0.654555
    10     1      0.157340      0.293016      0.654877
    11     1      0.305591      0.404014      0.824099
    12     1      0.067908      0.152970      0.822777
    13     1      0.044298      0.488686      0.987701
    14     1      0.313487      0.729522      0.979330
    15     1      0.279219      0.909774      0.150940
    16     1      0.029323      0.660647      0.152150
    17     1      0.972596      0.515823      0.320718
    18     1      0.223471      0.765305      0.320167
    19     1      0.206590      0.942062      0.484998
    20     1      0.960508      0.691836      0.484262
    21     1      0.907120      0.541586      0.651120
    22     1      0.158663      0.791391      0.651390
    23     1      0.321187      0.902945      0.821017
    24     1      0.069393      0.651774      0.819377
    25     1      0.547978      0.988093      0.986274
    26     1      0.796014      0.238263      0.986466
    27     1      0.776769      0.410820      0.154822
    28     1      0.529469      0.160620      0.152071
    29     1      0.469810      0.014723      0.319892
    30     1      0.722874      0.263816      0.321774
    31     1      0.708618      0.442161      0.484775
    32     1      0.456138      0.191049      0.484927
    33     1      0.407449      0.042461      0.651635
    34     1      0.657265      0.291154      0.652199
    35     1      0.799612      0.409383      0.824476
    36     1      0.569506      0.153504      0.820943
    37     1      0.547334      0.485085      0.989687
    38     1      0.806865      0.738320      0.986227
    39     1      0.779361      0.910281      0.151658
    40     1      0.527104      0.661640      0.151307
    41     1      0.470916      0.515076      0.319611
    42     1      0.721810      0.765504      0.318960
    43     1      0.708864      0.942552      0.484419
    44     1      0.460025      0.692133      0.485271
    45     1      0.408391      0.541188      0.652155
    46     1      0.658684      0.793476      0.651324
    47     1      0.821738      0.901588      0.822628
    48     1      0.573317      0.655850      0.817906
ITEM: TIMESTEP
64300
ITEM: NUMBER OF ATOMS
48
ITEM: BOX BOUNDS xy xz yz  pp  pp  pp
     -0.003081      2.203080      0.000000
     -0.005336      3.815850      0.000000
     -0.007546      5.396420      0.000000
ITEM: ATOMS id type xs ys zs
     1     1      0.050108      0.988581      0.986786
     2     1      0.296518      0.239170      0.987954
     3     1      0.277658      0.411628      0.153150
     4     1      0.028315      0.161051      0.151973
     5     1      0.970936      0.013928      0.319357
     6     1      0.218967      0.264653      0.320882
     7     1      0.206033      0.440581      0.483528
     8     1      0.957108      0.192457      0.488499
     9     1      0.908394      0.040347      0.654007
    10     1      0.158893      0.291979      0.654433
    11     1      0.305323      0.402083      0.824333
    12     1      0.068341      0.153035      0.822810
    13     1      0.044620      0.488892      0.987931
    14     1      0.309935      0.734211      0.981541
    15     1      0.279658      0.909735      0.150503
    16     1      0.029890      0.660723      0.152467
    17     1      0.971015      0.515395      0.321281
    18     1      0.222571      0.765147      0.319040
    19     1      0.207346      0.942828      0.484968
    20     1      0.963064      0.695085      0.483998
    21     1      0.914643      0.544465      0.657976
    22     1      0.159109      0.792008      0.651359
    23     1      0.322747      0.901859      0.820676
    24     1      0.070335      0.653268      0.821511
    25     1      0.548996      0.988741      0.985992
    26     1      0.796124      0.238082      0.986982
    27     1      0.777481      0.410762      0.153917
    28     1      0.529742      0.160420      0.152580
    29     1      0.469649      0.014123      0.319461
    30     1      0.722291      0.265203      0.322261
    31     1      0.702118      0.463024      0.498326
    32     1      0.457679      0.192538      0.485338
    33     1      0.407572      0.041590      0.652224
    34     1      0.658871      0.290748      0.652769
    35     1      0.810267      0.399670      0.824130
    36     1      0.568340      0.152627      0.820972
    37     1      0.547025      0.487020      0.988291
    38     1      0.803233      0.738895      0.984996
    39     1      0.777853      0.910499      0.151264
    40     1      0.530047      0.661747      0.151332
    41     1      0.473457      0.515274      0.321408
    42     1      0.721021      0.765044      0.319333
    43     1      0.708984      0.943126      0.483768
    44     1      0.455120      0.697317      0.484740
    45     1      0.398236      0.537254      0.646037
    46     1      0.660580      0.793371      0.650340
    47     1      0.818846      0.900823      0.821888
    48     1      0.576437      0.635235      0.805495
ITEM: TIMESTEP
64350
ITEM: NUMBER OF ATOMS
48
ITEM: BOX BOUNDS xy xz yz  pp  pp  pp
     -0.003081      2.203080      0.000000
     -0.005336      3.815850      0.000000
     -0.007546      5.396420      0.000000
ITEM: ATOMS id type xs ys zs
     1     1      0.050210      0.988696      0.985958
     2     1      0.295919      0.240024      0.987465
     3     1      0.277201      0.411779      0.152413
     4     1      0.028652      0.160443      0.152457
     5     1      0.970874      0.014710      0.319667
     6     1      0.220315      0.264595      0.320855
     7     1      0.204169      0.440994      0.483577
     8     1      0.955814      0.192669      0.487417
     9     1      0.907808      0.039657      0.653921
    10     1      0.157880      0.291190      0.653937
    11     1      0.308230      0.402423      0.823370
    12     1      0.067157      0.151413      0.823369
    13     1      0.044751      0.488570      0.986959
    14     1      0.307246      0.736348      0.983496
    15     1      0.280316      0.909511      0.150560
    16     1      0.030554      0.660516      0.150831
    17     1      0.970442      0.516088      0.321279
    18     1      0.221381      0.764924      0.318596
    19     1      0.205492      0.943913      0.485174
    20     1      0.961674      0.694518      0.485006
    21     1      0.912117      0.543279      0.656938
    22     1      0.160559      0.791417      0.651917
    23     1      0.321243      0.901215      0.821117
    24     1      0.071030      0.653134      0.822458
    25     1      0.549103      0.988883      0.986380
    26     1      0.797015      0.237935      0.987747
    27     1      0.778120      0.409813      0.153580
    28     1      0.528584      0.161014      0.152693
    29     1      0.469090      0.014381      0.319947
    30     1      0.722253      0.265872      0.322667
    31     1      0.703868      0.454620      0.492988
    32     1      0.458226      0.192749      0.485648
    33     1      0.407459      0.041317      0.651702
    34     1      0.658222      0.290828      0.653399
    35     1      0.813072      0.398674      0.823745
    36     1      0.567756      0.151746      0.821768
    37     1      0.548574      0.488738      0.987046
    38     1      0.802008      0.738375      0.984518
    39     1      0.779303      0.910321      0.150895
    40     1      0.529489      0.660240      0.151407
    41     1      0.473688      0.514939      0.321327
    42     1      0.722117      0.764797      0.319493
    43     1      0.709347      0.943137      0.484445
    44     1      0.455193      0.697544      0.484617
    45     1      0.402210      0.538477      0.647473
    46     1      0.658953      0.792636      0.650350
    47     1      0.818161      0.899959      0.822129
    48     1      0.574229      0.642319      0.812685
ITEM: TIMESTEP
64400
ITEM: NUMBER OF ATOMS
48
ITEM: BOX BOUNDS xy xz yz  pp  pp  pp
     -0.003081      2.203080      0.000000
     -0.005336      3.815850      0.000000
     -0.007546      5.396420      0.000000
ITEM: ATOMS id type xs ys zs
     1     1      0.049261      0.988928      0.986250
     2     1      0.296613      0.239750      0.987790
     3     1      0.278061      0.411863      0.152781
     4     1      0.028449      0.159681      0.152461
     5     1      0.971790      0.014106      0.319457
     6     1      0.220327      0.265466      0.320831
     7     1      0.204119      0.441144      0.483679
     8     1      0.956862      0.192615      0.487140
     9     1      0.908062      0.040088      0.653677
    10     1      0.158661      0.290653      0.653504
    11     1      0.311080      0.402753      0.823010
    12     1      0.066313      0.151089      0.823258
    13     1      0.045620      0.488919      0.987358
    14     1      0.305049      0.738558      0.984456
    15     1      0.280798      0.910110      0.150663
    16     1      0.031073      0.660810      0.150097
    17     1      0.968942      0.516234      0.320445
    18     1      0.221196      0.764500      0.318280
    19     1      0.206953      0.944124      0.485148
    20     1      0.959617      0.695056      0.485156
    21     1      0.910651      0.542766      0.655565
    22     1      0.161215      0.790735      0.651817
    23     1      0.320884      0.900764      0.821702
    24     1      0.070800      0.653090      0.822851
    25     1      0.549403      0.989905      0.986655
    26     1      0.796562      0.238795      0.988452
    27     1      0.778142      0.410427      0.153340
    28     1      0.528964      0.160526      0.152760
    29     1      0.469361      0.015261      0.320090
    30     1      0.721504      0.265365      0.322422
    31     1      0.702711      0.449326      0.489943
    32     1      0.457919      0.193434      0.485854
    33     1      0.407576      0.041078      0.652105
    34     1      0.659301      0.290838      0.653794
    35     1      0.814130      0.399750      0.823724
    36     1      0.566621      0.151900      0.822408
    37     1      0.547632      0.489069      0.986986
    38     1      0.799925      0.738318      0.984900
    39     1      0.779758      0.910062      0.151359
    40     1      0.530584      0.660645      0.151787
    41     1      0.473029      0.514923      0.321056
    42     1      0.721915      0.765128      0.320040
    43     1      0.708812      0.942902      0.484693
    44     1      0.454645      0.696546      0.484079
    45     1      0.405327      0.539218      0.648659
    46     1      0.659806      0.791700      0.650862
    47     1      0.816983      0.901250      0.822353
    48     1      0.573347      0.646416      0.815990
ITEM: TIMESTEP
64450
ITEM: NUMBER OF ATOMS
48
ITEM: BOX BOUNDS xy xz yz  pp  pp  pp
     -0.003081      2.203080      0.000000
     -0.005336      3.815850      0.000000
     -0.007546      5.396420      0.000000
ITEM: ATOMS id type xs ys zs
     1     1      0.048247      0.989578      0.986950
     2     1      0.298482      0.240435      0.987942
     3     1      0.280654      0.412099      0.152784
     4     1      0.029096      0.160135      0.152191
     5     1      0.971453      0.014907      0.319958
     6     1      0.219257      0.266024      0.320449
     7     1      0.203556      0.440992      0.483917
     8     1      0.957095      0.192815      0.487135
     9     1      0.908617      0.040579      0.653498
    10     1      0.159092      0.289979      0.653571
    11     1      0.312829      0.402436      0.822640
    12     1      0.067103      0.151680      0.823021
    13     1      0.046703      0.489616      0.987278
    14     1      0.300864      0.739118      0.985674
    15     1      0.281943      0.911156      0.150955
    16     1      0.029819      0.660372      0.149981
    17     1      0.969594      0.516295      0.320627
    18     1      0.221130      0.765064      0.318190
    19     1      0.206902      0.943281      0.484886
    20     1      0.959949      0.693816      0.485271
    21     1      0.912279      0.540880      0.654390
    22     1      0.163503      0.789898      0.652220
    23     1      0.319688      0.900906      0.821852
    24     1      0.069761      0.652569      0.822665
    25     1      0.547670      0.990162      0.986507
    26     1      0.796635      0.238988      0.988169
    27     1      0.780503      0.410510      0.152663
    28     1      0.527774      0.162132      0.152896
    29     1      0.471579      0.015078      0.319724
    30     1      0.720964      0.265229      0.321701
    31     1      0.704282      0.446405      0.488098
    32     1      0.457936      0.193231      0.485775
    33     1      0.408736      0.040983      0.652450
    34     1      0.658666      0.290105      0.653507
    35     1      0.815834      0.401370      0.823966
    36     1      0.565595      0.151771      0.822851
    37     1      0.547203      0.489537      0.987359
    38     1      0.799820      0.738905      0.984767
    39     1      0.781277      0.910302      0.151639
    40     1      0.531115      0.660867      0.151193
    41     1      0.472534      0.515439      0.320788
    42     1      0.720167      0.766220      0.320505
    43     1      0.707337      0.943083      0.485050
    44     1      0.455282      0.694900      0.484311
    45     1      0.407200      0.539258      0.649583
    46     1      0.660598      0.790066      0.651285
    47     1      0.816853      0.901981      0.822056
    48     1      0.572402      0.647800      0.818680
ITEM: TIMESTEP
64500
ITEM: NUMBER OF ATOMS
48
ITEM: BOX BOUNDS xy xz yz  pp  pp  pp
     -0.003081      2.203080      0.000000
     -0.005336      3.815850      0.000000
     -0.007546      5.396420      0.000000
ITEM: ATOMS id type xs ys zs
     1     1      0.048647      0.989395      0.986716
     2     1      0.298025      0.240739      0.987739
     3     1      0.279619      0.412686      0.152176
     4     1      0.028684      0.161204      0.152834
     5     1      0.970712      0.015575      0.319909
     6     1      0.219464      0.265471      0.320139
     7     1      0.203145      0.440778      0.484167
     8     1      0.955596      0.192379      0.486984
     9     1      0.908461      0.040216      0.653696
    10     1      0.159213      0.290377      0.653058
    11     1      0.314666      0.403311      0.822616
    12     1      0.065529      0.151977      0.822629
    13     1      0.047170      0.489506      0.987425
    14     1      0.300921      0.739839      0.986111
    15     1      0.282935      0.911848      0.151370
    16     1      0.030792      0.661080      0.149667
    17     1      0.968650      0.516104      0.320116