ITEM: TIMESTEP
64001
ITEM: NUMBER OF ATOMS
48
ITEM: BOX BOUNDS xy xz yz  pp  pp  pp
     -0.003081      2.203080      0.000000
     -0.005336      3.815850      0.000000
     -0.007546      5.396420      0.000000
ITEM: ATOMS id type xs ys zs
     1     1      0.048939      0.988215      0.986912
     2     1      0.293192      0.237250      0.986158
     3     1      0.272583      0.408569      0.151540
     4     1      0.022420      0.159272      0.150349
     5     1      0.967221      0.015395      0.319060
     6     1      0.220263      0.262905      0.318804
     7     1      0.211891      0.443211      0.485029
     8     1      0.959069      0.195914      0.485224
     9     1      0.907972      0.044477      0.651822
    10     1      0.153755      0.294673      0.653518
    11     1      0.322938      0.401103      0.822758
    12     1      0.073665      0.149489      0.821830
    13     1      0.038987      0.487103      0.987111
    14     1      0.292127      0.735893      0.986863
    15     1      0.277828      0.908672      0.151356
    16     1      0.026186      0.657950      0.152854
    17     1      0.972104      0.513507      0.320688
    18     1      0.219239      0.764631      0.319913
    19     1      0.208879      0.943929      0.484241
    20     1      0.963618      0.693001      0.485641
    21     1      0.904526      0.544251      0.652474
    22     1      0.157815      0.794727      0.653230
    23     1      0.329351      0.899228      0.821680
    24     1      0.073779      0.649314      0.821684
    25     1      0.549172      0.987234      0.986161
    26     1      0.791362      0.237989      0.985459
    27     1      0.772993      0.409972      0.153232
    28     1      0.524096      0.159661      0.151543
    29     1      0.467748      0.016042      0.319800
    30     1      0.720531      0.264999      0.320168
    31     1      0.709936      0.444753      0.484577
    32     1      0.458852      0.193355      0.484197
    33     1      0.409304      0.042767      0.650931
    34     1      0.651788      0.294793      0.651308
    35     1      0.823462      0.399238      0.820333
    36     1      0.572365      0.150169      0.820102
    37     1      0.541674      0.488444      0.988004
    38     1      0.793847      0.737809      0.988826
    39     1      0.776350      0.908967      0.152382
    40     1      0.525769      0.659944      0.152949
    41     1      0.469460      0.513655      0.319505
    42     1      0.720633      0.764139      0.320528
    43     1      0.712203      0.943378      0.484043
    44     1      0.462152      0.694512      0.485128
    45     1      0.404399      0.544610      0.653156
    46     1      0.658691      0.793806      0.653061
    47     1      0.828677      0.898846      0.822428
    48     1      0.575835      0.649261      0.822825
ITEM: TIMESTEP
64050
ITEM: NUMBER OF ATOMS
48
ITEM: BOX BOUNDS xy xz yz  pp  pp  pp
     -0.003081      2.203080      0.000000
     -0.005336      3.815850      0.000000
     -0.007546      5.396420      0.000000
ITEM: ATOMS id type xs ys zs
     1     1      0.047628      0.987840      0.986671
     2     1      0.293547      0.237713      0.986779
     3     1      0.273019      0.409487      0.151036
     4     1      0.023562      0.159678      0.150872
     5     1      0.968466      0.015565      0.319187
     6     1      0.221158      0.263986      0.319211
     7     1      0.212695      0.443603      0.485597
     8     1      0.957415      0.195356      0.484894
     9     1      0.908133      0.044368      0.652055
    10     1      0.153452      0.293912      0.653276
    11     1      0.322663      0.400631      0.822694
    12     1      0.074524      0.148922      0.821955
    13     1      0.040360      0.487588      0.986569
    14     1      0.293790      0.737053      0.986362
    15     1      0.277257      0.909378      0.151958
    16     1      0.026978      0.659095      0.152925
    17     1      0.971074      0.513760      0.320359
    18     1      0.218920      0.763991      0.320560
    19     1      0.199951      0.952083      0.483683
    20     1      0.951732      0.692742      0.484929
    21     1      0.904588      0.543637      0.652584
    22     1      0.145879      0.794629      0.652783
    23     1      0.382644      0.870883      0.799752
    24     1      0.074961      0.650144      0.821438
    25     1      0.545897      0.988192      0.985299
    26     1      0.792002      0.237940      0.986140
    27     1      0.773521      0.409711      0.152893
    28     1      0.524059      0.160383      0.151749
    29     1      0.468697      0.014907      0.320282
    30     1      0.719560      0.264783      0.319817
    31     1      0.710041      0.445179      0.485569
    32     1      0.459886      0.193336      0.484074
    33     1      0.408588      0.043536      0.650489
    34     1      0.652963      0.294736      0.651672
    35     1      0.824271      0.399288      0.820950
    36     1      0.573644      0.149488      0.819995
    37     1      0.541459      0.489003      0.987892
    38     1      0.794047      0.738618      0.988596
    39     1      0.776505      0.909276      0.152413
    40     1      0.526346      0.659695      0.152368
    41     1      0.469120      0.514046      0.319284
    42     1      0.719722      0.764990      0.320917
    43     1      0.709719      0.943622      0.484705
    44     1      0.409298      0.722616      0.507082
    45     1      0.404479      0.543633      0.654139
    46     1      0.665512      0.793373      0.653447
    47     1      0.836414      0.899442      0.822417
    48     1      0.583058      0.641264      0.823496
ITEM: TIMESTEP
64100
ITEM: NUMBER OF ATOMS
48
ITEM: BOX BOUNDS xy xz yz  pp  pp  pp
     -0.003081      2.203080      0.000000
     -0.005336      3.815850      0.000000
     -0.007546      5.396420      0.000000
ITEM: ATOMS id type xs ys zs
     1     1      0.048080      0.988675      0.986997
     2     1      0.293591      0.238867      0.986906
     3     1      0.275208      0.409984      0.151063
     4     1      0.023638      0.159459      0.150871
     5     1      0.967578      0.015521      0.319299
     6     1      0.220653      0.263761      0.319353
     7     1      0.211661      0.444364      0.485462
     8     1      0.958198      0.196623      0.485525
     9     1      0.907861      0.044462      0.652238
    10     1      0.155339      0.293502      0.653173
    11     1      0.325374      0.399980      0.822495
    12     1      0.076889      0.148317      0.821989
    13     1      0.040768      0.488002      0.986351
    14     1      0.295401      0.739033      0.986354
    15     1      0.277467      0.909475      0.151760
    16     1      0.027906      0.660198      0.152806
    17     1      0.970726      0.514172      0.320857
    18     1      0.218596      0.765047      0.321816
    19     1      0.197243      0.952988      0.484138
    20     1      0.886106      0.694497      0.506224
    21     1      0.907807      0.538171      0.655286
    22     1      0.143921      0.794120      0.652012
    23     1      0.368874      0.881190      0.808642
    24     1      0.088259      0.649182      0.822140
    25     1      0.545237      0.987639      0.984058
    26     1      0.791659      0.238136      0.986121
    27     1      0.774708      0.409511      0.152198
    28     1      0.524415      0.160096      0.151716
    29     1      0.468300      0.014989      0.319586
    30     1      0.719551      0.264261      0.319636
    31     1      0.706940      0.444068      0.485383
    32     1      0.459713      0.193992      0.483756
    33     1      0.408268      0.043431      0.649486
    34     1      0.653601      0.293912      0.651786
    35     1      0.827089      0.395715      0.821147
    36     1      0.572917      0.149161      0.820354
    37     1      0.542093      0.489644      0.987566
    38     1      0.794214      0.738729      0.987292
    39     1      0.774291      0.909903      0.152057
    40     1      0.526623      0.659608      0.152704
    41     1      0.469500      0.514056      0.320228
    42     1      0.717719      0.765230      0.321705
    43     1      0.706548      0.945822      0.485485
    44     1      0.418578      0.711746      0.497547
    45     1      0.402126      0.541759      0.653493
    46     1      0.660354      0.798157      0.654317
    47     1      0.844306      0.899368      0.821879
    48     1      0.639253      0.638968      0.800714
ITEM: TIMESTEP
64150
ITEM: NUMBER OF ATOMS
48
ITEM: BOX BOUNDS xy xz yz  pp  pp  pp
     -0.003081      2.203080      0.000000
     -0.005336      3.815850      0.000000
     -0.007546      5.396420      0.000000
ITEM: ATOMS id type xs ys zs
     1     1      0.048688      0.989848      0.987666
     2     1      0.293229      0.239679      0.986366
     3     1      0.276062      0.410837      0.151375
     4     1      0.024682      0.160819      0.150532
     5     1      0.968598      0.015459      0.318630
     6     1      0.219347      0.264627      0.319452
     7     1      0.206966      0.444894      0.485459
     8     1      0.956841      0.196761      0.485923
     9     1      0.907223      0.045286      0.652338
    10     1      0.155616      0.291870      0.653101
    11     1      0.327006      0.398832      0.821970
    12     1      0.078294      0.147828      0.822041
    13     1      0.041747      0.489060      0.987200
    14     1      0.295607      0.740091      0.987088
    15     1      0.276725      0.909403      0.152336
    16     1      0.027911      0.659577      0.152668
    17     1      0.968637      0.514581      0.320813
    18     1      0.215894      0.764909      0.322672
    19     1      0.196658      0.950266      0.484771
    20     1      0.904578      0.694920      0.497289
    21     1      0.908196      0.537561      0.656199
    22     1      0.147883      0.794129      0.652303
    23     1      0.363558      0.885026      0.813064
    24     1      0.099932      0.647379      0.821473
    25     1      0.545649      0.987551      0.984742
    26     1      0.790973      0.238777      0.986732
    27     1      0.774349      0.410390      0.151723
    28     1      0.525363      0.159844      0.152079
    29     1      0.468951      0.015489      0.320017
    30     1      0.721318      0.264155      0.319599
    31     1      0.703748      0.443476      0.485041
    32     1      0.457632      0.195234      0.483799
    33     1      0.407759      0.043559      0.649220
    34     1      0.654543      0.293091      0.652109
    35     1      0.828964      0.392151      0.822197
    36     1      0.575336      0.147035      0.820339
    37     1      0.543082      0.490285      0.986392
    38     1      0.795144      0.738393      0.985794
    39     1      0.775028      0.909743      0.151623
    40     1      0.527623      0.659943      0.152550
    41     1      0.468682      0.514673      0.320113
    42     1      0.717023      0.764944      0.322771
    43     1      0.701871      0.947992      0.485371
    44     1      0.417501      0.705456      0.494235
    45     1      0.402690      0.541594      0.652848
    46     1      0.655219      0.799809      0.653846
    47     1      0.848266      0.898182      0.821782
    48     1      0.621919      0.639903      0.810048
ITEM: TIMESTEP
64200
ITEM: NUMBER OF ATOMS
48
ITEM: BOX BOUNDS xy xz yz  pp  pp  pp
     -0.003081      2.203080      0.000000
     -0.005336      3.815850      0.000000
     -0.007546      5.396420      0.000000
ITEM: ATOMS id type xs ys zs
     1     1      0.047477      0.990350      0.987910
     2     1      0.293764      0.240248      0.986796
     3     1      0.275671      0.411450      0.151726
     4     1      0.025674      0.161292      0.151529
     5     1      0.967529      0.016018      0.318945
     6     1      0.220020      0.264390      0.319153
     7     1      0.204322      0.445856      0.485409
     8     1      0.956978      0.196598      0.485282
     9     1      0.903445      0.045206      0.651940
    10     1      0.155560      0.291959      0.652961
    11     1      0.329668      0.398782      0.821703
    12     1      0.079920      0.146721      0.821707
    13     1      0.043088      0.488934      0.986766
    14     1      0.296303      0.740454      0.987242
    15     1      0.275148      0.910058      0.152857
    16     1      0.025968      0.660573      0.152465
    17     1      0.969348      0.515442      0.320757
    18     1      0.214648      0.765353      0.322358
    19     1      0.196492      0.948939      0.485477
    20     1      0.915672      0.695128      0.493866
    21     1      0.906367      0.537926      0.656175
    22     1      0.147709      0.793751      0.652231
    23     1      0.358884      0.887984      0.815588
    24     1      0.100708      0.646697      0.820882
    25     1      0.546694      0.988124      0.985067
    26     1      0.792094      0.238085      0.987178
    27     1      0.774229      0.410986      0.152383
    28     1      0.524711      0.160186      0.152277
    29     1      0.467538      0.015275      0.320239
    30     1      0.722408      0.264900      0.319661
    31     1      0.701690      0.443492      0.485641
    32     1      0.457195      0.195683      0.483667
    33     1      0.406781      0.043060      0.649856
    34     1      0.654513      0.291625      0.652207
    35     1      0.831397      0.392608      0.822337
    36     1      0.575543      0.146784      0.820511
    37     1      0.544271      0.490921      0.986393
    38     1      0.795709      0.738784      0.985368
    39     1      0.775484      0.910481      0.151564
    40     1      0.528395      0.660834      0.152220
    41     1      0.469078      0.515455      0.320449
    42     1      0.714133      0.765796      0.322415
    43     1      0.700384      0.947815      0.485484
    44     1      0.422277      0.702034      0.492198
    45     1      0.403074      0.541490      0.653031
    46     1      0.653408      0.797271      0.653984
    47     1      0.851445      0.896102      0.820728
    48     1      0.613418      0.641009      0.814272
ITEM: TIMESTEP
64250
ITEM: NUMBER OF ATOMS
48
ITEM: BOX BOUNDS xy xz yz  pp  pp  pp
     -0.003081      2.203080      0.000000
     -0.005336      3.815850      0.000000
     -0.007546      5.396420      0.000000
ITEM: ATOMS id type xs ys zs
     1     1      0.047633      0.990119      0.988142
     2     1      0.293562      0.239822      0.986402
     3     1      0.276060      0.411967      0.151945
     4     1      0.025981      0.161781      0.151809
     5     1      0.966410      0.015509      0.318727
     6     1      0.219005      0.264644      0.319260
     7     1      0.202786      0.445375      0.485814
     8     1      0.955719      0.196952      0.484552
     9     1      0.903817      0.044060      0.652068
    10     1      0.156554      0.291895      0.652624
    11     1      0.331665      0.397634      0.821664
    12     1      0.081727      0.146390      0.821281
    13     1      0.044159      0.488622      0.987378
    14     1      0.297186      0.740688      0.987172
    15     1      0.274724      0.910478      0.152793
    16     1      0.026372      0.660334      0.152209
    17     1      0.968899      0.516433      0.321463
    18     1      0.213298      0.766291      0.322027
    19     1      0.196477      0.947589      0.485434
    20     1      0.923568      0.694278      0.491569
    21     1      0.904962      0.539342      0.655734
    22     1      0.149319      0.792965      0.652178
    23     1      0.357188      0.889969      0.816698
    24     1      0.101058      0.645704      0.820454
    25     1      0.548047      0.988325      0.985100
    26     1      0.791235      0.238805      0.987020
    27     1      0.776123      0.410931      0.151786
    28     1      0.524088      0.160361      0.151647
    29     1      0.467391      0.015197      0.319879
    30     1      0.720029      0.265636      0.319159
    31     1      0.701313      0.444145      0.486351
    32     1      0.456518      0.195623      0.484019
    33     1      0.405280      0.043313      0.650605
    34     1      0.654378      0.291612      0.652856
    35     1      0.834069      0.392013      0.821858
    36     1      0.577427      0.146517      0.820865
    37     1      0.543293      0.490773      0.986239
    38     1      0.795939      0.739820      0.985976
    39     1      0.774971      0.909918      0.151711
    40     1      0.526743      0.660060      0.152180
    41     1      0.468121      0.515625      0.321442
    42     1      0.713042      0.765929      0.322304
    43     1      0.699409      0.947341      0.485791
    44     1      0.427794      0.700245      0.489933
    45     1      0.402549      0.542001      0.652794
    46     1      0.650835      0.795606      0.653268
    47     1      0.851537      0.896046      0.820477
    48     1      0.608602      0.641557      0.816252
ITEM: TIMESTEP
64300
ITEM: NUMBER OF ATOMS
48
ITEM: BOX BOUNDS xy xz yz  pp  pp  pp
     -0.003081      2.203080      0.000000
     -0.005336      3.815850      0.000000
     -0.007546      5.396420      0.000000
ITEM: ATOMS id type xs ys zs
     1     1      0.046800      0.989863      0.987712
     2     1      0.294578      0.240925      0.986497
     3     1      0.277162      0.411917      0.152414
     4     1      0.026392      0.161146      0.151999
     5     1      0.966231      0.015870      0.319149
     6     1      0.218294      0.265807      0.319621
     7     1      0.199318      0.445738      0.486729
     8     1      0.954259      0.195576      0.484437
     9     1      0.903908      0.043458      0.652114
    10     1      0.156151      0.290602      0.652860
    11     1      0.332920      0.395951      0.821074
    12     1      0.082482      0.146057      0.821302
    13     1      0.044163      0.489655      0.987114
    14     1      0.297128      0.741503      0.986927
    15     1      0.275807      0.911044      0.152936
    16     1      0.026830      0.661184      0.152180
    17     1      0.967357      0.516338      0.321272
    18     1      0.210467      0.766604      0.321692
    19     1      0.195919      0.947552      0.485571
    20     1      0.928949      0.694539      0.489554
    21     1      0.904480      0.540156      0.655541
    22     1      0.148420      0.792450      0.652467
    23     1      0.352681      0.890990      0.817509
    24     1      0.100858      0.645236      0.821110
    25     1      0.547662      0.989389      0.986334
    26     1      0.792670      0.238800      0.987564
    27     1      0.777781      0.411236      0.151448
    28     1      0.524943      0.160386      0.151335
    29     1      0.467087      0.016130      0.320132
    30     1      0.720026      0.265991      0.319109
    31     1      0.699022      0.443375      0.486205
    32     1      0.455172      0.195179      0.483839
    33     1      0.403835      0.042959      0.651044
    34     1      0.654465      0.291248      0.652927
    35     1      0.835468      0.392597      0.822084
    36     1      0.579500      0.146123      0.820866
    37     1      0.544291      0.491238      0.985976
    38     1      0.797939      0.739244      0.986292
    39     1      0.773832      0.910353      0.151419
    40     1      0.527053      0.661182      0.152053
    41     1      0.465993      0.516862      0.321556
    42     1      0.712129      0.766193      0.321526
    43     1      0.697212      0.946618      0.485511
    44     1      0.431714      0.698876      0.488705
    45     1      0.403980      0.542010      0.652683
    46     1      0.651170      0.795016      0.653242
    47     1      0.850579      0.895049      0.820016
    48     1      0.604775      0.641655      0.817730
ITEM: TIMESTEP
64350
ITEM: NUMBER OF ATOMS
48
ITEM: BOX BOUNDS xy xz yz  pp  pp  pp
     -0.003081      2.203080      0.000000
     -0.005336      3.815850      0.000000
     -0.007546      5.396420      0.000000
ITEM: ATOMS id type xs ys zs
     1     1      0.054003      0.991390      0.988259
     2     1      0.294123      0.241048      0.986564
     3     1      0.277955      0.411928      0.152326
     4     1      0.027548      0.161611      0.151529
     5     1      0.965148      0.016168      0.319312
     6     1      0.217345      0.266163      0.319732
     7     1      0.198568      0.444567      0.486249
     8     1      0.890477      0.195745      0.510302
     9     1      0.903914      0.040938      0.653399
    10     1      0.157093      0.290879      0.652979
    11     1      0.334049      0.395438      0.820717
    12     1      0.086673      0.145658      0.821898
    13     1      0.044932      0.489947      0.986926
    14     1      0.296681      0.741173      0.987156
    15     1      0.275197      0.911210      0.152957
    16     1      0.027795      0.661001      0.152106
    17     1      0.965541      0.515914      0.320498
    18     1      0.210079      0.766230      0.321898
    19     1      0.194271      0.946755      0.485662
    20     1      0.932159      0.694207      0.488816
    21     1      0.905116      0.539828      0.655519
    22     1      0.151195      0.792552      0.651796
    23     1      0.350988      0.892828      0.818171
    24     1      0.041473      0.677403      0.820964
    25     1      0.604637      0.957256      0.984957
    26     1      0.791855      0.238553      0.987494
    27     1      0.777704      0.411481      0.150780
    28     1      0.526197      0.160970      0.151571
    29     1      0.467515      0.016053      0.320367
    30     1      0.719807      0.265989      0.319122
    31     1      0.698967      0.443832      0.486696
    32     1      0.448472      0.194989      0.483906
    33     1      0.401681      0.042894      0.651200
    34     1      0.652804      0.293388      0.651614
    35     1      0.835389      0.394001      0.822379
    36     1      0.644824      0.144566      0.795158
    37     1      0.544828      0.491159      0.986051
    38     1      0.802278      0.732560      0.986460
    39     1      0.777791      0.909861      0.153176
    40     1      0.526590      0.661223      0.151874
    41     1      0.467205      0.517175      0.320760
    42     1      0.711278      0.766612      0.321390
    43     1      0.694650      0.945038      0.485660
    44     1      0.434554      0.696887      0.488274
    45     1      0.403512      0.541338      0.652641
    46     1      0.651676      0.793692      0.653676
    47     1      0.843279      0.901149      0.819853
    48     1      0.595863      0.641617      0.818004
ITEM: TIMESTEP
64400
ITEM: NUMBER OF ATOMS
48
ITEM: BOX BOUNDS xy xz yz  pp  pp  pp
     -0.003081      2.203080      0.000000
     -0.005336      3.815850      0.000000
     -0.007546      5.396420      0.000000
ITEM: ATOMS id type xs ys zs
     1     1      0.060224      0.991106      0.987681
     2     1      0.296706      0.239922      0.987708
     3     1      0.279899      0.412257      0.152378
     4     1      0.028162      0.161197      0.151757
     5     1      0.965284      0.017026      0.321443
     6     1      0.215153      0.266205      0.319469
     7     1      0.195460      0.443612      0.486502
     8     1      0.915328      0.197238      0.497854
     9     1      0.908252      0.039270      0.654450
    10     1      0.157462      0.291592      0.654006
    11     1      0.334174      0.396583      0.821247
    12     1      0.101836      0.145016      0.821631
    13     1      0.046572      0.488950      0.986000
    14     1      0.298705      0.738955      0.986231
    15     1      0.278750      0.910237      0.153427
    16     1      0.028531      0.660532      0.151752
    17     1      0.964647      0.516790      0.320781
    18     1      0.209782      0.766364      0.321577
    19     1      0.191559      0.946459      0.486141
    20     1      0.933807      0.695163      0.487110
    21     1      0.905350      0.540983      0.654697
    22     1      0.152786      0.791861      0.651489
    23     1      0.349561      0.896274      0.819435
    24     1      0.065164      0.661242      0.821671
    25     1      0.570573      0.974578      1.000640
    26     1      0.790751      0.237773      0.986556
    27     1      0.778289      0.411333      0.151220
    28     1      0.527158      0.160853      0.152264
    29     1      0.466209      0.016269      0.320267
    30     1      0.718547      0.266224      0.320416
    31     1      0.694885      0.446372      0.486105
    32     1      0.434219      0.194381      0.484530
    33     1      0.401877      0.042086      0.649688
    34     1      0.649772      0.298319      0.650351
    35     1      0.836030      0.395962      0.822107
    36     1      0.620536      0.144007      0.807876
    37     1      0.544170      0.489507      0.986329
    38     1      0.802061      0.731087      0.986211
    39     1      0.793451      0.911410      0.155522
    40     1      0.523027      0.659087      0.148402
    41     1      0.466171      0.516165      0.321120
    42     1      0.712577      0.763544      0.305767
    43     1      0.691924      0.943932      0.485810
    44     1      0.437255      0.696744      0.487605
    45     1      0.403475      0.541768      0.652423
    46     1      0.652133      0.793658      0.654350
    47     1      0.840190      0.901317      0.821943
    48     1      0.582999      0.643786      0.819220
ITEM: TIMESTEP
64450
ITEM: NUMBER OF ATOMS
48
ITEM: BOX BOUNDS xy xz yz  pp  pp  pp
     -0.003081      2.203080      0.000000
     -0.005336      3.815850      0.000000
     -0.007546      5.396420      0.000000
ITEM: ATOMS id type xs ys zs
     1     1      0.059159      0.990492      0.987402
     2     1      0.298138      0.239888      0.987754
     3     1      0.278842      0.411392      0.151979
     4     1      0.027617      0.161960      0.151782
     5     1      0.964948      0.018340      0.321708
     6     1      0.213616      0.266454      0.319774
     7     1      0.194361      0.444937      0.486320
     8     1      0.924327      0.196680      0.492854
     9     1      0.906161      0.039286      0.654169
    10     1      0.156272      0.291122      0.653798
    11     1      0.332520      0.397183      0.821249
    12     1      0.103779      0.144929      0.820850
    13     1      0.047585      0.488240      0.986200
    14     1      0.297715      0.739074      0.985660
    15     1      0.282110      0.910564      0.153896
    16     1      0.030301      0.660069      0.151783
    17     1      0.963698      0.517034      0.320013
    18     1      0.209878      0.767145      0.321483
    19     1      0.189897      0.946136      0.486352
    20     1      0.935512      0.695615      0.485647
    21     1      0.904806      0.541614      0.653565
    22     1      0.153597      0.791546      0.651643
    23     1      0.346916      0.897247      0.820240
    24     1      0.072964      0.654819      0.821455
    25     1      0.562769      0.981024      0.992533
    26     1      0.792409      0.237491      0.985822
    27     1      0.779249      0.410301      0.151496
    28     1      0.528971      0.161476      0.152164
    29     1      0.465681      0.016550      0.320366
    30     1      0.716951      0.266633      0.320830
    31     1      0.692481      0.447463      0.485477
    32     1      0.433440      0.195321      0.485297
    33     1      0.403322      0.041967      0.649879
    34     1      0.650647      0.296700      0.650106
    35     1      0.836613      0.396397      0.821570
    36     1      0.610659      0.144106      0.812729
    37     1      0.544892      0.489158      0.986149
    38     1      0.802125      0.735169      0.985652
    39     1      0.792778      0.911618      0.154296
    40     1      0.526805      0.658786      0.148459
    41     1      0.463164      0.516855      0.320317
    42     1      0.712997      0.763447      0.313717
    43     1      0.690770      0.943500      0.485560
    44     1      0.437829      0.696658      0.486604
    45     1      0.403161      0.542312      0.652391
    46     1      0.652920      0.793813      0.654373
    47     1      0.841123      0.899527      0.822483
    48     1      0.579743      0.644841      0.820054
ITEM: TIMESTEP
64500
ITEM: NUMBER OF ATOMS
48
ITEM: BOX BOUNDS xy xz yz  pp  pp  pp
     -0.003081      2.203080      0.000000
     -0.005336      3.815850      0.000000
     -0.007546      5.396420      0.000000
ITEM: ATOMS id type xs ys zs
     1     1      0.059915      0.990025      0.986790
     2     1      0.298714      0.239455      0.987379
     3     1      0.278697      0.411571      0.151540
     4     1      0.029085      0.161145      0.151750
     5     1      0.964451      0.018340      0.321713
     6     1      0.212333      0.267606      0.319740
     7     1      0.192755      0.444659      0.486457
     8     1      0.931692      0.196853      0.490429
     9     1      0.907531      0.040198      0.654271
    10     1      0.155234      0.291597      0.653342
    11     1      0.334090      0.396447      0.821457
    12     1      0.102290      0.144655      0.820510
    13     1      0.048766      0.488100      0.985891
    14     1      0.298517      0.738962      0.985581
    15     1      0.284643      0.909333      0.153075
    16     1      0.030935      0.660044      0.151989
    17     1      0.962080      0.516865      0.320253