ITEM: TIMESTEP
64001
ITEM: NUMBER OF ATOMS
48
ITEM: BOX BOUNDS xy xz yz  pp  pp  pp
     -0.003081      2.203080      0.000000
     -0.005336      3.815850      0.000000
     -0.007546      5.396420      0.000000
ITEM: ATOMS id type xs ys zs
     1     1      0.048919      0.988163      0.986980
     2     1      0.293142      0.237236      0.986216
     3     1      0.272283      0.408716      0.151717
     4     1      0.022316      0.159287      0.150419
     5     1      0.967135      0.015461      0.319027
     6     1      0.220007      0.262928      0.318764
     7     1      0.212066      0.443141      0.485012
     8     1      0.959159      0.195975      0.485264
     9     1      0.907857      0.044622      0.651869
    10     1      0.153842      0.294567      0.653597
    11     1      0.322547      0.400992      0.822694
    12     1      0.073716      0.149629      0.821758
    13     1      0.038668      0.487211      0.986995
    14     1      0.292425      0.735981      0.987024
    15     1      0.277877      0.908741      0.151376
    16     1      0.026000      0.657910      0.152775
    17     1      0.971915      0.513564      0.320727
    18     1      0.219277      0.764658      0.319777
    19     1      0.208780      0.943995      0.484417
    20     1      0.963920      0.693056      0.485532
    21     1      0.904591      0.544216      0.652467
    22     1      0.157715      0.794778      0.653331
    23     1      0.329440      0.899319      0.821677
    24     1      0.073856      0.649192      0.821767
    25     1      0.549234      0.987370      0.986186
    26     1      0.791263      0.238163      0.985520
    27     1      0.772878      0.409968      0.153235
    28     1      0.523851      0.159555      0.151442
    29     1      0.467779      0.015814      0.319793
    30     1      0.720608      0.265109      0.320171
    31     1      0.709994      0.444706      0.484493
    32     1      0.459154      0.193566      0.484134
    33     1      0.409256      0.042840      0.650852
    34     1      0.651782      0.294793      0.651305
    35     1      0.823463      0.399385      0.820477
    36     1      0.572494      0.150168      0.820100
    37     1      0.541914      0.488417      0.987941
    38     1      0.793820      0.737943      0.988878
    39     1      0.776552      0.909044      0.152416
    40     1      0.525719      0.659853      0.152817
    41     1      0.469552      0.513461      0.319438
    42     1      0.720961      0.764044      0.320447
    43     1      0.712123      0.943307      0.483877
    44     1      0.462373      0.694535      0.485157
    45     1      0.404141      0.544453      0.653267
    46     1      0.658502      0.793707      0.653043
    47     1      0.829168      0.898942      0.822471
    48     1      0.575483      0.649358      0.822808
ITEM: TIMESTEP
64050
ITEM: NUMBER OF ATOMS
48
ITEM: BOX BOUNDS xy xz yz  pp  pp  pp
     -0.003081      2.203080      0.000000
     -0.005336      3.815850      0.000000
     -0.007546      5.396420      0.000000
ITEM: ATOMS id type xs ys zs
     1     1      0.047817      0.988442      0.987057
     2     1      0.293484      0.237800      0.986818
     3     1      0.271911      0.409702      0.151804
     4     1      0.023581      0.159565      0.150579
     5     1      0.968576      0.015513      0.319549
     6     1      0.220166      0.263494      0.318522
     7     1      0.211507      0.442605      0.485035
     8     1      0.958185      0.194757      0.485175
     9     1      0.907289      0.044962      0.651867
    10     1      0.155016      0.293354      0.653782
    11     1      0.321662      0.400281      0.822896
    12     1      0.072929      0.149266      0.822021
    13     1      0.038857      0.487480      0.987010
    14     1      0.294087      0.737606      0.986913
    15     1      0.277549      0.909124      0.151579
    16     1      0.026776      0.658600      0.152761
    17     1      0.971008      0.513748      0.320169
    18     1      0.220767      0.764801      0.320080
    19     1      0.209689      0.944211      0.484432
    20     1      0.963005      0.692958      0.485301
    21     1      0.903594      0.543837      0.652822
    22     1      0.157597      0.793963      0.652788
    23     1      0.328932      0.899746      0.821230
    24     1      0.072878      0.649681      0.821712
    25     1      0.549851      0.987760      0.986501
    26     1      0.791405      0.238152      0.985877
    27     1      0.772885      0.410186      0.152126
    28     1      0.523120      0.159725      0.151670
    29     1      0.469610      0.014429      0.319018
    30     1      0.719797      0.264738      0.319914
    31     1      0.709580      0.444712      0.484387
    32     1      0.458024      0.193173      0.484173
    33     1      0.408411      0.042453      0.651322
    34     1      0.652715      0.293944      0.651400
    35     1      0.822798      0.399011      0.820973
    36     1      0.572221      0.149841      0.820536
    37     1      0.542043      0.488257      0.987205
    38     1      0.793710      0.737660      0.988455
    39     1      0.777328      0.909557      0.152361
    40     1      0.525752      0.659480      0.152877
    41     1      0.469306      0.513401      0.319894
    42     1      0.719917      0.763433      0.320400
    43     1      0.711350      0.943229      0.484657
    44     1      0.462847      0.693273      0.484966
    45     1      0.403598      0.544295      0.653188
    46     1      0.657367      0.793363      0.653123
    47     1      0.828622      0.899124      0.822172
    48     1      0.573728      0.649808      0.822766
ITEM: TIMESTEP
64100
ITEM: NUMBER OF ATOMS
48
ITEM: BOX BOUNDS xy xz yz  pp  pp  pp
     -0.003081      2.203080      0.000000
     -0.005336      3.815850      0.000000
     -0.007546      5.396420      0.000000
ITEM: ATOMS id type xs ys zs
     1     1      0.049159      0.987911      0.986528
     2     1      0.293138      0.238240      0.986458
     3     1      0.273635      0.409141      0.151739
     4     1      0.023115      0.159572      0.150787
     5     1      0.970455      0.015540      0.319613
     6     1      0.219571      0.263091      0.319159
     7     1      0.209717      0.442744      0.484891
     8     1      0.958020      0.194345      0.484916
     9     1      0.906185      0.043364      0.651979
    10     1      0.153746      0.292285      0.653002
    11     1      0.322341      0.400615      0.822166
    12     1      0.071837      0.149536      0.821862
    13     1      0.040673      0.488089      0.986924
    14     1      0.294269      0.738426      0.986632
    15     1      0.278015      0.908477      0.151640
    16     1      0.026430      0.660077      0.152554
    17     1      0.969679      0.514552      0.320209
    18     1      0.219227      0.764962      0.319876
    19     1      0.209852      0.943235      0.483721
    20     1      0.962066      0.693058      0.485289
    21     1      0.904488      0.543557      0.652919
    22     1      0.157124      0.793482      0.652162
    23     1      0.326347      0.900743      0.821213
    24     1      0.072394      0.650300      0.821731
    25     1      0.548907      0.988610      0.986553
    26     1      0.792793      0.238457      0.986148
    27     1      0.772864      0.410527      0.151946
    28     1      0.523327      0.160222      0.152063
    29     1      0.471283      0.014342      0.319318
    30     1      0.718079      0.264516      0.319619
    31     1      0.709771      0.444343      0.484498
    32     1      0.457983      0.192675      0.483884
    33     1      0.407238      0.042415      0.651340
    34     1      0.655485      0.294233      0.651403
    35     1      0.822211      0.399427      0.820957
    36     1      0.573512      0.149833      0.820010
    37     1      0.541572      0.488156      0.987226
    38     1      0.793851      0.738858      0.988005
    39     1      0.777261      0.909633      0.152343
    40     1      0.525608      0.659696      0.152766
    41     1      0.469641      0.513434      0.319752
    42     1      0.720077      0.764165      0.320008
    43     1      0.710685      0.943373      0.484952
    44     1      0.461423      0.693190      0.485112
    45     1      0.404109      0.543396      0.653286
    46     1      0.657081      0.792356      0.652805
    47     1      0.826840      0.899407      0.822123
    48     1      0.573260      0.649858      0.822667
ITEM: TIMESTEP
64150
ITEM: NUMBER OF ATOMS
48
ITEM: BOX BOUNDS xy xz yz  pp  pp  pp
     -0.003081      2.203080      0.000000
     -0.005336      3.815850      0.000000
     -0.007546      5.396420      0.000000
ITEM: ATOMS id type xs ys zs
     1     1      0.048086      0.987965      0.987033
     2     1      0.292719      0.238889      0.986370
     3     1      0.273808      0.408952      0.151434
     4     1      0.023208      0.159484      0.151112
     5     1      0.969537      0.015661      0.320260
     6     1      0.217353      0.263211      0.319805
     7     1      0.212254      0.446318      0.485221
     8     1      0.951967      0.177654      0.497825
     9     1      0.906246      0.041349      0.653577
    10     1      0.161481      0.296040      0.658453
    11     1      0.326803      0.400701      0.823009
    12     1      0.077278      0.144452      0.822005
    13     1      0.039712      0.488383      0.984814
    14     1      0.293865      0.738682      0.986960
    15     1      0.278004      0.909449      0.151700
    16     1      0.027529      0.659995      0.152365
    17     1      0.971298      0.514036      0.319860
    18     1      0.220425      0.764935      0.320243
    19     1      0.209878      0.946011      0.484583
    20     1      0.961086      0.729010      0.485336
    21     1      0.903172      0.543082      0.651793
    22     1      0.157430      0.792475      0.652678
    23     1      0.326059      0.899502      0.820746
    24     1      0.070696      0.648802      0.821661
    25     1      0.548365      0.989174      0.986905
    26     1      0.793624      0.238575      0.985342
    27     1      0.773761      0.410972      0.152196
    28     1      0.523970      0.160146      0.151579
    29     1      0.470656      0.014690      0.319578
    30     1      0.720697      0.264155      0.321036
    31     1      0.705270      0.449439      0.484264
    32     1      0.455319      0.191781      0.482596
    33     1      0.405781      0.041460      0.651066
    34     1      0.646036      0.290440      0.644995
    35     1      0.832115      0.379792      0.807739
    36     1      0.570538      0.147587      0.820132
    37     1      0.543605      0.488757      0.986840
    38     1      0.794648      0.739825      0.988167
    39     1      0.777425      0.909760      0.152110
    40     1      0.524611      0.659645      0.152226
    41     1      0.469528      0.513484      0.319170
    42     1      0.720119      0.764159      0.319908
    43     1      0.707422      0.945494      0.485131
    44     1      0.460757      0.694780      0.485061
    45     1      0.405199      0.543566      0.653047
    46     1      0.656989      0.792165      0.652425
    47     1      0.825940      0.898504      0.822118
    48     1      0.573858      0.648384      0.822755
ITEM: TIMESTEP
64200
ITEM: NUMBER OF ATOMS
48
ITEM: BOX BOUNDS xy xz yz  pp  pp  pp
     -0.003081      2.203080      0.000000
     -0.005336      3.815850      0.000000
     -0.007546      5.396420      0.000000
ITEM: ATOMS id type xs ys zs
     1     1      0.046595      0.987835      0.987378
     2     1      0.293356      0.238787      0.987963
     3     1      0.273608      0.410187      0.151841
     4     1      0.024436      0.160171      0.151800
     5     1      0.970444      0.014311      0.320484
     6     1      0.215444      0.264784      0.320463
     7     1      0.164705      0.471313      0.500934
     8     1      0.954546      0.187266      0.491561
     9     1      0.905359      0.039879      0.655600
    10     1      0.156871      0.294409      0.656458
    11     1      0.337553      0.390297      0.824582
    12     1      0.077574      0.143588      0.822550
    13     1      0.039378      0.489745      0.983441
    14     1      0.292450      0.738143      0.985633
    15     1      0.279006      0.909483      0.151377
    16     1      0.026493      0.660420      0.152044
    17     1      0.971010      0.514417      0.320686
    18     1      0.220108      0.764657      0.319978
    19     1      0.213128      0.948164      0.484419
    20     1      0.953942      0.716712      0.486106
    21     1      0.888048      0.544519      0.650842
    22     1      0.159290      0.793921      0.652517
    23     1      0.326780      0.896679      0.821681
    24     1      0.114566      0.628303      0.806104
    25     1      0.546427      0.989551      0.986334
    26     1      0.793654      0.239586      0.985292
    27     1      0.774597      0.410963      0.152667
    28     1      0.525763      0.160488      0.152020
    29     1      0.470006      0.014985      0.318977
    30     1      0.722083      0.264633      0.321570
    31     1      0.699185      0.447894      0.484383
    32     1      0.447782      0.192587      0.479751
    33     1      0.404853      0.042360      0.651660
    34     1      0.652771      0.290493      0.625701
    35     1      0.832685      0.386398      0.812603
    36     1      0.573759      0.146157      0.820297
    37     1      0.542668      0.489176      0.987157
    38     1      0.793879      0.739166      0.988507
    39     1      0.778775      0.910359      0.152070
    40     1      0.525712      0.659270      0.152289
    41     1      0.461313      0.515470      0.342528
    42     1      0.719255      0.764209      0.319182
    43     1      0.701260      0.948275      0.485648
    44     1      0.459728      0.696197      0.486731
    45     1      0.411561      0.543228      0.655413
    46     1      0.655071      0.793366      0.652804
    47     1      0.826371      0.896010      0.822425
    48     1      0.590626      0.646970      0.822924
ITEM: TIMESTEP
64250
ITEM: NUMBER OF ATOMS
48
ITEM: BOX BOUNDS xy xz yz  pp  pp  pp
     -0.003081      2.203080      0.000000
     -0.005336      3.815850      0.000000
     -0.007546      5.396420      0.000000
ITEM: ATOMS id type xs ys zs
     1     1      0.045512      0.988419      0.987590
     2     1      0.293531      0.238058      0.988413
     3     1      0.275147      0.412091      0.152362
     4     1      0.024667      0.160754      0.151066
     5     1      0.969639      0.014425      0.320524
     6     1      0.214385      0.265966      0.319298
     7     1      0.178238      0.461783      0.496485
     8     1      0.955530      0.191298      0.487941
     9     1      0.905914      0.040397      0.655257
    10     1      0.154890      0.293807      0.655559
    11     1      0.337908      0.390132      0.823923
    12     1      0.077153      0.144699      0.822801
    13     1      0.040666      0.488661      0.983527
    14     1      0.290589      0.737476      0.985779
    15     1      0.277133      0.909366      0.151367
    16     1      0.025907      0.660708      0.151777
    17     1      0.967793      0.515420      0.320499
    18     1      0.220970      0.765756      0.320006
    19     1      0.209383      0.946819      0.484711
    20     1      0.951203      0.709430      0.486218
    21     1      0.893340      0.545524      0.650441
    22     1      0.158422      0.793406      0.651474
    23     1      0.327424      0.895990      0.821913
    24     1      0.104825      0.633874      0.812193
    25     1      0.545384      0.989778      0.986341
    26     1      0.793446      0.240412      0.985392
    27     1      0.775268      0.411708      0.151940
    28     1      0.525963      0.160854      0.152151
    29     1      0.469736      0.014946      0.318506
    30     1      0.721367      0.265187      0.321083
    31     1      0.700658      0.448286      0.484703
    32     1      0.446099      0.194209      0.480300
    33     1      0.405063      0.042756      0.651392
    34     1      0.656919      0.288572      0.639729
    35     1      0.833116      0.389049      0.813270
    36     1      0.576301      0.146031      0.819198
    37     1      0.542557      0.490335      0.987264
    38     1      0.792805      0.739630      0.988368
    39     1      0.778721      0.909775      0.152273
    40     1      0.524775      0.659014      0.153835
    41     1      0.455421      0.516257      0.330849
    42     1      0.717846      0.764452      0.319729
    43     1      0.701082      0.948869      0.486133
    44     1      0.458064      0.697972      0.487520
    45     1      0.408968      0.542417      0.656084
    46     1      0.654394      0.793983      0.653451
    47     1      0.827978      0.894236      0.822535
    48     1      0.594705      0.644748      0.822437
ITEM: TIMESTEP
64300
ITEM: NUMBER OF ATOMS
48
ITEM: BOX BOUNDS xy xz yz  pp  pp  pp
     -0.003081      2.203080      0.000000
     -0.005336      3.815850      0.000000
     -0.007546      5.396420      0.000000
ITEM: ATOMS id type xs ys zs
     1     1      0.045798      0.963364      0.988245
     2     1      0.292539      0.238246      0.988861
     3     1      0.277410      0.413820      0.150541
     4     1      0.025771      0.161207      0.152001
     5     1      0.969480      0.017489      0.320379
     6     1      0.213645      0.287413      0.321370
     7     1      0.190525      0.450243      0.493218
     8     1      0.954116      0.193934      0.487029
     9     1      0.906720      0.041020      0.654687
    10     1      0.155469      0.293167      0.655451
    11     1      0.336975      0.391681      0.823244
    12     1      0.078348      0.144949      0.823933
    13     1      0.042356      0.487691      0.983800
    14     1      0.296239      0.733170      0.985560
    15     1      0.278414      0.909872      0.151926
    16     1      0.026594      0.661252      0.151458
    17     1      0.965478      0.520828      0.320271
    18     1      0.219498      0.768084      0.320384
    19     1      0.205639      0.944750      0.484385
    20     1      0.949387      0.686497      0.485104
    21     1      0.845439      0.513992      0.633033
    22     1      0.155606      0.792015      0.651165
    23     1      0.324581      0.898664      0.821241
    24     1      0.098972      0.637612      0.814753
    25     1      0.546064      0.989303      0.986040
    26     1      0.793861      0.239299      0.985031
    27     1      0.777235      0.411505      0.151848
    28     1      0.525952      0.161236      0.151793
    29     1      0.468832      0.016391      0.318995
    30     1      0.718569      0.266183      0.319985
    31     1      0.692587      0.435201      0.479655
    32     1      0.446337      0.194527      0.480813
    33     1      0.404584      0.042417      0.650881
    34     1      0.652675      0.282826      0.645036
    35     1      0.832499      0.392012      0.814500
    36     1      0.577617      0.145378      0.818795
    37     1      0.545117      0.489460      0.986527
    38     1      0.788746      0.736156      0.989259
    39     1      0.775958      0.911326      0.152685
    40     1      0.525312      0.659221      0.153956
    41     1      0.514795      0.554879      0.345781
    42     1      0.725028      0.772809      0.319874
    43     1      0.703392      0.946590      0.485602
    44     1      0.451319      0.700784      0.491535
    45     1      0.401932      0.544004      0.657686
    46     1      0.654757      0.795675      0.651599
    47     1      0.833856      0.899562      0.821623
    48     1      0.588988      0.669932      0.822343
ITEM: TIMESTEP
64350
ITEM: NUMBER OF ATOMS
48
ITEM: BOX BOUNDS xy xz yz  pp  pp  pp
     -0.003081      2.203080      0.000000
     -0.005336      3.815850      0.000000
     -0.007546      5.396420      0.000000
ITEM: ATOMS id type xs ys zs
     1     1      0.046096      0.975487      0.987651
     2     1      0.294459      0.237198      0.988157
     3     1      0.278128      0.414207      0.152980
     4     1      0.028699      0.162380      0.152382
     5     1      0.971115      0.019451      0.319916
     6     1      0.211507      0.285737      0.335953
     7     1      0.196785      0.450054      0.492775
     8     1      0.953256      0.191431      0.487485
     9     1      0.906774      0.041036      0.653835
    10     1      0.152194      0.291477      0.654736
    11     1      0.336953      0.392765      0.822951
    12     1      0.080250      0.145748      0.823835
    13     1      0.042195      0.487565      0.983982
    14     1      0.296464      0.732177      0.985100
    15     1      0.278102      0.909762      0.151657
    16     1      0.025523      0.662202      0.151904
    17     1      0.972073      0.521543      0.320080
    18     1      0.218414      0.770343      0.321054
    19     1      0.202661      0.942857      0.484486
    20     1      0.948024      0.690451      0.484803
    21     1      0.872933      0.528406      0.643044
    22     1      0.154224      0.790782      0.651002
    23     1      0.325228      0.899102      0.820752
    24     1      0.091253      0.638937      0.814595
    25     1      0.545904      0.988309      0.985613
    26     1      0.796001      0.238035      0.985234
    27     1      0.776970      0.411927      0.151714
    28     1      0.526548      0.161599      0.151633
    29     1      0.466160      0.018321      0.318942
    30     1      0.718412      0.265971      0.319058
    31     1      0.698613      0.434112      0.477431
    32     1      0.446659      0.185414      0.480538
    33     1      0.403521      0.041006      0.650698
    34     1      0.652953      0.281840      0.633266
    35     1      0.830844      0.392929      0.814198
    36     1      0.579856      0.145751      0.818058
    37     1      0.546020      0.488591      0.986046
    38     1      0.792394      0.736248      0.988852
    39     1      0.775662      0.912854      0.151751
    40     1      0.526428      0.661156      0.154453
    41     1      0.484198      0.540305      0.330885
    42     1      0.727174      0.776860      0.319802
    43     1      0.704156      0.945834      0.485468
    44     1      0.448879      0.700308      0.491842
    45     1      0.393983      0.542580      0.658004
    46     1      0.657400      0.794237      0.653145
    47     1      0.831448      0.899240      0.821121
    48     1      0.586303      0.657652      0.821806
ITEM: TIMESTEP
64400
ITEM: NUMBER OF ATOMS
48
ITEM: BOX BOUNDS xy xz yz  pp  pp  pp
     -0.003081      2.203080      0.000000
     -0.005336      3.815850      0.000000
     -0.007546      5.396420      0.000000
ITEM: ATOMS id type xs ys zs
     1     1      0.046462      0.980893      0.988023
     2     1      0.293289      0.237578      0.988063
     3     1      0.278365      0.413608      0.153972
     4     1      0.029520      0.163912      0.153340
     5     1      0.971779      0.020381      0.319617
     6     1      0.213118      0.282822      0.328528
     7     1      0.197310      0.448588      0.491275
     8     1      0.952506      0.190726      0.486703
     9     1      0.907276      0.040570      0.653905
    10     1      0.153896      0.290242      0.654767
    11     1      0.335891      0.393295      0.822700
    12     1      0.079623      0.145343      0.823661
    13     1      0.043798      0.487983      0.983723
    14     1      0.295480      0.734276      0.985096
    15     1      0.278861      0.909712      0.151840
    16     1      0.027269      0.662193      0.151859
    17     1      0.970089      0.522414      0.319879
    18     1      0.218545      0.770461      0.321516
    19     1      0.200925      0.942105      0.484454
    20     1      0.947306      0.692022      0.484874
    21     1      0.881756      0.534350      0.646010
    22     1      0.153323      0.790694      0.650998
    23     1      0.326523      0.898075      0.820452
    24     1      0.087602      0.640078      0.815061
    25     1      0.546100      0.988193      0.985388
    26     1      0.794675      0.236717      0.985533
    27     1      0.779126      0.412516      0.151471
    28     1      0.528416      0.161970      0.150869
    29     1      0.467068      0.019219      0.318640
    30     1      0.717754      0.266606      0.318733
    31     1      0.699726      0.435048      0.479246
    32     1      0.447844      0.186478      0.481468
    33     1      0.402575      0.039772      0.650364
    34     1      0.654240      0.283599      0.641479
    35     1      0.830073      0.393470      0.814882
    36     1      0.582088      0.146030      0.817607
    37     1      0.547211      0.488119      0.986651
    38     1      0.792866      0.736758      0.988513
    39     1      0.775982      0.913559      0.151793
    40     1      0.528670      0.661786      0.153979
    41     1      0.473924      0.533300      0.326038
    42     1      0.723741      0.775321      0.320376
    43     1      0.703305      0.944831      0.485696
    44     1      0.448919      0.697646      0.490502
    45     1      0.393205      0.542219      0.658113
    46     1      0.656793      0.793317      0.653187
    47     1      0.831432      0.896778      0.821634
    48     1      0.584558      0.652220      0.821716
ITEM: TIMESTEP
64450
ITEM: NUMBER OF ATOMS
48
ITEM: BOX BOUNDS xy xz yz  pp  pp  pp
     -0.003081      2.203080      0.000000
     -0.005336      3.815850      0.000000
     -0.007546      5.396420      0.000000
ITEM: ATOMS id type xs ys zs
     1     1      0.047082      0.983927      0.987600
     2     1      0.296323      0.237912      0.988246
     3     1      0.280252      0.413734      0.153663
     4     1      0.031488      0.163638      0.152550
     5     1      0.971918      0.021972      0.319929
     6     1      0.216000      0.278581      0.324883
     7     1      0.198309      0.447042      0.489873
     8     1      0.952463      0.191788      0.486839
     9     1      0.906114      0.040013      0.653455
    10     1      0.154964      0.290175      0.655037
    11     1      0.336107      0.393096      0.823417
    12     1      0.079490      0.145712      0.823847
    13     1      0.044727      0.487503      0.983983
    14     1      0.295358      0.734804      0.985067
    15     1      0.278622      0.910947      0.151808
    16     1      0.028366      0.662336      0.151417
    17     1      0.968337      0.522567      0.320436
    18     1      0.218030      0.771256      0.321413
    19     1      0.200062      0.941945      0.484636
    20     1      0.947069      0.693384      0.485131
    21     1      0.887979      0.537035      0.647614
    22     1      0.152709      0.790405      0.650958
    23     1      0.326898      0.897123      0.820569
    24     1      0.086185      0.641152      0.815956
    25     1      0.545291      0.988839      0.985300
    26     1      0.796252      0.237284      0.984863
    27     1      0.780197      0.412577      0.151162
    28     1      0.529568      0.162135      0.151029
    29     1      0.467910      0.019740      0.319291
    30     1      0.716367      0.268114      0.318775
    31     1      0.698550      0.436738      0.480542
    32     1      0.447555      0.187169      0.482550
    33     1      0.402242      0.039066      0.650788
    34     1      0.654525      0.285566      0.645052
    35     1      0.831162      0.393685      0.815622
    36     1      0.580601      0.145816      0.817653
    37     1      0.547502      0.487889      0.986508
    38     1      0.794161      0.737652      0.987784
    39     1      0.776906      0.913404      0.151382
    40     1      0.527797      0.661911      0.153207
    41     1      0.469740      0.528669      0.323420
    42     1      0.721917      0.774594      0.320660
    43     1      0.702152      0.944491      0.485732
    44     1      0.447276      0.695951      0.489187
    45     1      0.393262      0.541136      0.657148
    46     1      0.656420      0.791809      0.653949
    47     1      0.830207      0.896212      0.822120
    48     1      0.582910      0.648852      0.821738
ITEM: TIMESTEP
64500
ITEM: NUMBER OF ATOMS
48
ITEM: BOX BOUNDS xy xz yz  pp  pp  pp
     -0.003081      2.203080      0.000000
     -0.005336      3.815850      0.000000
     -0.007546      5.396420      0.000000
ITEM: ATOMS id type xs ys zs
     1     1      0.046897      0.985833      0.987854
     2     1      0.295779      0.238380      0.987908
     3     1      0.280179      0.414483      0.152879
     4     1      0.031642      0.164118      0.152470
     5     1      0.970220      0.022155      0.320398
     6     1      0.217270      0.276162      0.322391
     7     1      0.198798      0.445513      0.489007
     8     1      0.951361      0.192295      0.486451
     9     1      0.905526      0.040173      0.653345
    10     1      0.155451      0.289649      0.654505
    11     1      0.334333      0.394273      0.823602
    12     1      0.079077      0.146105      0.823329
    13     1      0.045752      0.487426      0.984437
    14     1      0.295971      0.735690      0.985133
    15     1      0.280239      0.911869      0.151773
    16     1      0.029989      0.663111      0.151928
    17     1      0.967779      0.521971      0.320556