ITEM: TIMESTEP
64001
ITEM: NUMBER OF ATOMS
48
ITEM: BOX BOUNDS xy xz yz  pp  pp  pp
     -0.003081      2.203080      0.000000
     -0.005336      3.815850      0.000000
     -0.007546      5.396420      0.000000
ITEM: ATOMS id type xs ys zs
     1     1      0.048727      0.988039      0.987016
     2     1      0.292931      0.237366      0.986251
     3     1      0.272489      0.408493      0.151620
     4     1      0.022303      0.159297      0.150219
     5     1      0.967419      0.015477      0.319021
     6     1      0.220313      0.262894      0.318720
     7     1      0.212199      0.443239      0.485152
     8     1      0.958987      0.195737      0.485162
     9     1      0.907983      0.044576      0.651903
    10     1      0.153870      0.294499      0.653561
    11     1      0.322835      0.400897      0.822856
    12     1      0.073735      0.149469      0.821807
    13     1      0.039033      0.487308      0.987086
    14     1      0.292177      0.735876      0.986834
    15     1      0.277948      0.908794      0.151298
    16     1      0.026263      0.657815      0.152858
    17     1      0.972027      0.513583      0.320748
    18     1      0.219253      0.764708      0.319820
    19     1      0.209077      0.944040      0.484297
    20     1      0.963790      0.692942      0.485611
    21     1      0.904714      0.544402      0.652545
    22     1      0.157548      0.794875      0.653376
    23     1      0.329672      0.899180      0.821590
    24     1      0.073741      0.649192      0.821618
    25     1      0.549237      0.987303      0.986239
    26     1      0.791343      0.237956      0.985362
    27     1      0.772740      0.410006      0.153175
    28     1      0.523544      0.159623      0.151505
    29     1      0.468017      0.015826      0.319800
    30     1      0.720428      0.265055      0.320175
    31     1      0.710056      0.444842      0.484576
    32     1      0.459124      0.193515      0.484173
    33     1      0.408958      0.042886      0.650972
    34     1      0.651732      0.294758      0.651326
    35     1      0.823420      0.399380      0.820424
    36     1      0.572513      0.150126      0.820210
    37     1      0.542048      0.488492      0.988013
    38     1      0.794000      0.737877      0.988864
    39     1      0.776488      0.908956      0.152390
    40     1      0.525668      0.659847      0.152899
    41     1      0.469500      0.513554      0.319402
    42     1      0.720586      0.763981      0.320474
    43     1      0.712162      0.943373      0.483893
    44     1      0.462278      0.694412      0.485128
    45     1      0.404259      0.544459      0.653253
    46     1      0.658266      0.793725      0.653203
    47     1      0.828934      0.898758      0.822581
    48     1      0.575919      0.649178      0.822875
ITEM: TIMESTEP
64050
ITEM: NUMBER OF ATOMS
48
ITEM: BOX BOUNDS xy xz yz  pp  pp  pp
     -0.003081      2.203080      0.000000
     -0.005336      3.815850      0.000000
     -0.007546      5.396420      0.000000
ITEM: ATOMS id type xs ys zs
     1     1      0.048779      0.987190      0.986808
     2     1      0.293625      0.237960      0.986517
     3     1      0.271756      0.409907      0.151892
     4     1      0.023823      0.159097      0.150135
     5     1      0.969118      0.015369      0.319361
     6     1      0.218976      0.264024      0.318890
     7     1      0.212043      0.442385      0.485417
     8     1      0.959135      0.194584      0.484711
     9     1      0.908378      0.043165      0.651476
    10     1      0.152498      0.293997      0.653690
    11     1      0.323565      0.400876      0.822696
    12     1      0.072032      0.149614      0.821930
    13     1      0.039838      0.487761      0.986862
    14     1      0.293617      0.737294      0.986988
    15     1      0.279886      0.909315      0.151541
    16     1      0.027020      0.658677      0.152922
    17     1      0.970946      0.513828      0.320486
    18     1      0.221311      0.764931      0.319719
    19     1      0.210705      0.943563      0.484632
    20     1      0.963423      0.692850      0.485558
    21     1      0.905970      0.544835      0.652533
    22     1      0.157876      0.793684      0.652907
    23     1      0.327854      0.899841      0.821989
    24     1      0.074213      0.649601      0.822036
    25     1      0.547879      0.988210      0.986481
    26     1      0.792983      0.238442      0.985468
    27     1      0.773626      0.410698      0.152938
    28     1      0.525284      0.159928      0.150776
    29     1      0.469269      0.015662      0.319777
    30     1      0.720803      0.265068      0.320024
    31     1      0.709375      0.444552      0.484805
    32     1      0.459476      0.193254      0.484390
    33     1      0.409206      0.042729      0.651250
    34     1      0.652665      0.294460      0.651436
    35     1      0.823033      0.399833      0.820435
    36     1      0.571726      0.149946      0.820453
    37     1      0.541148      0.488365      0.988026
    38     1      0.793509      0.737536      0.988317
    39     1      0.777495      0.909527      0.152175
    40     1      0.524892      0.660703      0.152520
    41     1      0.470810      0.514577      0.319216
    42     1      0.720423      0.763872      0.320497
    43     1      0.710348      0.942762      0.484152
    44     1      0.461475      0.693302      0.484998
    45     1      0.403758      0.544315      0.653139
    46     1      0.657764      0.793333      0.653232
    47     1      0.827539      0.899414      0.822398
    48     1      0.574818      0.649662      0.822432
ITEM: TIMESTEP
64100
ITEM: NUMBER OF ATOMS
48
ITEM: BOX BOUNDS xy xz yz  pp  pp  pp
     -0.003081      2.203080      0.000000
     -0.005336      3.815850      0.000000
     -0.007546      5.396420      0.000000
ITEM: ATOMS id type xs ys zs
     1     1      0.045830      0.988359      0.987275
     2     1      0.293831      0.239017      0.986673
     3     1      0.271544      0.410506      0.151885
     4     1      0.024599      0.159888      0.150972
     5     1      0.970118      0.015460      0.320057
     6     1      0.220344      0.264157      0.318804
     7     1      0.213979      0.444454      0.485174
     8     1      0.954307      0.225690      0.506361
     9     1      0.908371      0.043403      0.652095
    10     1      0.159948      0.295799      0.658140
    11     1      0.323414      0.400629      0.822696
    12     1      0.074727      0.147445      0.822478
    13     1      0.040145      0.487695      0.986624
    14     1      0.294277      0.738420      0.986687
    15     1      0.278751      0.909799      0.150941
    16     1      0.026421      0.659970      0.152383
    17     1      0.971278      0.513495      0.320391
    18     1      0.221202      0.764574      0.320069
    19     1      0.209111      0.943890      0.484820
    20     1      0.961616      0.693257      0.484932
    21     1      0.906387      0.543893      0.652119
    22     1      0.158179      0.794019      0.653166
    23     1      0.327641      0.900281      0.822153
    24     1      0.073936      0.649761      0.821849
    25     1      0.547532      0.988329      0.986453
    26     1      0.793295      0.238963      0.985502
    27     1      0.773079      0.410461      0.152666
    28     1      0.526032      0.159878      0.150781
    29     1      0.469278      0.015135      0.319556
    30     1      0.721175      0.264927      0.320060
    31     1      0.707052      0.445581      0.484109
    32     1      0.458570      0.192570      0.483911
    33     1      0.407585      0.042947      0.651568
    34     1      0.644510      0.291531      0.646050
    35     1      0.828839      0.368718      0.799656
    36     1      0.570201      0.147609      0.820926
    37     1      0.541281      0.489428      0.987593
    38     1      0.794951      0.738082      0.988226
    39     1      0.777343      0.910215      0.151943
    40     1      0.525541      0.660650      0.152248
    41     1      0.470597      0.514642      0.319448
    42     1      0.721300      0.764749      0.320080
    43     1      0.710601      0.943077      0.484939
    44     1      0.460557      0.693575      0.484907
    45     1      0.405219      0.543619      0.652649
    46     1      0.657704      0.792790      0.653278
    47     1      0.827350      0.899006      0.822745
    48     1      0.574184      0.649560      0.822502
ITEM: TIMESTEP
64150
ITEM: NUMBER OF ATOMS
48
ITEM: BOX BOUNDS xy xz yz  pp  pp  pp
     -0.003081      2.203080      0.000000
     -0.005336      3.815850      0.000000
     -0.007546      5.396420      0.000000
ITEM: ATOMS id type xs ys zs
     1     1      0.045314      0.988535      0.987287
     2     1      0.295450      0.239084      0.986620
     3     1      0.274676      0.410975      0.151387
     4     1      0.025033      0.159981      0.150677
     5     1      0.969410      0.016180      0.320963
     6     1      0.219604      0.265076      0.319587
     7     1      0.213356      0.445460      0.485333
     8     1      0.953212      0.210703      0.495849
     9     1      0.911771      0.045857      0.657007
    10     1      0.161062      0.296125      0.658969
    11     1      0.327572      0.401279      0.823964
    12     1      0.078867      0.144940      0.823710
    13     1      0.040139      0.488023      0.985013
    14     1      0.294019      0.738245      0.986851
    15     1      0.278251      0.910896      0.151534
    16     1      0.026109      0.660150      0.152346
    17     1      0.971590      0.514362      0.320597
    18     1      0.221570      0.764366      0.319841
    19     1      0.205252      0.943367      0.484051
    20     1      0.960981      0.693206      0.484962
    21     1      0.906796      0.543250      0.651078
    22     1      0.157079      0.793168      0.652896
    23     1      0.325896      0.899477      0.821470
    24     1      0.071868      0.649318      0.821737
    25     1      0.547845      0.989753      0.985763
    26     1      0.792524      0.239704      0.984229
    27     1      0.775071      0.410448      0.151679
    28     1      0.526456      0.160842      0.151431
    29     1      0.472210      0.014213      0.320743
    30     1      0.720839      0.265496      0.320522
    31     1      0.704550      0.449106      0.483457
    32     1      0.454698      0.190994      0.482485
    33     1      0.400618      0.039036      0.647117
    34     1      0.646268      0.293296      0.643152
    35     1      0.832401      0.382446      0.809340
    36     1      0.573739      0.147115      0.804964
    37     1      0.543108      0.490457      0.987750
    38     1      0.796027      0.738139      0.987655
    39     1      0.778866      0.909582      0.152095
    40     1      0.526259      0.661251      0.151902
    41     1      0.470160      0.514829      0.319061
    42     1      0.721707      0.764822      0.320488
    43     1      0.707558      0.944782      0.500486
    44     1      0.460106      0.695027      0.485147
    45     1      0.407230      0.543309      0.652726
    46     1      0.656327      0.788747      0.656661
    47     1      0.825488      0.898556      0.822429
    48     1      0.575783      0.647714      0.822727
ITEM: TIMESTEP
64200
ITEM: NUMBER OF ATOMS
48
ITEM: BOX BOUNDS xy xz yz  pp  pp  pp
     -0.003081      2.203080      0.000000
     -0.005336      3.815850      0.000000
     -0.007546      5.396420      0.000000
ITEM: ATOMS id type xs ys zs
     1     1      0.044995      0.989324      0.988060
     2     1      0.294533      0.239825      0.987868
     3     1      0.273373      0.410925      0.151622
     4     1      0.025838      0.160053      0.150638
     5     1      0.969029      0.016270      0.321241
     6     1      0.218667      0.264460      0.319313
     7     1      0.211548      0.444734      0.485698
     8     1      0.954188      0.203831      0.491762
     9     1      0.909854      0.044951      0.656619
    10     1      0.159116      0.294596      0.657763
    11     1      0.328194      0.400266      0.823802
    12     1      0.079723      0.145733      0.824155
    13     1      0.040617      0.487982      0.984660
    14     1      0.295283      0.739995      0.986677
    15     1      0.278850      0.911281      0.152052
    16     1      0.026242      0.659958      0.151988
    17     1      0.971132      0.513961      0.320747
    18     1      0.221907      0.764371      0.319531
    19     1      0.202730      0.942943      0.483792
    20     1      0.959663      0.693697      0.484547
    21     1      0.908139      0.543107      0.650162
    22     1      0.155943      0.792959      0.652647
    23     1      0.325565      0.898705      0.821183
    24     1      0.071643      0.648547      0.821230
    25     1      0.547243      0.990621      0.985097
    26     1      0.790864      0.239234      0.983492
    27     1      0.775965      0.411093      0.152160
    28     1      0.527413      0.161086      0.152006
    29     1      0.473593      0.013951      0.321422
    30     1      0.722435      0.265254      0.320627
    31     1      0.704932      0.448129      0.483104
    32     1      0.454215      0.191191      0.482003
    33     1      0.402204      0.038942      0.647465
    34     1      0.650697      0.293019      0.644935
    35     1      0.831771      0.388746      0.812571
    36     1      0.575603      0.147652      0.811013
    37     1      0.543079      0.490293      0.988239
    38     1      0.795837      0.738967      0.987364
    39     1      0.778224      0.909598      0.151660
    40     1      0.526438      0.661368      0.152392
    41     1      0.471297      0.515433      0.318260
    42     1      0.719951      0.765212      0.321061
    43     1      0.707042      0.945848      0.493472
    44     1      0.459482      0.695129      0.485257
    45     1      0.407153      0.543292      0.653082
    46     1      0.655987      0.790269      0.656007
    47     1      0.824470      0.898805      0.823156
    48     1      0.575642      0.646709      0.823262
ITEM: TIMESTEP
64250
ITEM: NUMBER OF ATOMS
48
ITEM: BOX BOUNDS xy xz yz  pp  pp  pp
     -0.003081      2.203080      0.000000
     -0.005336      3.815850      0.000000
     -0.007546      5.396420      0.000000
ITEM: ATOMS id type xs ys zs
     1     1      0.045905      0.989130      0.988637
     2     1      0.293651      0.239882      0.987908
     3     1      0.274710      0.410723      0.151303
     4     1      0.025263      0.161038      0.150360
     5     1      0.969623      0.016661      0.320950
     6     1      0.219185      0.264916      0.318820
     7     1      0.210335      0.444155      0.485456
     8     1      0.954735      0.199003      0.489830
     9     1      0.907667      0.044225      0.656268
    10     1      0.158345      0.293045      0.656783
    11     1      0.328636      0.399871      0.823693
    12     1      0.079038      0.146952      0.824337
    13     1      0.040923      0.487864      0.984802
    14     1      0.294101      0.739174      0.986887
    15     1      0.280130      0.911365      0.152092
    16     1      0.027587      0.659503      0.151739
    17     1      0.971394      0.514502      0.320274
    18     1      0.221881      0.766004      0.319254
    19     1      0.202666      0.941989      0.483904
    20     1      0.960508      0.694263      0.484357
    21     1      0.906546      0.542227      0.649990
    22     1      0.156525      0.791869      0.652424
    23     1      0.326205      0.898101      0.820950
    24     1      0.072377      0.648649      0.820870
    25     1      0.546808      0.990639      0.985290
    26     1      0.790661      0.239200      0.983615
    27     1      0.776325      0.410843      0.152376
    28     1      0.526850      0.162013      0.152230
    29     1      0.473112      0.013695      0.320679
    30     1      0.721795      0.265635      0.321215
    31     1      0.706552      0.446722      0.483147
    32     1      0.453400      0.192127      0.482454
    33     1      0.402602      0.039487      0.648455
    34     1      0.651884      0.292247      0.645604
    35     1      0.830720      0.392499      0.814931
    36     1      0.577127      0.148262      0.814513
    37     1      0.544155      0.491238      0.988505
    38     1      0.794864      0.738646      0.987464
    39     1      0.779068      0.910410      0.152077
    40     1      0.527248      0.661830      0.152341
    41     1      0.470132      0.515969      0.318646
    42     1      0.720603      0.764914      0.321009
    43     1      0.706242      0.945962      0.490497
    44     1      0.461041      0.694551      0.485539
    45     1      0.406590      0.542550      0.653277
    46     1      0.657422      0.790867      0.655423
    47     1      0.825482      0.899560      0.823120
    48     1      0.576928      0.646504      0.822663
ITEM: TIMESTEP
64300
ITEM: NUMBER OF ATOMS
48
ITEM: BOX BOUNDS xy xz yz  pp  pp  pp
     -0.003081      2.203080      0.000000
     -0.005336      3.815850      0.000000
     -0.007546      5.396420      0.000000
ITEM: ATOMS id type xs ys zs
     1     1      0.046650      0.989078      0.987915
     2     1      0.294445      0.240050      0.987747
     3     1      0.274380      0.411685      0.151172
     4     1      0.025637      0.161030      0.150599
     5     1      0.970072      0.016484      0.320274
     6     1      0.218733      0.265173      0.318829
     7     1      0.208759      0.443300      0.486031
     8     1      0.955439      0.196204      0.488722
     9     1      0.906553      0.043404      0.655902
    10     1      0.156430      0.292513      0.656139
    11     1      0.329645      0.399280      0.823248
    12     1      0.079446      0.146958      0.824150
    13     1      0.041685      0.488249      0.985231
    14     1      0.294943      0.739166      0.986720
    15     1      0.280427      0.911715      0.152306
    16     1      0.028216      0.659899      0.151907
    17     1      0.970699      0.514934      0.319762
    18     1      0.220727      0.765505      0.319353
    19     1      0.202592      0.942133      0.484382
    20     1      0.960260      0.693574      0.484516
    21     1      0.906003      0.542167      0.650485
    22     1      0.157732      0.790654      0.652643
    23     1      0.326665      0.897716      0.820865
    24     1      0.073021      0.648542      0.820833
    25     1      0.546195      0.990537      0.985647
    26     1      0.791550      0.239745      0.984055
    27     1      0.776373      0.411032      0.152229
    28     1      0.526437      0.162043      0.153256
    29     1      0.473201      0.013784      0.321222
    30     1      0.721535      0.265139      0.321105
    31     1      0.705683      0.446447      0.483341
    32     1      0.453333      0.191416      0.482827
    33     1      0.403958      0.039231      0.649824
    34     1      0.652940      0.291923      0.646626
    35     1      0.830610      0.395479      0.816473
    36     1      0.578190      0.148826      0.816425
    37     1      0.543478      0.490587      0.988227
    38     1      0.795648      0.739106      0.987600
    39     1      0.778779      0.910993      0.151318
    40     1      0.528612      0.662096      0.152262
    41     1      0.468180      0.515060      0.318697
    42     1      0.721711      0.765576      0.320662
    43     1      0.705675      0.944902      0.488928
    44     1      0.459199      0.695062      0.485268
    45     1      0.406629      0.540881      0.652996
    46     1      0.656710      0.791063      0.654732
    47     1      0.824510      0.899429      0.823056
    48     1      0.576010      0.647534      0.822577
ITEM: TIMESTEP
64350
ITEM: NUMBER OF ATOMS
48
ITEM: BOX BOUNDS xy xz yz  pp  pp  pp
     -0.003081      2.203080      0.000000
     -0.005336      3.815850      0.000000
     -0.007546      5.396420      0.000000
ITEM: ATOMS id type xs ys zs
     1     1      0.046314      0.989348      0.987872
     2     1      0.294978      0.239360      0.987478
     3     1      0.276020      0.412139      0.151361
     4     1      0.026252      0.161538      0.150712
     5     1      0.970611      0.016906      0.319637
     6     1      0.219302      0.265167      0.319127
     7     1      0.208311      0.442281      0.486407
     8     1      0.955104      0.194492      0.488148
     9     1      0.905348      0.042725      0.655807
    10     1      0.156196      0.292227      0.655601
    11     1      0.328253      0.399909      0.823037
    12     1      0.078674      0.148212      0.823769
    13     1      0.043391      0.488074      0.985997
    14     1      0.294778      0.739326      0.986491
    15     1      0.280338      0.911875      0.152060
    16     1      0.029477      0.660332      0.151820
    17     1      0.972018      0.514913      0.320184
    18     1      0.221338      0.764715      0.319457
    19     1      0.203717      0.941475      0.484720
    20     1      0.959019      0.693582      0.484457
    21     1      0.906337      0.541067      0.650263
    22     1      0.157339      0.791061      0.651777
    23     1      0.325789      0.898779      0.820934
    24     1      0.073996      0.648947      0.820639
    25     1      0.545498      0.990253      0.985837
    26     1      0.790830      0.240041      0.985150
    27     1      0.776248      0.411349      0.151941
    28     1      0.526890      0.161841      0.152946
    29     1      0.472178      0.013659      0.321011
    30     1      0.721819      0.264950      0.321072
    31     1      0.705064      0.445396      0.482775
    32     1      0.452933      0.191578      0.482735
    33     1      0.406026      0.039284      0.649947
    34     1      0.653175      0.291350      0.647606
    35     1      0.827987      0.396117      0.817331
    36     1      0.576683      0.148509      0.817616
    37     1      0.544418      0.490299      0.987866
    38     1      0.796165      0.739367      0.987304
    39     1      0.778991      0.911580      0.151938
    40     1      0.527981      0.662342      0.151860
    41     1      0.468513      0.515391      0.319341
    42     1      0.721524      0.765968      0.320234
    43     1      0.706752      0.944266      0.488056
    44     1      0.459177      0.694947      0.485371
    45     1      0.406414      0.541711      0.653585
    46     1      0.657454      0.791228      0.654271
    47     1      0.825069      0.899277      0.823317
    48     1      0.575274      0.648272      0.822507
ITEM: TIMESTEP
64400
ITEM: NUMBER OF ATOMS
48
ITEM: BOX BOUNDS xy xz yz  pp  pp  pp
     -0.003081      2.203080      0.000000
     -0.005336      3.815850      0.000000
     -0.007546      5.396420      0.000000
ITEM: ATOMS id type xs ys zs
     1     1      0.046370      0.989762      0.987111
     2     1      0.295397      0.239205      0.987897
     3     1      0.276688      0.411422      0.151257
     4     1      0.027350      0.161231      0.150593
     5     1      0.969732      0.016690      0.319850
     6     1      0.219068      0.265330      0.319087
     7     1      0.207521      0.443441      0.485993
     8     1      0.954717      0.193728      0.487900
     9     1      0.905364      0.041845      0.655232
    10     1      0.155008      0.291330      0.655785
    11     1      0.328478      0.399189      0.822743
    12     1      0.077733      0.148897      0.823555
    13     1      0.041715      0.488072      0.985390
    14     1      0.294529      0.739468      0.986538
    15     1      0.280828      0.911482      0.151865
    16     1      0.030266      0.661445      0.151340
    17     1      0.970784      0.515082      0.319497
    18     1      0.221630      0.764760      0.319557
    19     1      0.203248      0.941190      0.484713
    20     1      0.957976      0.692780      0.484652
    21     1      0.905303      0.540967      0.650732
    22     1      0.156339      0.790517      0.651731
    23     1      0.325520      0.899507      0.821047
    24     1      0.073629      0.648544      0.820711
    25     1      0.546952      0.990533      0.986131
    26     1      0.791464      0.240418      0.985364
    27     1      0.775845      0.410843      0.152219
    28     1      0.528089      0.161172      0.153172
    29     1      0.472206      0.013971      0.320854
    30     1      0.720974      0.264764      0.320575
    31     1      0.706022      0.443562      0.483165
    32     1      0.453580      0.191242      0.483209
    33     1      0.405706      0.039688      0.650768
    34     1      0.653957      0.291500      0.648459
    35     1      0.827352      0.397131      0.818185
    36     1      0.576234      0.148722      0.818512
    37     1      0.543410      0.490430      0.987816
    38     1      0.796491      0.739406      0.987171
    39     1      0.779147      0.911034      0.151264
    40     1      0.528730      0.661834      0.151739
    41     1      0.470051      0.515332      0.318971
    42     1      0.722394      0.765412      0.320238
    43     1      0.707105      0.943580      0.487028
    44     1      0.458049      0.693471      0.485341
    45     1      0.405722      0.541384      0.653096
    46     1      0.656906      0.790431      0.653919
    47     1      0.825102      0.899166      0.823187
    48     1      0.575326      0.648633      0.822725
ITEM: TIMESTEP
64450
ITEM: NUMBER OF ATOMS
48
ITEM: BOX BOUNDS xy xz yz  pp  pp  pp
     -0.003081      2.203080      0.000000
     -0.005336      3.815850      0.000000
     -0.007546      5.396420      0.000000
ITEM: ATOMS id type xs ys zs
     1     1      0.046430      0.989486      0.987460
     2     1      0.295683      0.240555      0.987215
     3     1      0.275838      0.411662      0.150522
     4     1      0.027060      0.162086      0.150704
     5     1      0.969416      0.015960      0.319590
     6     1      0.221115      0.265486      0.318859
     7     1      0.207115      0.442437      0.485534
     8     1      0.954898      0.193663      0.487066
     9     1      0.906136      0.041069      0.654806
    10     1      0.155031      0.291718      0.654547
    11     1      0.326549      0.399738      0.822256
    12     1      0.076201      0.148767      0.822923
    13     1      0.053467      0.488198      0.985626
    14     1      0.295286      0.740348      0.986672
    15     1      0.279325      0.911629      0.151582
    16     1      0.030096      0.660828      0.150735
    17     1      0.971578      0.514747      0.319291
    18     1      0.222248      0.764448      0.319813
    19     1      0.204459      0.940956      0.484343
    20     1      0.958672      0.691280      0.485119
    21     1      0.848179      0.543999      0.672483
    22     1      0.156047      0.790338      0.651979
    23     1      0.324733      0.899315      0.821352
    24     1      0.075238      0.649604      0.821746
    25     1      0.545929      0.990511      0.986427
    26     1      0.792692      0.239213      0.985542
    27     1      0.774903      0.410831      0.151641
    28     1      0.527354      0.161756      0.152760
    29     1      0.472203      0.013984      0.320411
    30     1      0.721763      0.265288      0.320597
    31     1      0.705902      0.443578      0.483644
    32     1      0.453416      0.191394      0.483083
    33     1      0.405145      0.040153      0.650781
    34     1      0.654544      0.290382      0.648786
    35     1      0.830928      0.392594      0.819986
    36     1      0.574267      0.148265      0.819059
    37     1      0.599794      0.489667      0.966378
    38     1      0.795673      0.739982      0.987314
    39     1      0.779016      0.911230      0.151649
    40     1      0.529859      0.661537      0.150951
    41     1      0.470609      0.515293      0.318612
    42     1      0.722625      0.765412      0.320157
    43     1      0.706551      0.943016      0.486618
    44     1      0.457833      0.692640      0.485217
    45     1      0.395236      0.540622      0.652520
    46     1      0.656141      0.792259      0.652867
    47     1      0.823903      0.899084      0.822972
    48     1      0.573101      0.651834      0.820530
ITEM: TIMESTEP
64500
ITEM: NUMBER OF ATOMS
48
ITEM: BOX BOUNDS xy xz yz  pp  pp  pp
     -0.003081      2.203080      0.000000
     -0.005336      3.815850      0.000000
     -0.007546      5.396420      0.000000
ITEM: ATOMS id type xs ys zs
     1     1      0.046974      0.989767      0.987087
     2     1      0.297572      0.241049      0.987065
     3     1      0.278101      0.412364      0.151073
     4     1      0.026611      0.162020      0.150981
     5     1      0.970143      0.015899      0.320557
     6     1      0.220184      0.265403      0.319006
     7     1      0.205860      0.441212      0.485128
     8     1      0.955148      0.192964      0.486811
     9     1      0.905729      0.040824      0.654642
    10     1      0.153858      0.291942      0.654134
    11     1      0.328940      0.398939      0.820814
    12     1      0.078136      0.147421      0.822796
    13     1      0.061022      0.488701      0.985102
    14     1      0.297974      0.739732      0.986559
    15     1      0.279063      0.911339      0.151387
    16     1      0.029676      0.661092      0.151389
    17     1      0.970005      0.514850      0.319009