ITEM: TIMESTEP
64001
ITEM: NUMBER OF ATOMS
48
ITEM: BOX BOUNDS xy xz yz  pp  pp  pp
     -0.003081      2.203080      0.000000
     -0.005336      3.815850      0.000000
     -0.007546      5.396420      0.000000
ITEM: ATOMS id type xs ys zs
     1     1      0.048959      0.988188      0.986941
     2     1      0.293109      0.237126      0.986182
     3     1      0.272461      0.408487      0.151500
     4     1      0.022424      0.159253      0.150382
     5     1      0.967199      0.015260      0.319003
     6     1      0.220413      0.262910      0.318828
     7     1      0.212187      0.443386      0.485099
     8     1      0.958851      0.195698      0.485143
     9     1      0.907563      0.044434      0.651733
    10     1      0.153864      0.294579      0.653626
    11     1      0.322648      0.400859      0.822812
    12     1      0.073383      0.149447      0.821787
    13     1      0.038972      0.487138      0.987035
    14     1      0.292117      0.735959      0.986798
    15     1      0.278081      0.908714      0.151249
    16     1      0.026468      0.657956      0.152757
    17     1      0.972051      0.513579      0.320666
    18     1      0.219063      0.764654      0.319919
    19     1      0.208894      0.943832      0.484229
    20     1      0.963912      0.692913      0.485630
    21     1      0.904382      0.544166      0.652533
    22     1      0.157777      0.794929      0.653276
    23     1      0.329621      0.899398      0.821714
    24     1      0.074026      0.649367      0.821668
    25     1      0.549313      0.987192      0.986196
    26     1      0.791333      0.238039      0.985536
    27     1      0.772880      0.410088      0.153158
    28     1      0.523685      0.159542      0.151507
    29     1      0.467896      0.015911      0.319809
    30     1      0.720604      0.264936      0.320206
    31     1      0.709980      0.444786      0.484521
    32     1      0.459155      0.193459      0.484247
    33     1      0.409038      0.042699      0.650955
    34     1      0.651788      0.294743      0.651251
    35     1      0.823659      0.399448      0.820470
    36     1      0.572227      0.150140      0.820230
    37     1      0.541822      0.488303      0.988032
    38     1      0.794247      0.738052      0.988787
    39     1      0.776636      0.909043      0.152320
    40     1      0.525638      0.659802      0.152821
    41     1      0.469363      0.513532      0.319471
    42     1      0.720640      0.764053      0.320679
    43     1      0.712099      0.943227      0.483988
    44     1      0.462367      0.694570      0.485133
    45     1      0.404181      0.544642      0.653386
    46     1      0.658576      0.793910      0.653161
    47     1      0.828961      0.898894      0.822379
    48     1      0.575874      0.649160      0.822944
ITEM: TIMESTEP
64050
ITEM: NUMBER OF ATOMS
48
ITEM: BOX BOUNDS xy xz yz  pp  pp  pp
     -0.003081      2.203080      0.000000
     -0.005336      3.815850      0.000000
     -0.007546      5.396420      0.000000
ITEM: ATOMS id type xs ys zs
     1     1      0.047871      0.987834      0.986423
     2     1      0.294450      0.238364      0.986341
     3     1      0.272186      0.409704      0.151678
     4     1      0.023133      0.159562      0.151297
     5     1      0.969165      0.014701      0.318885
     6     1      0.221047      0.264058      0.319310
     7     1      0.210065      0.443172      0.485494
     8     1      0.958634      0.195392      0.485647
     9     1      0.907078      0.044345      0.651812
    10     1      0.154213      0.294429      0.653191
    11     1      0.323307      0.399730      0.822422
    12     1      0.072238      0.149095      0.821244
    13     1      0.041328      0.487264      0.987252
    14     1      0.292552      0.736882      0.986851
    15     1      0.278149      0.909290      0.151757
    16     1      0.026256      0.658695      0.152359
    17     1      0.971266      0.514230      0.320803
    18     1      0.218344      0.763496      0.320372
    19     1      0.209278      0.942883      0.484521
    20     1      0.906758      0.723036      0.509378
    21     1      0.905144      0.543416      0.653123
    22     1      0.163691      0.794245      0.653740
    23     1      0.334899      0.899991      0.821213
    24     1      0.080089      0.640843      0.823112
    25     1      0.548856      0.987344      0.986390
    26     1      0.792614      0.238728      0.986175
    27     1      0.773256      0.409770      0.152494
    28     1      0.525176      0.159576      0.151340
    29     1      0.467935      0.014775      0.319867
    30     1      0.719761      0.265281      0.320116
    31     1      0.710078      0.444502      0.484547
    32     1      0.457934      0.193409      0.484208
    33     1      0.407826      0.043142      0.650882
    34     1      0.652905      0.294663      0.651086
    35     1      0.823065      0.398791      0.820497
    36     1      0.572773      0.149456      0.820475
    37     1      0.541944      0.488379      0.987986
    38     1      0.794336      0.738246      0.987635
    39     1      0.776868      0.908542      0.152258
    40     1      0.525979      0.659827      0.152711
    41     1      0.470302      0.514045      0.319722
    42     1      0.720323      0.765121      0.321379
    43     1      0.705479      0.950268      0.483653
    44     1      0.455234      0.693294      0.485131
    45     1      0.405223      0.544036      0.653184
    46     1      0.647894      0.793272      0.653538
    47     1      0.885349      0.868647      0.798634
    48     1      0.573755      0.649410      0.822678
ITEM: TIMESTEP
64100
ITEM: NUMBER OF ATOMS
48
ITEM: BOX BOUNDS xy xz yz  pp  pp  pp
     -0.003081      2.203080      0.000000
     -0.005336      3.815850      0.000000
     -0.007546      5.396420      0.000000
ITEM: ATOMS id type xs ys zs
     1     1      0.045547      0.987187      0.985538
     2     1      0.294661      0.239031      0.986134
     3     1      0.274300      0.410758      0.151801
     4     1      0.023863      0.160030      0.151636
     5     1      0.968595      0.014211      0.320018
     6     1      0.222035      0.264181      0.319570
     7     1      0.207658      0.444445      0.486151
     8     1      0.958555      0.195329      0.485369
     9     1      0.906744      0.044321      0.650329
    10     1      0.154612      0.293133      0.653056
    11     1      0.325139      0.397936      0.822023
    12     1      0.072264      0.148432      0.821241
    13     1      0.041947      0.487555      0.987619
    14     1      0.294358      0.737969      0.987368
    15     1      0.276626      0.910084      0.151834
    16     1      0.026085      0.659638      0.152514
    17     1      0.970638      0.515313      0.321174
    18     1      0.217827      0.763822      0.320752
    19     1      0.206996      0.943056      0.484673
    20     1      0.926421      0.710865      0.499575
    21     1      0.904387      0.542448      0.654069
    22     1      0.162964      0.793527      0.655575
    23     1      0.345936      0.899633      0.821367
    24     1      0.085177      0.639400      0.822195
    25     1      0.547980      0.988193      0.986660
    26     1      0.792510      0.238508      0.986173
    27     1      0.774842      0.409748      0.152781
    28     1      0.524604      0.160614      0.151385
    29     1      0.468780      0.014799      0.318846
    30     1      0.721167      0.264118      0.320039
    31     1      0.709788      0.444610      0.485085
    32     1      0.455390      0.194429      0.484278
    33     1      0.406656      0.043412      0.651148
    34     1      0.654625      0.292956      0.651150
    35     1      0.821387      0.398083      0.821709
    36     1      0.574585      0.148340      0.820834
    37     1      0.543185      0.488844      0.987542
    38     1      0.796257      0.738682      0.986430
    39     1      0.776387      0.909066      0.153030
    40     1      0.526537      0.660365      0.152669
    41     1      0.469470      0.514185      0.320023
    42     1      0.721568      0.764167      0.322046
    43     1      0.700364      0.952779      0.484503
    44     1      0.446487      0.693159      0.485133
    45     1      0.404897      0.543000      0.653989
    46     1      0.642942      0.793718      0.652373
    47     1      0.867789      0.881680      0.808757
    48     1      0.576831      0.648112      0.822492
ITEM: TIMESTEP
64150
ITEM: NUMBER OF ATOMS
48
ITEM: BOX BOUNDS xy xz yz  pp  pp  pp
     -0.003081      2.203080      0.000000
     -0.005336      3.815850      0.000000
     -0.007546      5.396420      0.000000
ITEM: ATOMS id type xs ys zs
     1     1      0.047195      0.986788      0.984625
     2     1      0.294379      0.238414      0.986283
     3     1      0.275042      0.410761      0.151913
     4     1      0.025929      0.160016      0.151385
     5     1      0.969034      0.014742      0.320371
     6     1      0.220936      0.264720      0.319356
     7     1      0.204132      0.444475      0.486528
     8     1      0.957728      0.194849      0.485290
     9     1      0.905556      0.043384      0.650726
    10     1      0.155228      0.292819      0.653292
    11     1      0.327153      0.397181      0.822025
    12     1      0.073779      0.147750      0.820885
    13     1      0.042722      0.487724      0.987654
    14     1      0.294913      0.738789      0.986928
    15     1      0.275748      0.910469      0.151993
    16     1      0.025463      0.660334      0.152349
    17     1      0.970162      0.514757      0.320832
    18     1      0.216563      0.764764      0.320546
    19     1      0.205046      0.943475      0.485483
    20     1      0.933871      0.705237      0.494350
    21     1      0.904529      0.542775      0.654357
    22     1      0.159337      0.793235      0.655852
    23     1      0.348733      0.897752      0.820773
    24     1      0.085778      0.640914      0.822017
    25     1      0.548735      0.988176      0.987203
    26     1      0.792243      0.238316      0.986341
    27     1      0.775703      0.409917      0.152535
    28     1      0.526605      0.160905      0.151316
    29     1      0.469661      0.014436      0.319069
    30     1      0.720937      0.263859      0.320121
    31     1      0.707503      0.444595      0.485484
    32     1      0.454725      0.195528      0.484276
    33     1      0.405081      0.043692      0.651178
    34     1      0.656438      0.291219      0.651558
    35     1      0.822582      0.397204      0.821372
    36     1      0.576379      0.147298      0.821147
    37     1      0.544403      0.489243      0.987831
    38     1      0.795543      0.739402      0.985925
    39     1      0.775854      0.910263      0.152973
    40     1      0.526438      0.659997      0.152894
    41     1      0.469570      0.513812      0.320887
    42     1      0.719228      0.763621      0.321552
    43     1      0.700002      0.950221      0.485129
    44     1      0.443946      0.692153      0.485371
    45     1      0.405278      0.541730      0.654234
    46     1      0.646800      0.793652      0.651666
    47     1      0.859102      0.888151      0.813607
    48     1      0.579515      0.647943      0.821569
ITEM: TIMESTEP
64200
ITEM: NUMBER OF ATOMS
48
ITEM: BOX BOUNDS xy xz yz  pp  pp  pp
     -0.003081      2.203080      0.000000
     -0.005336      3.815850      0.000000
     -0.007546      5.396420      0.000000
ITEM: ATOMS id type xs ys zs
     1     1      0.046448      0.988000      0.985152
     2     1      0.295024      0.238270      0.985895
     3     1      0.276586      0.411052      0.151756
     4     1      0.027399      0.160345      0.151297
     5     1      0.966459      0.015865      0.320416
     6     1      0.217761      0.265601      0.318360
     7     1      0.199755      0.447283      0.511721
     8     1      0.955841      0.196093      0.484693
     9     1      0.947943      0.022667      0.638974
    10     1      0.153562      0.290129      0.654557
    11     1      0.326600      0.396576      0.822352
    12     1      0.074422      0.146302      0.819483
    13     1      0.043720      0.488307      0.986925
    14     1      0.294608      0.738269      0.986960
    15     1      0.275337      0.910768      0.152402
    16     1      0.025875      0.659720      0.152294
    17     1      0.970054      0.515380      0.321044
    18     1      0.215057      0.765470      0.320572
    19     1      0.196606      0.940128      0.480932
    20     1      0.934783      0.703743      0.491887
    21     1      0.905109      0.544071      0.652374
    22     1      0.167823      0.783252      0.655407
    23     1      0.346885      0.896321      0.820722
    24     1      0.084690      0.643096      0.822316
    25     1      0.548514      0.988782      0.987396
    26     1      0.794796      0.238681      0.986899
    27     1      0.776162      0.410618      0.152204
    28     1      0.526926      0.160029      0.151614
    29     1      0.469867      0.015284      0.320337
    30     1      0.719490      0.265227      0.320247
    31     1      0.705961      0.445729      0.485646
    32     1      0.443697      0.206456      0.484539
    33     1      0.413427      0.046337      0.655760
    34     1      0.655809      0.288927      0.650345
    35     1      0.825890      0.397454      0.797167
    36     1      0.578181      0.147981      0.822661
    37     1      0.545181      0.490266      0.987552
    38     1      0.797874      0.740011      0.986022
    39     1      0.776157      0.910234      0.152896
    40     1      0.526863      0.660458      0.152720
    41     1      0.468193      0.514082      0.320645
    42     1      0.716763      0.765259      0.321748
    43     1      0.660170      0.966184      0.497264
    44     1      0.443899      0.693349      0.486217
    45     1      0.410944      0.541768      0.655292
    46     1      0.650383      0.791809      0.652613
    47     1      0.854214      0.891943      0.814228
    48     1      0.582121      0.647038      0.821645
ITEM: TIMESTEP
64250
ITEM: NUMBER OF ATOMS
48
ITEM: BOX BOUNDS xy xz yz  pp  pp  pp
     -0.003081      2.203080      0.000000
     -0.005336      3.815850      0.000000
     -0.007546      5.396420      0.000000
ITEM: ATOMS id type xs ys zs
     1     1      0.048183      0.989088      0.985433
     2     1      0.294922      0.239135      0.986856
     3     1      0.277547      0.411832      0.151572
     4     1      0.025665      0.160173      0.151330
     5     1      0.963251      0.015980      0.320429
     6     1      0.216321      0.266139      0.318217
     7     1      0.195122      0.449590      0.498237
     8     1      0.951881      0.196078      0.485004
     9     1      0.937650      0.029085      0.644723
    10     1      0.152423      0.287772      0.655717
    11     1      0.327352      0.396120      0.822493
    12     1      0.075938      0.145042      0.819926
    13     1      0.040908      0.487047      0.985391
    14     1      0.295127      0.738225      0.987521
    15     1      0.275902      0.910777      0.151782
    16     1      0.026339      0.660076      0.152469
    17     1      0.971268      0.516723      0.322213
    18     1      0.215144      0.765039      0.319973
    19     1      0.192521      0.941861      0.483065
    20     1      0.937563      0.702611      0.489137
    21     1      0.908818      0.544779      0.650829
    22     1      0.166801      0.783689      0.654296
    23     1      0.345187      0.895053      0.820460
    24     1      0.085429      0.643123      0.822067
    25     1      0.549026      0.988472      0.987241
    26     1      0.795907      0.240098      0.985369
    27     1      0.776975      0.410133      0.152541
    28     1      0.528430      0.160875      0.151694
    29     1      0.467887      0.015717      0.319844
    30     1      0.718884      0.265591      0.320317
    31     1      0.705566      0.446911      0.485372
    32     1      0.442509      0.203897      0.484158
    33     1      0.415019      0.044275      0.653246
    34     1      0.655817      0.287305      0.648055
    35     1      0.828665      0.396724      0.810357
    36     1      0.578652      0.147652      0.822143
    37     1      0.544248      0.489154      0.987206
    38     1      0.799227      0.740062      0.985879
    39     1      0.776653      0.910822      0.152327
    40     1      0.527582      0.661292      0.152924
    41     1      0.467487      0.514159      0.321145
    42     1      0.714801      0.766531      0.321627
    43     1      0.673531      0.957711      0.492278
    44     1      0.443853      0.693426      0.486206
    45     1      0.414781      0.540709      0.657387
    46     1      0.655080      0.791500      0.652197
    47     1      0.849258      0.893405      0.815862
    48     1      0.584262      0.647591      0.822850
ITEM: TIMESTEP
64300
ITEM: NUMBER OF ATOMS
48
ITEM: BOX BOUNDS xy xz yz  pp  pp  pp
     -0.003081      2.203080      0.000000
     -0.005336      3.815850      0.000000
     -0.007546      5.396420      0.000000
ITEM: ATOMS id type xs ys zs
     1     1      0.047542      0.989727      0.986240
     2     1      0.294661      0.238796      0.986869
     3     1      0.278111      0.410796      0.153092
     4     1      0.028988      0.161325      0.152404
     5     1      0.964415      0.018558      0.321250
     6     1      0.182747      0.289956      0.334160
     7     1      0.205401      0.446912      0.495549
     8     1      0.940230      0.213595      0.490825
     9     1      0.929674      0.032828      0.646674
    10     1      0.153928      0.285936      0.656617
    11     1      0.326795      0.394819      0.824551
    12     1      0.076590      0.144636      0.820020
    13     1      0.042167      0.487713      0.985907
    14     1      0.294872      0.738527      0.987292
    15     1      0.276821      0.911925      0.151409
    16     1      0.027298      0.661533      0.151131
    17     1      0.957994      0.523057      0.316130
    18     1      0.221790      0.768188      0.316943
    19     1      0.191039      0.942729      0.484623
    20     1      0.978290      0.680482      0.472730
    21     1      0.909948      0.543258      0.650231
    22     1      0.167375      0.783281      0.651686
    23     1      0.343245      0.895428      0.820073
    24     1      0.084168      0.643928      0.821508
    25     1      0.549306      0.989047      0.987368
    26     1      0.796080      0.239781      0.985089
    27     1      0.777652      0.409328      0.152018
    28     1      0.527697      0.160336      0.150925
    29     1      0.465764      0.016875      0.319059
    30     1      0.705713      0.265678      0.319562
    31     1      0.698096      0.450411      0.485435
    32     1      0.442003      0.200492      0.484762
    33     1      0.415346      0.041243      0.652345
    34     1      0.663893      0.281938      0.648935
    35     1      0.828063      0.396694      0.814608
    36     1      0.578843      0.147794      0.821850
    37     1      0.546687      0.489929      0.987414
    38     1      0.798738      0.739355      0.986054
    39     1      0.776998      0.910845      0.152633
    40     1      0.527459      0.660629      0.152415
    41     1      0.467054      0.516553      0.321454
    42     1      0.715568      0.768339      0.321462
    43     1      0.682682      0.954305      0.488858
    44     1      0.457099      0.694332      0.486793
    45     1      0.420386      0.519828      0.657170
    46     1      0.657961      0.788772      0.651734
    47     1      0.845100      0.894100      0.817123
    48     1      0.582799      0.646556      0.821471
ITEM: TIMESTEP
64350
ITEM: NUMBER OF ATOMS
48
ITEM: BOX BOUNDS xy xz yz  pp  pp  pp
     -0.003081      2.203080      0.000000
     -0.005336      3.815850      0.000000
     -0.007546      5.396420      0.000000
ITEM: ATOMS id type xs ys zs
     1     1      0.046728      0.989344      0.986025
     2     1      0.296629      0.238562      0.987135
     3     1      0.277471      0.411034      0.152558
     4     1      0.030758      0.161611      0.153050
     5     1      0.963481      0.019314      0.321724
     6     1      0.192298      0.281190      0.328235
     7     1      0.202738      0.447350      0.492830
     8     1      0.939292      0.205984      0.489805
     9     1      0.924919      0.034160      0.647684
    10     1      0.157519      0.287011      0.656008
    11     1      0.319949      0.392168      0.821061
    12     1      0.077759      0.143993      0.821347
    13     1      0.044455      0.487932      0.986171
    14     1      0.298468      0.740036      0.987536
    15     1      0.276332      0.911646      0.150750
    16     1      0.027355      0.662028      0.150286
    17     1      0.957785      0.522308      0.318249
    18     1      0.221667      0.768144      0.317175
    19     1      0.190413      0.942857      0.486157
    20     1      0.966948      0.687548      0.479176
    21     1      0.908829      0.542532      0.663995
    22     1      0.167281      0.782341      0.651379
    23     1      0.338802      0.897018      0.819660
    24     1      0.087975      0.647635      0.825733
    25     1      0.547843      0.989739      0.986805
    26     1      0.796879      0.239537      0.986029
    27     1      0.777472      0.410946      0.150337
    28     1      0.528826      0.159815      0.150691
    29     1      0.462465      0.018303      0.319586
    30     1      0.700721      0.266473      0.319996
    31     1      0.700243      0.449973      0.487754
    32     1      0.439349      0.198476      0.485450
    33     1      0.414132      0.038781      0.651487
    34     1      0.666252      0.282761      0.650236
    35     1      0.826234      0.392497      0.820011
    36     1      0.577983      0.148031      0.821521
    37     1      0.549708      0.488995      0.973846
    38     1      0.797728      0.740009      0.985779
    39     1      0.777102      0.911313      0.152393
    40     1      0.528575      0.660532      0.151533
    41     1      0.464622      0.518024      0.321789
    42     1      0.716044      0.769716      0.321316
    43     1      0.687626      0.950577      0.487132
    44     1      0.457447      0.694871      0.486973
    45     1      0.420559      0.527615      0.656333
    46     1      0.660258      0.788917      0.651274
    47     1      0.842127      0.894588      0.817692
    48     1      0.583506      0.650370      0.818357
ITEM: TIMESTEP
64400
ITEM: NUMBER OF ATOMS
48
ITEM: BOX BOUNDS xy xz yz  pp  pp  pp
     -0.003081      2.203080      0.000000
     -0.005336      3.815850      0.000000
     -0.007546      5.396420      0.000000
ITEM: ATOMS id type xs ys zs
     1     1      0.048159      0.988968      0.986248
     2     1      0.297284      0.239966      0.986741
     3     1      0.278922      0.411633      0.152331
     4     1      0.030741      0.162488      0.153348
     5     1      0.962293      0.020232      0.321648
     6     1      0.195953      0.276864      0.325223
     7     1      0.200812      0.447907      0.490047
     8     1      0.937427      0.200420      0.487689
     9     1      0.922691      0.033743      0.648833
    10     1      0.154507      0.283172      0.649892
    11     1      0.324749      0.393219      0.805941
    12     1      0.077907      0.144659      0.821296
    13     1      0.048084      0.487558      0.985981
    14     1      0.299650      0.740614      0.987491
    15     1      0.276037      0.911756      0.150461
    16     1      0.027705      0.661633      0.150350
    17     1      0.956308      0.521730      0.320192
    18     1      0.218669      0.768898      0.317985
    19     1      0.191288      0.943411      0.486546
    20     1      0.960385      0.691034      0.482466
    21     1      0.916658      0.542743      0.661001
    22     1      0.167910      0.782965      0.651497
    23     1      0.338216      0.896047      0.820221
    24     1      0.086666      0.647959      0.825098
    25     1      0.548189      0.990521      0.986511
    26     1      0.798359      0.238513      0.986611
    27     1      0.777466      0.411031      0.150311
    28     1      0.529464      0.160900      0.151021
    29     1      0.459129      0.019155      0.319677
    30     1      0.701753      0.268402      0.321028
    31     1      0.699641      0.450269      0.505572
    32     1      0.437815      0.197462      0.486231
    33     1      0.416351      0.037460      0.651318
    34     1      0.665524      0.280386      0.653695
    35     1      0.826314      0.393883      0.821521
    36     1      0.578132      0.147069      0.821219
    37     1      0.549048      0.489449      0.979377
    38     1      0.797693      0.740569      0.986050
    39     1      0.776304      0.912168      0.152640
    40     1      0.528765      0.659985      0.151744
    41     1      0.464105      0.518282      0.322967
    42     1      0.714947      0.770757      0.321545
    43     1      0.690190      0.948871      0.486334
    44     1      0.455614      0.694795      0.485889
    45     1      0.419166      0.535457      0.652413
    46     1      0.663067      0.788449      0.650821
    47     1      0.839697      0.894975      0.818643
    48     1      0.583758      0.649450      0.819019
ITEM: TIMESTEP
64450
ITEM: NUMBER OF ATOMS
48
ITEM: BOX BOUNDS xy xz yz  pp  pp  pp
     -0.003081      2.203080      0.000000
     -0.005336      3.815850      0.000000
     -0.007546      5.396420      0.000000
ITEM: ATOMS id type xs ys zs
     1     1      0.047088      0.988675      0.985692
     2     1      0.297698      0.240118      0.986038
     3     1      0.280462      0.410641      0.152882
     4     1      0.030096      0.161781      0.152906
     5     1      0.960487      0.020337      0.321743
     6     1      0.199231      0.274285      0.323423
     7     1      0.198027      0.447571      0.488518
     8     1      0.936053      0.198421      0.486436
     9     1      0.921452      0.033457      0.649942
    10     1      0.159042      0.285691      0.650903
    11     1      0.281071      0.418125      0.832524
    12     1      0.077421      0.147064      0.820493
    13     1      0.048854      0.481873      0.991145
    14     1      0.309764      0.740581      0.987150
    15     1      0.277763      0.912180      0.151041
    16     1      0.029138      0.662385      0.150172
    17     1      0.957787      0.520801      0.320514
    18     1      0.217173      0.767984      0.318323
    19     1      0.191523      0.943142      0.486148
    20     1      0.954806      0.692797      0.484207
    21     1      0.917680      0.540306      0.659107
    22     1      0.169500      0.784216      0.650769
    23     1      0.336024      0.897008      0.820197
    24     1      0.089850      0.655370      0.817646
    25     1      0.549717      0.989414      0.986779
    26     1      0.798873      0.238882      0.987380
    27     1      0.778169      0.411546      0.150235
    28     1      0.529750      0.161951      0.151008
    29     1      0.458343      0.020396      0.319839
    30     1      0.702227      0.270301      0.321397
    31     1      0.699123      0.448875      0.496956
    32     1      0.438402      0.196802      0.486324
    33     1      0.417209      0.036127      0.651571
    34     1      0.663216      0.281598      0.653895
    35     1      0.814910      0.395039      0.822464
    36     1      0.576638      0.146250      0.822067
    37     1      0.549064      0.488143      0.982904
    38     1      0.840679      0.715068      0.968199
    39     1      0.777743      0.911937      0.151672
    40     1      0.531036      0.660153      0.152006
    41     1      0.464012      0.518000      0.323315
    42     1      0.715363      0.770584      0.320793
    43     1      0.690596      0.947049      0.485898
    44     1      0.452038      0.695673      0.485498
    45     1      0.418235      0.535333      0.653050
    46     1      0.665812      0.787956      0.650905
    47     1      0.836730      0.896571      0.818943
    48     1      0.580986      0.647442      0.817495
ITEM: TIMESTEP
64500
ITEM: NUMBER OF ATOMS
48
ITEM: BOX BOUNDS xy xz yz  pp  pp  pp
     -0.003081      2.203080      0.000000
     -0.005336      3.815850      0.000000
     -0.007546      5.396420      0.000000
ITEM: ATOMS id type xs ys zs
     1     1      0.048149      0.987776      0.985809
     2     1      0.299651      0.238465      0.986173
     3     1      0.283036      0.410969      0.154156
     4     1      0.031417      0.161946      0.152884
     5     1      0.957792      0.019971      0.321277
     6     1      0.199982      0.272862      0.322705
     7     1      0.196047      0.446271      0.487999
     8     1      0.938555      0.197395      0.486652
     9     1      0.922939      0.034925      0.649655
    10     1      0.163926      0.287045      0.652166
    11     1      0.296369      0.408614      0.826338
    12     1      0.076807      0.148229      0.820025
    13     1      0.050130      0.483724      0.990575
    14     1      0.313231      0.739240      0.986338
    15     1      0.277989      0.911684      0.150697
    16     1      0.029320      0.662603      0.150310
    17     1      0.957403      0.520747      0.320837