ITEM: TIMESTEP
64001
ITEM: NUMBER OF ATOMS
48
ITEM: BOX BOUNDS xy xz yz  pp  pp  pp
     -0.003081      2.203080      0.000000
     -0.005336      3.815850      0.000000
     -0.007546      5.396420      0.000000
ITEM: ATOMS id type xs ys zs
     1     1      0.048626      0.988178      0.986918
     2     1      0.292986      0.237114      0.986202
     3     1      0.272215      0.408546      0.151640
     4     1      0.022189      0.159304      0.150349
     5     1      0.966956      0.015439      0.319183
     6     1      0.220178      0.263010      0.318944
     7     1      0.211985      0.443262      0.485096
     8     1      0.959143      0.195700      0.485225
     9     1      0.907949      0.044526      0.651883
    10     1      0.154052      0.294548      0.653452
    11     1      0.322822      0.400815      0.822865
    12     1      0.073697      0.149322      0.821788
    13     1      0.039441      0.487170      0.987032
    14     1      0.292292      0.735865      0.986935
    15     1      0.278076      0.908616      0.151320
    16     1      0.026286      0.657889      0.152709
    17     1      0.971803      0.513480      0.320641
    18     1      0.219190      0.764570      0.319835
    19     1      0.208956      0.943852      0.484278
    20     1      0.963692      0.692919      0.485609
    21     1      0.904994      0.544257      0.652356
    22     1      0.157458      0.794746      0.653209
    23     1      0.329235      0.899334      0.821667
    24     1      0.073681      0.649209      0.821642
    25     1      0.549302      0.987244      0.986225
    26     1      0.791305      0.238015      0.985408
    27     1      0.772752      0.409933      0.153180
    28     1      0.523621      0.159547      0.151440
    29     1      0.468164      0.016016      0.319809
    30     1      0.720791      0.265006      0.320138
    31     1      0.710094      0.444761      0.484598
    32     1      0.459073      0.193499      0.484237
    33     1      0.409186      0.042865      0.650866
    34     1      0.652107      0.294770      0.651379
    35     1      0.823551      0.399456      0.820496
    36     1      0.572340      0.150286      0.820081
    37     1      0.541882      0.488498      0.987983
    38     1      0.794058      0.738120      0.988812
    39     1      0.776489      0.909202      0.152340
    40     1      0.525803      0.659986      0.152752
    41     1      0.469493      0.513564      0.319539
    42     1      0.720817      0.764048      0.320559
    43     1      0.712320      0.943406      0.484027
    44     1      0.462556      0.694553      0.485111
    45     1      0.404234      0.544635      0.653374
    46     1      0.658227      0.793761      0.653120
    47     1      0.829128      0.898927      0.822505
    48     1      0.575757      0.649262      0.822868
ITEM: TIMESTEP
64050
ITEM: NUMBER OF ATOMS
48
ITEM: BOX BOUNDS xy xz yz  pp  pp  pp
     -0.003081      2.203080      0.000000
     -0.005336      3.815850      0.000000
     -0.007546      5.396420      0.000000
ITEM: ATOMS id type xs ys zs
     1     1      0.047175      0.988749      0.987119
     2     1      0.294049      0.238135      0.986581
     3     1      0.271728      0.409171      0.151720
     4     1      0.023472      0.159982      0.150855
     5     1      0.967425      0.015047      0.319587
     6     1      0.220812      0.263152      0.319868
     7     1      0.210474      0.442825      0.485092
     8     1      0.960571      0.194993      0.485226
     9     1      0.908185      0.042628      0.652268
    10     1      0.154265      0.294038      0.653253
    11     1      0.323163      0.400055      0.822373
    12     1      0.073456      0.149593      0.821944
    13     1      0.040410      0.487704      0.986828
    14     1      0.294147      0.736956      0.987070
    15     1      0.279542      0.908962      0.151677
    16     1      0.027018      0.658887      0.152593
    17     1      0.971703      0.513239      0.320150
    18     1      0.220440      0.764747      0.320599
    19     1      0.209024      0.943170      0.484540
    20     1      0.961377      0.693104      0.485495
    21     1      0.906018      0.543182      0.652467
    22     1      0.157554      0.794238      0.652768
    23     1      0.329060      0.899379      0.821350
    24     1      0.074451      0.648912      0.821774
    25     1      0.548253      0.988293      0.986052
    26     1      0.793141      0.238057      0.985787
    27     1      0.773496      0.409435      0.152742
    28     1      0.523622      0.160166      0.151683
    29     1      0.468966      0.014524      0.319501
    30     1      0.720638      0.264560      0.319989
    31     1      0.708595      0.443656      0.484610
    32     1      0.460103      0.193326      0.484144
    33     1      0.409216      0.043340      0.650675
    34     1      0.654122      0.294029      0.651585
    35     1      0.822321      0.399410      0.820668
    36     1      0.573347      0.149821      0.820481
    37     1      0.542426      0.488477      0.987829
    38     1      0.794984      0.738128      0.988172
    39     1      0.776815      0.909250      0.152197
    40     1      0.525497      0.660440      0.152669
    41     1      0.470320      0.513783      0.319631
    42     1      0.721338      0.763713      0.320383
    43     1      0.710879      0.942881      0.484056
    44     1      0.461202      0.693304      0.485063
    45     1      0.405701      0.544336      0.653075
    46     1      0.657972      0.793581      0.653190
    47     1      0.828081      0.899403      0.822165
    48     1      0.576521      0.649472      0.822134
ITEM: TIMESTEP
64100
ITEM: NUMBER OF ATOMS
48
ITEM: BOX BOUNDS xy xz yz  pp  pp  pp
     -0.003081      2.203080      0.000000
     -0.005336      3.815850      0.000000
     -0.007546      5.396420      0.000000
ITEM: ATOMS id type xs ys zs
     1     1      0.047689      0.988850      0.987319
     2     1      0.294829      0.237765      0.986668
     3     1      0.272394      0.409821      0.152036
     4     1      0.025359      0.160090      0.151052
     5     1      0.969562      0.014817      0.319994
     6     1      0.220969      0.263263      0.319725
     7     1      0.210658      0.442433      0.485332
     8     1      0.959523      0.194828      0.485456
     9     1      0.909231      0.043086      0.651649
    10     1      0.155930      0.293065      0.653013
    11     1      0.322717      0.399676      0.822647
    12     1      0.072983      0.148997      0.821318
    13     1      0.040255      0.487883      0.987108
    14     1      0.295191      0.738132      0.986841
    15     1      0.279011      0.909430      0.152353
    16     1      0.028728      0.659807      0.152576
    17     1      0.972316      0.513871      0.320493
    18     1      0.221797      0.764049      0.320550
    19     1      0.207786      0.942648      0.484321
    20     1      0.960357      0.691944      0.485486
    21     1      0.907917      0.543351      0.652636
    22     1      0.157614      0.793525      0.653116
    23     1      0.327714      0.899580      0.821543
    24     1      0.074818      0.649671      0.821863
    25     1      0.547966      0.988151      0.986228
    26     1      0.792721      0.238062      0.985823
    27     1      0.774388      0.410186      0.152051
    28     1      0.525173      0.160637      0.151610
    29     1      0.470922      0.015004      0.319830
    30     1      0.721034      0.264829      0.319967
    31     1      0.710563      0.443845      0.484766
    32     1      0.460208      0.192610      0.484375
    33     1      0.409202      0.042760      0.650677
    34     1      0.654807      0.294440      0.651912
    35     1      0.822621      0.400119      0.821514
    36     1      0.573911      0.149114      0.820521
    37     1      0.541471      0.488943      0.987331
    38     1      0.794835      0.739011      0.987571
    39     1      0.779098      0.909651      0.151768
    40     1      0.527231      0.660030      0.152705
    41     1      0.471666      0.513774      0.319063
    42     1      0.721153      0.763941      0.320211
    43     1      0.710491      0.942714      0.484621
    44     1      0.460374      0.692731      0.484880
    45     1      0.406596      0.543286      0.653138
    46     1      0.658336      0.793096      0.653060
    47     1      0.827019      0.899850      0.821343
    48     1      0.576884      0.650125      0.821711
ITEM: TIMESTEP
64150
ITEM: NUMBER OF ATOMS
48
ITEM: BOX BOUNDS xy xz yz  pp  pp  pp
     -0.003081      2.203080      0.000000
     -0.005336      3.815850      0.000000
     -0.007546      5.396420      0.000000
ITEM: ATOMS id type xs ys zs
     1     1      0.048252      0.988548      0.987364
     2     1      0.295781      0.238160      0.986478
     3     1      0.274589      0.409260      0.151887
     4     1      0.025410      0.160148      0.151378
     5     1      0.969537      0.013902      0.319798
     6     1      0.220258      0.263169      0.320204
     7     1      0.210662      0.442692      0.484987
     8     1      0.959306      0.193544      0.485037
     9     1      0.909417      0.042160      0.652313
    10     1      0.157226      0.292312      0.653109
    11     1      0.323010      0.399319      0.822005
    12     1      0.071038      0.149892      0.821678
    13     1      0.041791      0.488563      0.987319
    14     1      0.295580      0.739112      0.987737
    15     1      0.279073      0.909764      0.152207
    16     1      0.030026      0.660365      0.152551
    17     1      0.972763      0.513652      0.320200
    18     1      0.221327      0.763990      0.320506
    19     1      0.207578      0.942244      0.484693
    20     1      0.959598      0.691704      0.485060
    21     1      0.908663      0.542454      0.652074
    22     1      0.158416      0.792582      0.653343
    23     1      0.326732      0.900548      0.822192
    24     1      0.075050      0.649816      0.821761
    25     1      0.548055      0.988054      0.986584
    26     1      0.794884      0.238934      0.985587
    27     1      0.774898      0.411008      0.151880
    28     1      0.525517      0.160029      0.151474
    29     1      0.471959      0.014425      0.319965
    30     1      0.720743      0.264608      0.319789
    31     1      0.709418      0.442515      0.485115
    32     1      0.459116      0.192157      0.484662
    33     1      0.408448      0.042961      0.651141
    34     1      0.656662      0.293642      0.651976
    35     1      0.821627      0.400173      0.821271
    36     1      0.572725      0.149639      0.820784
    37     1      0.541945      0.489198      0.987512
    38     1      0.795096      0.738491      0.987571
    39     1      0.778755      0.909681      0.151518
    40     1      0.527238      0.659996      0.152791
    41     1      0.471944      0.513744      0.319213
    42     1      0.721864      0.764695      0.319543
    43     1      0.709882      0.941803      0.484829
    44     1      0.459650      0.691747      0.485039
    45     1      0.407551      0.543181      0.653562
    46     1      0.656603      0.792558      0.653123
    47     1      0.826469      0.899441      0.822335
    48     1      0.575338      0.650469      0.822180
ITEM: TIMESTEP
64200
ITEM: NUMBER OF ATOMS
48
ITEM: BOX BOUNDS xy xz yz  pp  pp  pp
     -0.003081      2.203080      0.000000
     -0.005336      3.815850      0.000000
     -0.007546      5.396420      0.000000
ITEM: ATOMS id type xs ys zs
     1     1      0.049948      0.988738      0.986892
     2     1      0.295566      0.239033      0.986808
     3     1      0.276510      0.409315      0.151941
     4     1      0.026137      0.159466      0.151400
     5     1      0.969581      0.014103      0.319953
     6     1      0.220037      0.263186      0.319627
     7     1      0.210575      0.442160      0.485260
     8     1      0.957361      0.192253      0.485083
     9     1      0.909055      0.041312      0.651921
    10     1      0.155768      0.291703      0.652664
    11     1      0.321305      0.400050      0.822138
    12     1      0.071284      0.150683      0.821663
    13     1      0.043678      0.488657      0.986877
    14     1      0.296285      0.739268      0.987031
    15     1      0.280451      0.910077      0.152402
    16     1      0.029458      0.659910      0.152483
    17     1      0.971092      0.514199      0.320665
    18     1      0.221210      0.764065      0.320170
    19     1      0.207998      0.942383      0.484169
    20     1      0.959005      0.691636      0.485278
    21     1      0.907235      0.542222      0.652371
    22     1      0.158867      0.791996      0.653007
    23     1      0.325235      0.900245      0.821691
    24     1      0.074300      0.650373      0.821852
    25     1      0.547234      0.988449      0.987227
    26     1      0.794139      0.239324      0.986090
    27     1      0.775495      0.410263      0.151890
    28     1      0.526467      0.159992      0.152198
    29     1      0.474095      0.015068      0.320895
    30     1      0.720733      0.264501      0.320251
    31     1      0.708728      0.442084      0.485086
    32     1      0.459255      0.192057      0.485061
    33     1      0.408286      0.041775      0.651931
    34     1      0.656507      0.292423      0.652319
    35     1      0.821628      0.400351      0.821463
    36     1      0.571417      0.150329      0.820784
    37     1      0.542768      0.489464      0.987424
    38     1      0.796505      0.739167      0.987573
    39     1      0.779396      0.909447      0.152296
    40     1      0.528275      0.660775      0.152261
    41     1      0.471853      0.513759      0.319306
    42     1      0.721147      0.764136      0.320010
    43     1      0.709299      0.941175      0.484931
    44     1      0.459548      0.691077      0.485364
    45     1      0.407872      0.542925      0.653666
    46     1      0.657078      0.792298      0.652774
    47     1      0.825407      0.899440      0.822416
    48     1      0.573870      0.650615      0.822720
ITEM: TIMESTEP
64250
ITEM: NUMBER OF ATOMS
48
ITEM: BOX BOUNDS xy xz yz  pp  pp  pp
     -0.003081      2.203080      0.000000
     -0.005336      3.815850      0.000000
     -0.007546      5.396420      0.000000
ITEM: ATOMS id type xs ys zs
     1     1      0.047864      0.989899      0.987199
     2     1      0.295420      0.239129      0.986453
     3     1      0.276018      0.409276      0.151763
     4     1      0.026630      0.160375      0.151737
     5     1      0.969698      0.015127      0.320236
     6     1      0.220405      0.263754      0.319619
     7     1      0.209154      0.441403      0.485573
     8     1      0.957235      0.191775      0.484917
     9     1      0.908529      0.041098      0.651949
    10     1      0.158207      0.292021      0.652449
    11     1      0.320951      0.400339      0.822798
    12     1      0.070843      0.150539      0.821788
    13     1      0.043896      0.489173      0.986665
    14     1      0.296947      0.739689      0.987051
    15     1      0.281698      0.910163      0.152470
    16     1      0.029526      0.659566      0.152126
    17     1      0.970774      0.514419      0.320670
    18     1      0.221182      0.764216      0.319654
    19     1      0.207504      0.942535      0.484530
    20     1      0.958651      0.691171      0.485178
    21     1      0.906807      0.541328      0.652832
    22     1      0.158263      0.791936      0.652377
    23     1      0.324961      0.900433      0.822134
    24     1      0.073110      0.650452      0.821207
    25     1      0.548146      0.989191      0.986839
    26     1      0.794066      0.239249      0.986471
    27     1      0.776829      0.410018      0.152082
    28     1      0.527614      0.160167      0.151938
    29     1      0.472253      0.016035      0.320663
    30     1      0.720640      0.264784      0.319906
    31     1      0.708382      0.441280      0.485146
    32     1      0.458799      0.192461      0.485060
    33     1      0.407534      0.042023      0.651750
    34     1      0.656543      0.291746      0.652559
    35     1      0.821779      0.400053      0.822019
    36     1      0.570677      0.150313      0.821037
    37     1      0.543180      0.489514      0.987714
    38     1      0.797615      0.739226      0.987943
    39     1      0.780809      0.910386      0.152432
    40     1      0.528700      0.660686      0.151864
    41     1      0.471582      0.513527      0.319321
    42     1      0.722451      0.763566      0.320115
    43     1      0.707555      0.941123      0.485367
    44     1      0.459030      0.691901      0.485464
    45     1      0.407640      0.542055      0.653103
    46     1      0.658779      0.791672      0.653041
    47     1      0.824904      0.900153      0.822210
    48     1      0.572342      0.651288      0.822363
ITEM: TIMESTEP
64300
ITEM: NUMBER OF ATOMS
48
ITEM: BOX BOUNDS xy xz yz  pp  pp  pp
     -0.003081      2.203080      0.000000
     -0.005336      3.815850      0.000000
     -0.007546      5.396420      0.000000
ITEM: ATOMS id type xs ys zs
     1     1      0.048140      0.989546      0.987338
     2     1      0.293481      0.240425      0.986850
     3     1      0.276266      0.410122      0.151854
     4     1      0.028550      0.160325      0.151655
     5     1      0.969623      0.014861      0.320172
     6     1      0.220055      0.263592      0.320011
     7     1      0.209152      0.440923      0.485428
     8     1      0.956809      0.191161      0.485095
     9     1      0.907204      0.040401      0.652089
    10     1      0.158190      0.290182      0.652759
    11     1      0.320674      0.400737      0.822672
    12     1      0.070485      0.150712      0.821801
    13     1      0.043269      0.489740      0.986921
    14     1      0.296492      0.740247      0.987389
    15     1      0.280473      0.910576      0.152514
    16     1      0.030585      0.659904      0.152506
    17     1      0.971223      0.514653      0.320530
    18     1      0.222766      0.764630      0.320248
    19     1      0.206628      0.941329      0.484417
    20     1      0.958870      0.690441      0.485233
    21     1      0.906758      0.540152      0.652926
    22     1      0.157637      0.792386      0.652445
    23     1      0.323434      0.900649      0.822304
    24     1      0.073172      0.650885      0.821657
    25     1      0.547825      0.990408      0.986796
    26     1      0.794051      0.239642      0.987338
    27     1      0.777922      0.410820      0.151638
    28     1      0.528567      0.160024      0.152482
    29     1      0.470521      0.015060      0.320378
    30     1      0.720125      0.265484      0.319762
    31     1      0.709220      0.441395      0.485112
    32     1      0.458793      0.191483      0.485133
    33     1      0.406904      0.040633      0.651845
    34     1      0.657724      0.291329      0.652591
    35     1      0.820869      0.399939      0.822203
    36     1      0.571508      0.150707      0.821699
    37     1      0.543233      0.490111      0.987662
    38     1      0.797512      0.738898      0.987470
    39     1      0.780774      0.910430      0.152166
    40     1      0.530119      0.660870      0.151667
    41     1      0.470535      0.513892      0.319209
    42     1      0.722203      0.763884      0.319631
    43     1      0.706759      0.940930      0.485528
    44     1      0.459717      0.691304      0.485338
    45     1      0.406935      0.540968      0.653517
    46     1      0.657465      0.791097      0.653118
    47     1      0.824166      0.900765      0.822337
    48     1      0.572112      0.650821      0.822577
ITEM: TIMESTEP
64350
ITEM: NUMBER OF ATOMS
48
ITEM: BOX BOUNDS xy xz yz  pp  pp  pp
     -0.003081      2.203080      0.000000
     -0.005336      3.815850      0.000000
     -0.007546      5.396420      0.000000
ITEM: ATOMS id type xs ys zs
     1     1      0.049274      0.990696      0.987541
     2     1      0.294621      0.240195      0.987452
     3     1      0.277343      0.410773      0.151376
     4     1      0.028180      0.160859      0.151916
     5     1      0.970338      0.014285      0.319965
     6     1      0.221030      0.263525      0.320104
     7     1      0.208350      0.440452      0.485116
     8     1      0.956879      0.190840      0.484884
     9     1      0.908363      0.040533      0.652176
    10     1      0.157800      0.290316      0.652131
    11     1      0.319824      0.401173      0.822690
    12     1      0.069767      0.150820      0.821336
    13     1      0.044276      0.490184      0.986823
    14     1      0.295957      0.740412      0.987413
    15     1      0.280136      0.910184      0.152130
    16     1      0.030348      0.660466      0.151968
    17     1      0.971847      0.514831      0.320238
    18     1      0.222977      0.764849      0.319821
    19     1      0.205889      0.941123      0.485053
    20     1      0.959442      0.690372      0.485254
    21     1      0.905237      0.540235      0.653024
    22     1      0.156838      0.791606      0.652366
    23     1      0.322860      0.900517      0.821978
    24     1      0.071343      0.652568      0.822102
    25     1      0.547965      0.990472      0.987146
    26     1      0.794877      0.239965      0.987393
    27     1      0.777658      0.410969      0.151379
    28     1      0.529084      0.160366      0.152137
    29     1      0.471339      0.015633      0.320475
    30     1      0.719255      0.265598      0.320219
    31     1      0.708365      0.441413      0.485208
    32     1      0.456742      0.191566      0.485077
    33     1      0.407227      0.040479      0.652079
    34     1      0.657252      0.290942      0.652072
    35     1      0.820006      0.400807      0.821780
    36     1      0.568915      0.150635      0.821696
    37     1      0.543839      0.490511      0.987039
    38     1      0.797919      0.740222      0.987382
    39     1      0.781239      0.911005      0.151819
    40     1      0.529854      0.660795      0.151764
    41     1      0.470806      0.514109      0.320146
    42     1      0.721818      0.764268      0.319899
    43     1      0.706742      0.940341      0.484921
    44     1      0.458578      0.690605      0.485293
    45     1      0.405805      0.541831      0.653521
    46     1      0.657174      0.791256      0.652660
    47     1      0.822225      0.901519      0.822512
    48     1      0.571170      0.651078      0.823072
ITEM: TIMESTEP
64400
ITEM: NUMBER OF ATOMS
48
ITEM: BOX BOUNDS xy xz yz  pp  pp  pp
     -0.003081      2.203080      0.000000
     -0.005336      3.815850      0.000000
     -0.007546      5.396420      0.000000
ITEM: ATOMS id type xs ys zs
     1     1      0.047963      0.991328      0.987513
     2     1      0.294398      0.240121      0.987430
     3     1      0.278067      0.411138      0.151767
     4     1      0.028962      0.161392      0.151536
     5     1      0.972205      0.014612      0.319982
     6     1      0.220597      0.265102      0.319463
     7     1      0.208819      0.440216      0.485605
     8     1      0.956405      0.190604      0.484636
     9     1      0.907509      0.039895      0.652476
    10     1      0.157521      0.290101      0.652539
    11     1      0.319690      0.401118      0.822863
    12     1      0.068933      0.150159      0.821753
    13     1      0.044640      0.489876      0.987334
    14     1      0.295958      0.740798      0.987775
    15     1      0.281512      0.910607      0.152173
    16     1      0.028729      0.662186      0.152351
    17     1      0.971415      0.514736      0.320313
    18     1      0.223135      0.764812      0.320539
    19     1      0.205243      0.941112      0.484742
    20     1      0.958619      0.689788      0.485852
    21     1      0.908378      0.540408      0.652699
    22     1      0.155406      0.790347      0.652714
    23     1      0.322457      0.901158      0.821820
    24     1      0.070955      0.651602      0.822553
    25     1      0.548110      0.989654      0.987346
    26     1      0.794276      0.239898      0.987297
    27     1      0.779150      0.411299      0.151812
    28     1      0.529155      0.160708      0.152105
    29     1      0.470902      0.015023      0.320869
    30     1      0.719049      0.265622      0.320158
    31     1      0.707506      0.440790      0.485375
    32     1      0.456957      0.191152      0.484791
    33     1      0.406944      0.040391      0.652002
    34     1      0.658364      0.290773      0.652115
    35     1      0.820360      0.400755      0.821804
    36     1      0.569172      0.150928      0.821826
    37     1      0.545019      0.490482      0.987635
    38     1      0.796845      0.739906      0.987361
    39     1      0.780412      0.911253      0.152403
    40     1      0.530122      0.660200      0.152074
    41     1      0.470395      0.514388      0.320036
    42     1      0.722505      0.764070      0.320278
    43     1      0.706917      0.940429      0.485072
    44     1      0.459606      0.690671      0.484935
    45     1      0.407522      0.540862      0.653510
    46     1      0.656652      0.790809      0.652782
    47     1      0.821327      0.901009      0.821916
    48     1      0.571194      0.651095      0.822403
ITEM: TIMESTEP
64450
ITEM: NUMBER OF ATOMS
48
ITEM: BOX BOUNDS xy xz yz  pp  pp  pp
     -0.003081      2.203080      0.000000
     -0.005336      3.815850      0.000000
     -0.007546      5.396420      0.000000
ITEM: ATOMS id type xs ys zs
     1     1      0.047322      0.990661      0.987321
     2     1      0.295023      0.240045      0.987116
     3     1      0.277255      0.411069      0.152190
     4     1      0.027763      0.161352      0.151864
     5     1      0.971457      0.014463      0.320165
     6     1      0.220767      0.265146      0.319899
     7     1      0.208222      0.440195      0.485411
     8     1      0.956272      0.190742      0.484587
     9     1      0.908241      0.039958      0.652624
    10     1      0.157384      0.289889      0.652999
    11     1      0.319229      0.401360      0.822902
    12     1      0.069581      0.150361      0.822346
    13     1      0.043412      0.490423      0.987538
    14     1      0.296056      0.740490      0.987757
    15     1      0.279908      0.911251      0.152354
    16     1      0.030101      0.661457      0.152361
    17     1      0.971088      0.514696      0.320378
    18     1      0.223134      0.765206      0.320254
    19     1      0.206098      0.940867      0.485119
    20     1      0.957628      0.690156      0.485723
    21     1      0.909616      0.540538      0.652247
    22     1      0.156928      0.789368      0.652670
    23     1      0.323667      0.899854      0.822112
    24     1      0.070253      0.651565      0.822659
    25     1      0.547106      0.990291      0.987312
    26     1      0.793754      0.239957      0.986904
    27     1      0.779571      0.411140      0.152178
    28     1      0.530137      0.160844      0.152257
    29     1      0.471154      0.016133      0.320454
    30     1      0.719113      0.264628      0.319832
    31     1      0.709087      0.440466      0.484675
    32     1      0.457105      0.190431      0.485388
    33     1      0.407587      0.039610      0.651741
    34     1      0.658296      0.290503      0.652024
    35     1      0.819677      0.401303      0.821579
    36     1      0.568773      0.150761      0.821642
    37     1      0.545186      0.490515      0.987574
    38     1      0.796111      0.740877      0.987483
    39     1      0.779922      0.911029      0.152114
    40     1      0.531877      0.660340      0.152297
    41     1      0.470897      0.514781      0.320066
    42     1      0.722443      0.764033      0.320341
    43     1      0.706194      0.940240      0.485211
    44     1      0.457760      0.690180      0.484877
    45     1      0.407246      0.539664      0.653049
    46     1      0.657734      0.789820      0.652974
    47     1      0.821282      0.901535      0.822497
    48     1      0.570340      0.651057      0.823031
ITEM: TIMESTEP
64500
ITEM: NUMBER OF ATOMS
48
ITEM: BOX BOUNDS xy xz yz  pp  pp  pp
     -0.003081      2.203080      0.000000
     -0.005336      3.815850      0.000000
     -0.007546      5.396420      0.000000
ITEM: ATOMS id type xs ys zs
     1     1      0.047203      0.990682      0.987554
     2     1      0.295894      0.240331      0.987399
     3     1      0.277272      0.412007      0.151810
     4     1      0.028554      0.162425      0.151627
     5     1      0.971060      0.015452      0.319696
     6     1      0.220782      0.264692      0.320457
     7     1      0.207278      0.439940      0.484980
     8     1      0.956703      0.189912      0.485040
     9     1      0.908024      0.039016      0.652077
    10     1      0.158136      0.290294      0.653021
    11     1      0.318632      0.402417      0.823329
    12     1      0.069598      0.151351      0.822467
    13     1      0.043098      0.489952      0.987020
    14     1      0.296197      0.741465      0.987746
    15     1      0.281452      0.911255      0.152332
    16     1      0.029931      0.662107      0.152546
    17     1      0.970771      0.515074      0.319926