ITEM: TIMESTEP
64001
ITEM: NUMBER OF ATOMS
48
ITEM: BOX BOUNDS xy xz yz  pp  pp  pp
     -0.003081      2.203080      0.000000
     -0.005336      3.815850      0.000000
     -0.007546      5.396420      0.000000
ITEM: ATOMS id type xs ys zs
     1     1      0.048901      0.988100      0.986922
     2     1      0.292957      0.237196      0.986109
     3     1      0.272552      0.408587      0.151592
     4     1      0.022133      0.159372      0.150394
     5     1      0.967318      0.015605      0.319097
     6     1      0.220303      0.262915      0.318807
     7     1      0.211969      0.443089      0.485083
     8     1      0.959454      0.195779      0.485188
     9     1      0.907873      0.044614      0.651751
    10     1      0.153726      0.294565      0.653511
    11     1      0.322849      0.401031      0.822734
    12     1      0.073829      0.149386      0.821911
    13     1      0.038764      0.487080      0.987006
    14     1      0.292207      0.735925      0.986929
    15     1      0.278196      0.908623      0.151301
    16     1      0.026069      0.658061      0.152939
    17     1      0.972070      0.513449      0.320594
    18     1      0.219354      0.764676      0.319877
    19     1      0.208735      0.943900      0.484306
    20     1      0.963736      0.692956      0.485579
    21     1      0.904446      0.544269      0.652416
    22     1      0.157572      0.794831      0.653210
    23     1      0.329320      0.899374      0.821644
    24     1      0.073692      0.649115      0.821660
    25     1      0.549202      0.987227      0.986176
    26     1      0.791628      0.238114      0.985446
    27     1      0.772865      0.409997      0.153195
    28     1      0.523654      0.159439      0.151523
    29     1      0.467895      0.015934      0.319788
    30     1      0.720750      0.265025      0.320252
    31     1      0.709866      0.444907      0.484586
    32     1      0.459046      0.193484      0.484228
    33     1      0.409161      0.042871      0.650996
    34     1      0.651607      0.294764      0.651299
    35     1      0.823528      0.399464      0.820406
    36     1      0.572716      0.150289      0.820114
    37     1      0.541758      0.488441      0.987976
    38     1      0.793945      0.737887      0.988830
    39     1      0.776565      0.908976      0.152236
    40     1      0.526001      0.659943      0.152889
    41     1      0.469570      0.513648      0.319415
    42     1      0.720593      0.764191      0.320568
    43     1      0.712350      0.943325      0.483993
    44     1      0.462184      0.694532      0.485119
    45     1      0.404345      0.544582      0.653244
    46     1      0.658510      0.793658      0.653195
    47     1      0.828984      0.898842      0.822369
    48     1      0.575574      0.649145      0.822872
ITEM: TIMESTEP
64050
ITEM: NUMBER OF ATOMS
48
ITEM: BOX BOUNDS xy xz yz  pp  pp  pp
     -0.003081      2.203080      0.000000
     -0.005336      3.815850      0.000000
     -0.007546      5.396420      0.000000
ITEM: ATOMS id type xs ys zs
     1     1      0.048278      0.987835      0.987002
     2     1      0.294227      0.237877      0.986319
     3     1      0.272645      0.408889      0.151523
     4     1      0.023623      0.160438      0.150874
     5     1      0.968748      0.015016      0.318968
     6     1      0.218869      0.263316      0.319289
     7     1      0.211974      0.442789      0.485585
     8     1      0.960134      0.194505      0.485356
     9     1      0.908161      0.043669      0.651981
    10     1      0.154014      0.294319      0.653565
    11     1      0.321556      0.400724      0.822727
    12     1      0.074227      0.149092      0.821361
    13     1      0.039803      0.487957      0.987281
    14     1      0.292616      0.737155      0.987452
    15     1      0.276453      0.909622      0.151108
    16     1      0.026054      0.659170      0.152496
    17     1      0.971294      0.514290      0.320315
    18     1      0.220263      0.763953      0.319579
    19     1      0.209375      0.943441      0.484251
    20     1      0.963030      0.692569      0.485189
    21     1      0.903119      0.544667      0.652404
    22     1      0.157657      0.794606      0.653270
    23     1      0.329352      0.898734      0.822112
    24     1      0.074047      0.648691      0.821905
    25     1      0.548668      0.987765      0.986503
    26     1      0.793687      0.238393      0.985494
    27     1      0.773531      0.409215      0.152774
    28     1      0.524534      0.159493      0.151405
    29     1      0.468919      0.014804      0.320205
    30     1      0.719645      0.264812      0.320215
    31     1      0.710574      0.444991      0.484431
    32     1      0.459262      0.193404      0.483816
    33     1      0.407203      0.042753      0.651209
    34     1      0.653556      0.294323      0.650824
    35     1      0.822072      0.399620      0.820271
    36     1      0.572217      0.150933      0.820326
    37     1      0.541479      0.487460      0.987295
    38     1      0.793237      0.737680      0.988176
    39     1      0.776417      0.909975      0.152120
    40     1      0.527120      0.659239      0.152422
    41     1      0.470810      0.513337      0.319410
    42     1      0.721416      0.764409      0.320736
    43     1      0.711006      0.943096      0.484821
    44     1      0.460260      0.693775      0.485546
    45     1      0.402579      0.544068      0.653545
    46     1      0.658289      0.793469      0.652694
    47     1      0.828824      0.899166      0.822616
    48     1      0.576257      0.649435      0.822358
ITEM: TIMESTEP
64100
ITEM: NUMBER OF ATOMS
48
ITEM: BOX BOUNDS xy xz yz  pp  pp  pp
     -0.003081      2.203080      0.000000
     -0.005336      3.815850      0.000000
     -0.007546      5.396420      0.000000
ITEM: ATOMS id type xs ys zs
     1     1      0.047653      0.988177      0.986614
     2     1      0.294490      0.238797      0.986478
     3     1      0.272160      0.409740      0.151866
     4     1      0.024899      0.160097      0.150712
     5     1      0.969472      0.014782      0.318878
     6     1      0.219579      0.264185      0.319589
     7     1      0.210411      0.442629      0.485578
     8     1      0.958373      0.194347      0.485227
     9     1      0.907391      0.043249      0.651910
    10     1      0.153678      0.293877      0.653202
    11     1      0.321657      0.400552      0.823041
    12     1      0.073748      0.148925      0.821366
    13     1      0.040326      0.489097      0.986805
    14     1      0.294132      0.737696      0.986733
    15     1      0.278535      0.909863      0.151324
    16     1      0.026926      0.660147      0.152460
    17     1      0.970697      0.513875      0.320424
    18     1      0.221167      0.764592      0.319591
    19     1      0.208772      0.942905      0.484413
    20     1      0.961200      0.692477      0.485335
    21     1      0.903781      0.543422      0.652345
    22     1      0.155108      0.793768      0.653382
    23     1      0.329552      0.899015      0.822194
    24     1      0.074503      0.649223      0.821594
    25     1      0.548307      0.988786      0.986525
    26     1      0.793331      0.239191      0.985838
    27     1      0.772768      0.410243      0.152241
    28     1      0.525075      0.160037      0.151937
    29     1      0.469369      0.013712      0.320252
    30     1      0.720083      0.264609      0.319668
    31     1      0.709624      0.443926      0.484653
    32     1      0.459130      0.192938      0.483867
    33     1      0.407402      0.043060      0.651634
    34     1      0.653573      0.292876      0.651257
    35     1      0.821570      0.399266      0.820324
    36     1      0.572945      0.150575      0.820672
    37     1      0.541564      0.488770      0.986995
    38     1      0.794368      0.737900      0.987160
    39     1      0.777382      0.909625      0.151978
    40     1      0.527514      0.659566      0.152467
    41     1      0.469860      0.514208      0.319848
    42     1      0.721706      0.764718      0.320843
    43     1      0.710884      0.943361      0.484884
    44     1      0.459612      0.693844      0.485553
    45     1      0.403001      0.543947      0.653462
    46     1      0.658491      0.793227      0.652854
    47     1      0.827601      0.899256      0.822378
    48     1      0.575965      0.649111      0.822308
ITEM: TIMESTEP
64150
ITEM: NUMBER OF ATOMS
48
ITEM: BOX BOUNDS xy xz yz  pp  pp  pp
     -0.003081      2.203080      0.000000
     -0.005336      3.815850      0.000000
     -0.007546      5.396420      0.000000
ITEM: ATOMS id type xs ys zs
     1     1      0.046861      0.989846      0.986907
     2     1      0.295435      0.238827      0.986765
     3     1      0.274515      0.410079      0.151617
     4     1      0.025962      0.160361      0.150752
     5     1      0.969476      0.014869      0.319596
     6     1      0.218996      0.264792      0.319461
     7     1      0.210232      0.442452      0.485143
     8     1      0.958606      0.193491      0.484879
     9     1      0.906226      0.041989      0.652348
    10     1      0.153495      0.293343      0.652983
    11     1      0.321130      0.400695      0.822504
    12     1      0.072796      0.149460      0.821227
    13     1      0.041252      0.489651      0.986524
    14     1      0.295665      0.738988      0.987262
    15     1      0.278737      0.910638      0.151156
    16     1      0.026664      0.660767      0.151896
    17     1      0.971691      0.514625      0.320046
    18     1      0.220647      0.764811      0.319663
    19     1      0.209452      0.942177      0.484612
    20     1      0.959787      0.693601      0.485368
    21     1      0.904489      0.543046      0.652725
    22     1      0.154657      0.792957      0.653118
    23     1      0.326045      0.898579      0.821612
    24     1      0.075349      0.650346      0.821571
    25     1      0.549159      0.989672      0.986398
    26     1      0.792840      0.239825      0.986066
    27     1      0.773708      0.410919      0.152308
    28     1      0.526278      0.160566      0.151502
    29     1      0.469397      0.014358      0.319786
    30     1      0.719772      0.264965      0.319570
    31     1      0.710144      0.443547      0.485087
    32     1      0.458768      0.192240      0.483656
    33     1      0.406998      0.041923      0.651179
    34     1      0.654499      0.292548      0.651722
    35     1      0.820344      0.399247      0.820687
    36     1      0.571145      0.150360      0.820748
    37     1      0.541843      0.489065      0.987445
    38     1      0.793916      0.739213      0.987252
    39     1      0.777083      0.909831      0.151832
    40     1      0.527843      0.660796      0.152037
    41     1      0.470987      0.514447      0.319798
    42     1      0.719929      0.764327      0.320989
    43     1      0.709860      0.942934      0.484753
    44     1      0.457610      0.692049      0.485804
    45     1      0.403058      0.543881      0.653578
    46     1      0.656303      0.792124      0.653333
    47     1      0.825810      0.899603      0.822374
    48     1      0.576041      0.649642      0.822073
ITEM: TIMESTEP
64200
ITEM: NUMBER OF ATOMS
48
ITEM: BOX BOUNDS xy xz yz  pp  pp  pp
     -0.003081      2.203080      0.000000
     -0.005336      3.815850      0.000000
     -0.007546      5.396420      0.000000
ITEM: ATOMS id type xs ys zs
     1     1      0.094858      0.988074      0.968984
     2     1      0.296995      0.241070      0.987193
     3     1      0.274172      0.410768      0.152354
     4     1      0.026925      0.159612      0.150271
     5     1      0.969808      0.014551      0.319473
     6     1      0.218924      0.264316      0.319638
     7     1      0.209611      0.442682      0.485581
     8     1      0.959124      0.192390      0.485073
     9     1      0.890950      0.042394      0.652067
    10     1      0.151020      0.295693      0.651602
    11     1      0.320317      0.400364      0.822848
    12     1      0.069057      0.154281      0.817875
    13     1      0.042947      0.489597      0.986407
    14     1      0.297944      0.738723      0.985942
    15     1      0.277863      0.910927      0.150686
    16     1      0.028333      0.660151      0.151769
    17     1      0.972301      0.513818      0.320672
    18     1      0.222904      0.764009      0.320943
    19     1      0.210214      0.942984      0.485283
    20     1      0.958642      0.691708      0.484997
    21     1      0.901806      0.542500      0.652792
    22     1      0.149229      0.789927      0.649655
    23     1      0.332403      0.889318      0.812384
    24     1      0.074149      0.649697      0.821648
    25     1      0.563632      0.989137      0.985035
    26     1      0.794953      0.239146      0.986085
    27     1      0.775350      0.410743      0.152210
    28     1      0.527273      0.161208      0.151827
    29     1      0.469813      0.014735      0.319999
    30     1      0.720048      0.264344      0.319605
    31     1      0.709229      0.442622      0.484758
    32     1      0.457304      0.191088      0.484689
    33     1      0.362784      0.051041      0.661921
    34     1      0.653940      0.291414      0.651958
    35     1      0.820227      0.400363      0.821036
    36     1      0.571674      0.150214      0.821789
    37     1      0.541817      0.489620      0.987592
    38     1      0.796856      0.740326      0.986739
    39     1      0.779392      0.910117      0.152232
    40     1      0.528794      0.660273      0.152158
    41     1      0.470892      0.514588      0.320385
    42     1      0.719675      0.763547      0.321472
    43     1      0.709060      0.941500      0.484311
    44     1      0.454192      0.693541      0.498431
    45     1      0.402009      0.539102      0.657467
    46     1      0.657379      0.795399      0.656358
    47     1      0.825937      0.899384      0.821800
    48     1      0.575150      0.648300      0.822858
ITEM: TIMESTEP
64250
ITEM: NUMBER OF ATOMS
48
ITEM: BOX BOUNDS xy xz yz  pp  pp  pp
     -0.003081      2.203080      0.000000
     -0.005336      3.815850      0.000000
     -0.007546      5.396420      0.000000
ITEM: ATOMS id type xs ys zs
     1     1      0.080528      0.988242      0.976093
     2     1      0.298025      0.240737      0.987016
     3     1      0.274423      0.411016      0.152177
     4     1      0.027755      0.159233      0.149952
     5     1      0.970988      0.015303      0.319902
     6     1      0.219045      0.264141      0.319922
     7     1      0.210004      0.441928      0.484879
     8     1      0.957813      0.191832      0.484984
     9     1      0.886610      0.044096      0.652042
    10     1      0.149865      0.297161      0.651383
    11     1      0.319857      0.400479      0.823339
    12     1      0.069703      0.153298      0.817358
    13     1      0.042752      0.490624      0.986957
    14     1      0.299916      0.737527      0.986177
    15     1      0.278030      0.910953      0.150149
    16     1      0.028498      0.660169      0.152172
    17     1      0.972109      0.514178      0.320138
    18     1      0.224278      0.764399      0.321742
    19     1      0.208097      0.942556      0.485078
    20     1      0.956830      0.690511      0.484719
    21     1      0.901183      0.543318      0.652377
    22     1      0.151393      0.789833      0.650089
    23     1      0.333500      0.892135      0.816624
    24     1      0.072342      0.649316      0.821224
    25     1      0.566205      0.989206      0.984985
    26     1      0.797294      0.239777      0.986778
    27     1      0.775352      0.411328      0.153152
    28     1      0.527947      0.160620      0.151681
    29     1      0.471793      0.014922      0.319790
    30     1      0.719431      0.264274      0.320407
    31     1      0.708221      0.441685      0.484838
    32     1      0.456772      0.190455      0.485569
    33     1      0.374084      0.049117      0.657174
    34     1      0.652895      0.291336      0.652092
    35     1      0.820554      0.399965      0.820755
    36     1      0.570675      0.150572      0.822339
    37     1      0.544185      0.489613      0.987468
    38     1      0.798990      0.740448      0.987165
    39     1      0.780821      0.909922      0.151705
    40     1      0.528498      0.660476      0.152698
    41     1      0.468964      0.514876      0.320345
    42     1      0.720711      0.763544      0.321207
    43     1      0.708715      0.940845      0.484366
    44     1      0.456086      0.692623      0.492893
    45     1      0.402677      0.540062      0.656372
    46     1      0.654692      0.795248      0.655877
    47     1      0.827669      0.900185      0.821825
    48     1      0.575995      0.647987      0.822867
ITEM: TIMESTEP
64300
ITEM: NUMBER OF ATOMS
48
ITEM: BOX BOUNDS xy xz yz  pp  pp  pp
     -0.003081      2.203080      0.000000
     -0.005336      3.815850      0.000000
     -0.007546      5.396420      0.000000
ITEM: ATOMS id type xs ys zs
     1     1      0.074092      0.989179      0.979996
     2     1      0.299641      0.240529      0.986979
     3     1      0.275718      0.410438      0.152008
     4     1      0.028899      0.159198      0.149463
     5     1      0.971471      0.015147      0.319654
     6     1      0.219406      0.264389      0.319582
     7     1      0.208976      0.441959      0.484868
     8     1      0.957037      0.191028      0.485218
     9     1      0.885807      0.043545      0.652220
    10     1      0.147710      0.296844      0.651662
    11     1      0.319164      0.400583      0.823162
    12     1      0.072816      0.152473      0.818125
    13     1      0.043444      0.490395      0.987012
    14     1      0.300418      0.738160      0.985701
    15     1      0.279344      0.910084      0.150551
    16     1      0.029088      0.661269      0.152489
    17     1      0.973083      0.514459      0.320134
    18     1      0.223071      0.765117      0.321057
    19     1      0.206257      0.942410      0.484916
    20     1      0.955782      0.690128      0.484576
    21     1      0.901775      0.543793      0.652405
    22     1      0.150367      0.791336      0.650966
    23     1      0.333204      0.894451      0.818363
    24     1      0.072899      0.649258      0.820955
    25     1      0.563978      0.988971      0.984854
    26     1      0.798111      0.239855      0.986436
    27     1      0.774914      0.411405      0.152397
    28     1      0.529279      0.160077      0.151741
    29     1      0.471607      0.014213      0.319545
    30     1      0.720216      0.264610      0.320354
    31     1      0.707132      0.441035      0.484919
    32     1      0.456083      0.190096      0.485816
    33     1      0.380481      0.047424      0.655307
    34     1      0.649721      0.292521      0.652456
    35     1      0.820316      0.399198      0.821576
    36     1      0.570522      0.150532      0.822274
    37     1      0.544242      0.489889      0.987830
    38     1      0.800249      0.740288      0.986929
    39     1      0.781459      0.910545      0.151402
    40     1      0.528352      0.660578      0.152730
    41     1      0.470649      0.515227      0.320513
    42     1      0.721744      0.763861      0.320256
    43     1      0.705550      0.939537      0.484239
    44     1      0.456207      0.691979      0.489582
    45     1      0.402647      0.541144      0.655411
    46     1      0.649785      0.795094      0.655458
    47     1      0.829498      0.899905      0.821893
    48     1      0.576356      0.647961      0.823316
ITEM: TIMESTEP
64350
ITEM: NUMBER OF ATOMS
48
ITEM: BOX BOUNDS xy xz yz  pp  pp  pp
     -0.003081      2.203080      0.000000
     -0.005336      3.815850      0.000000
     -0.007546      5.396420      0.000000
ITEM: ATOMS id type xs ys zs
     1     1      0.067695      0.989848      0.982200
     2     1      0.298852      0.240066      0.986430
     3     1      0.274977      0.410310      0.152712
     4     1      0.028962      0.159853      0.150264
     5     1      0.970770      0.015234      0.319806
     6     1      0.221150      0.263851      0.319492
     7     1      0.210451      0.440994      0.484932
     8     1      0.956574      0.190909      0.485409
     9     1      0.886743      0.044062      0.652896
    10     1      0.147603      0.295341      0.652350
    11     1      0.319391      0.401011      0.823000
    12     1      0.072605      0.150696      0.818890
    13     1      0.044135      0.490462      0.986800
    14     1      0.300307      0.737914      0.986323
    15     1      0.281310      0.910609      0.150657
    16     1      0.028741      0.660821      0.152214
    17     1      0.973195      0.514559      0.319837
    18     1      0.223888      0.765233      0.320771
    19     1      0.204945      0.941439      0.484913
    20     1      0.956034      0.690068      0.484465
    21     1      0.901306      0.542882      0.652352
    22     1      0.150675      0.791747      0.651806
    23     1      0.331416      0.895414      0.819568
    24     1      0.072796      0.649268      0.821236
    25     1      0.561162      0.989166      0.985334
    26     1      0.800208      0.240138      0.986423
    27     1      0.776354      0.410368      0.151776
    28     1      0.528881      0.160346      0.151693
    29     1      0.471401      0.014028      0.319216
    30     1      0.719251      0.264094      0.319619
    31     1      0.708039      0.440382      0.484772
    32     1      0.456097      0.189823      0.485452
    33     1      0.384035      0.046330      0.654894
    34     1      0.649014      0.292830      0.653071
    35     1      0.820758      0.399483      0.822209
    36     1      0.570334      0.150942      0.822446
    37     1      0.545996      0.490123      0.987947
    38     1      0.799737      0.740499      0.986522
    39     1      0.781993      0.910903      0.151740
    40     1      0.529112      0.660961      0.152827
    41     1      0.471793      0.515047      0.320432
    42     1      0.721222      0.764145      0.320568
    43     1      0.705009      0.939388      0.484568
    44     1      0.455091      0.691921      0.488040
    45     1      0.403624      0.541461      0.654630
    46     1      0.648755      0.794710      0.655099
    47     1      0.830337      0.900133      0.821781
    48     1      0.574992      0.648863      0.823101
ITEM: TIMESTEP
64400
ITEM: NUMBER OF ATOMS
48
ITEM: BOX BOUNDS xy xz yz  pp  pp  pp
     -0.003081      2.203080      0.000000
     -0.005336      3.815850      0.000000
     -0.007546      5.396420      0.000000
ITEM: ATOMS id type xs ys zs
     1     1      0.061893      0.990341      0.983462
     2     1      0.300369      0.239852      0.985879
     3     1      0.275985      0.410863      0.152250
     4     1      0.030485      0.160153      0.150462
     5     1      0.970083      0.015118      0.319963
     6     1      0.221094      0.263873      0.318962
     7     1      0.210116      0.441191      0.485170
     8     1      0.957372      0.190480      0.485497
     9     1      0.888418      0.043206      0.652697
    10     1      0.147944      0.294578      0.652952
    11     1      0.320043      0.401521      0.822831
    12     1      0.072634      0.151184      0.819727
    13     1      0.046297      0.490612      0.986934
    14     1      0.299716      0.738691      0.986706
    15     1      0.281504      0.910527      0.150557
    16     1      0.029102      0.661137      0.152503
    17     1      0.972864      0.513600      0.319680
    18     1      0.221863      0.765291      0.319818
    19     1      0.205526      0.941122      0.484841
    20     1      0.956849      0.690172      0.484807
    21     1      0.901258      0.542961      0.651793
    22     1      0.148526      0.792089      0.652183
    23     1      0.330943      0.896729      0.820795
    24     1      0.072717      0.649640      0.820919
    25     1      0.558774      0.989356      0.985704
    26     1      0.801494      0.240054      0.986271
    27     1      0.776423      0.410141      0.152086
    28     1      0.528309      0.160272      0.151189
    29     1      0.470959      0.014157      0.319693
    30     1      0.720046      0.264206      0.319570
    31     1      0.709009      0.439635      0.485092
    32     1      0.456530      0.190150      0.484783
    33     1      0.386495      0.045575      0.653976
    34     1      0.649132      0.292400      0.653020
    35     1      0.820001      0.400301      0.822317
    36     1      0.570999      0.150529      0.821932
    37     1      0.548129      0.489138      0.988102
    38     1      0.799104      0.740029      0.986597
    39     1      0.782937      0.910749      0.151337
    40     1      0.529211      0.660615      0.152909
    41     1      0.472097      0.514958      0.320632
    42     1      0.720757      0.764938      0.320632
    43     1      0.705817      0.939495      0.485274
    44     1      0.455850      0.691195      0.487358
    45     1      0.401615      0.541391      0.653858
    46     1      0.648323      0.794302      0.654659
    47     1      0.829340      0.900639      0.822095
    48     1      0.573943      0.648952      0.822878
ITEM: TIMESTEP
64450
ITEM: NUMBER OF ATOMS
48
ITEM: BOX BOUNDS xy xz yz  pp  pp  pp
     -0.003081      2.203080      0.000000
     -0.005336      3.815850      0.000000
     -0.007546      5.396420      0.000000
ITEM: ATOMS id type xs ys zs
     1     1      0.058747      0.989486      0.985108
     2     1      0.300469      0.239754      0.986384
     3     1      0.277401      0.411242      0.151977
     4     1      0.029925      0.160441      0.150879
     5     1      0.970009      0.014521      0.320074
     6     1      0.220365      0.263989      0.319829
     7     1      0.209892      0.440441      0.485003
     8     1      0.957576      0.189142      0.485483
     9     1      0.889864      0.043215      0.653183
    10     1      0.147305      0.294013      0.652625
    11     1      0.318966      0.400636      0.822772
    12     1      0.072451      0.150621      0.820862
    13     1      0.045910      0.491703      0.987382
    14     1      0.300296      0.739230      0.986232
    15     1      0.281877      0.910695      0.150958
    16     1      0.029508      0.660631      0.152248
    17     1      0.971860      0.514370      0.320168
    18     1      0.220481      0.764358      0.320072
    19     1      0.206849      0.940751      0.484903
    20     1      0.957086      0.690070      0.485040
    21     1      0.901661      0.542235      0.652940
    22     1      0.147655      0.792568      0.652708
    23     1      0.329039      0.897560      0.820933
    24     1      0.072242      0.649274      0.821566
    25     1      0.557610      0.989640      0.985543
    26     1      0.802270      0.239858      0.985564
    27     1      0.776982      0.411145      0.152308
    28     1      0.530197      0.160327      0.151291
    29     1      0.471637      0.013969      0.319570
    30     1      0.721390      0.264156      0.319585
    31     1      0.710881      0.439657      0.484838
    32     1      0.457810      0.189718      0.484980
    33     1      0.387655      0.045099      0.653265
    34     1      0.649033      0.292737      0.653085
    35     1      0.820980      0.399691      0.821865
    36     1      0.571033      0.150430      0.821484
    37     1      0.546780      0.489980      0.987147
    38     1      0.800163      0.739794      0.986769
    39     1      0.781892      0.910079      0.151335
    40     1      0.528953      0.661457      0.152798
    41     1      0.471472      0.514937      0.320332
    42     1      0.721623      0.764854      0.320285
    43     1      0.705741      0.939683      0.485274
    44     1      0.455580      0.690516      0.487085
    45     1      0.401546      0.541034      0.653738
    46     1      0.648896      0.793456      0.654436
    47     1      0.828545      0.900312      0.822065
    48     1      0.572921      0.648873      0.822910
ITEM: TIMESTEP
64500
ITEM: NUMBER OF ATOMS
48
ITEM: BOX BOUNDS xy xz yz  pp  pp  pp
     -0.003081      2.203080      0.000000
     -0.005336      3.815850      0.000000
     -0.007546      5.396420      0.000000
ITEM: ATOMS id type xs ys zs
     1     1      0.056925      0.989745      0.985571
     2     1      0.301545      0.240278      0.986622
     3     1      0.278098      0.410823      0.152084
     4     1      0.029391      0.160212      0.151484
     5     1      0.971082      0.014209      0.319835
     6     1      0.222076      0.264203      0.319548
     7     1      0.210832      0.439338      0.485187
     8     1      0.957473      0.189450      0.484998
     9     1      0.890190      0.043343      0.653433
    10     1      0.148752      0.293208      0.652531
    11     1      0.320743      0.401117      0.822464
    12     1      0.073200      0.150303      0.821284
    13     1      0.046478      0.490591      0.987032
    14     1      0.300369      0.739817      0.986536
    15     1      0.281947      0.910822      0.151511
    16     1      0.030046      0.660928      0.152586
    17     1      0.971769      0.514711      0.319779