ITEM: TIMESTEP
64001
ITEM: NUMBER OF ATOMS
48
ITEM: BOX BOUNDS xy xz yz  pp  pp  pp
     -0.003081      2.203080      0.000000
     -0.005336      3.815850      0.000000
     -0.007546      5.396420      0.000000
ITEM: ATOMS id type xs ys zs
     1     1      0.048960      0.988107      0.986879
     2     1      0.292983      0.237157      0.986323
     3     1      0.272348      0.408550      0.151587
     4     1      0.022288      0.159253      0.150368
     5     1      0.967332      0.015582      0.319136
     6     1      0.220030      0.262847      0.318790
     7     1      0.211922      0.443016      0.485057
     8     1      0.958998      0.195749      0.485209
     9     1      0.908023      0.044712      0.651718
    10     1      0.153897      0.294592      0.653454
    11     1      0.322712      0.400902      0.822767
    12     1      0.073792      0.149348      0.821845
    13     1      0.038718      0.487263      0.987082
    14     1      0.292269      0.735875      0.986897
    15     1      0.277751      0.908762      0.151332
    16     1      0.026386      0.657944      0.152834
    17     1      0.971910      0.513512      0.320536
    18     1      0.219266      0.764714      0.319762
    19     1      0.208554      0.944020      0.484322
    20     1      0.964013      0.692940      0.485523
    21     1      0.904599      0.544275      0.652520
    22     1      0.157781      0.794889      0.653290
    23     1      0.329253      0.899286      0.821700
    24     1      0.073820      0.649255      0.821584
    25     1      0.549207      0.987262      0.986173
    26     1      0.791350      0.237965      0.985541
    27     1      0.772909      0.410085      0.153019
    28     1      0.523850      0.159800      0.151450
    29     1      0.468141      0.015868      0.319898
    30     1      0.720455      0.265182      0.320207
    31     1      0.709755      0.444923      0.484678
    32     1      0.459241      0.193593      0.484232
    33     1      0.409005      0.042891      0.650941
    34     1      0.651642      0.294879      0.651239
    35     1      0.823769      0.399288      0.820507
    36     1      0.572347      0.150261      0.820188
    37     1      0.541974      0.488561      0.987973
    38     1      0.794098      0.737928      0.988955
    39     1      0.776304      0.908922      0.152449
    40     1      0.525543      0.659939      0.152907
    41     1      0.469623      0.513669      0.319411
    42     1      0.720556      0.764194      0.320658
    43     1      0.712307      0.943487      0.483993
    44     1      0.462268      0.694607      0.485043
    45     1      0.404333      0.544549      0.653265
    46     1      0.658618      0.793762      0.653186
    47     1      0.829033      0.898822      0.822317
    48     1      0.575791      0.649277      0.822887
ITEM: TIMESTEP
64050
ITEM: NUMBER OF ATOMS
48
ITEM: BOX BOUNDS xy xz yz  pp  pp  pp
     -0.003081      2.203080      0.000000
     -0.005336      3.815850      0.000000
     -0.007546      5.396420      0.000000
ITEM: ATOMS id type xs ys zs
     1     1      0.048347      0.988822      0.987631
     2     1      0.293698      0.238132      0.986653
     3     1      0.271788      0.409062      0.151288
     4     1      0.023064      0.159659      0.150617
     5     1      0.969011      0.014815      0.319321
     6     1      0.220054      0.263845      0.318254
     7     1      0.211541      0.442168      0.485179
     8     1      0.959115      0.194560      0.484815
     9     1      0.907988      0.043674      0.652196
    10     1      0.153958      0.293852      0.653537
    11     1      0.322407      0.399560      0.822339
    12     1      0.072623      0.149240      0.821636
    13     1      0.041128      0.487677      0.986700
    14     1      0.293439      0.737268      0.986497
    15     1      0.277452      0.909172      0.150999
    16     1      0.026659      0.658885      0.152730
    17     1      0.971427      0.513912      0.320415
    18     1      0.219992      0.764861      0.319759
    19     1      0.208930      0.942942      0.484524
    20     1      0.962954      0.692599      0.485474
    21     1      0.904346      0.544039      0.652715
    22     1      0.157498      0.794377      0.652937
    23     1      0.327165      0.899268      0.821020
    24     1      0.074448      0.649714      0.821857
    25     1      0.549275      0.987708      0.986088
    26     1      0.792446      0.239244      0.985899
    27     1      0.773698      0.409879      0.153342
    28     1      0.524746      0.159746      0.151608
    29     1      0.468717      0.014984      0.319910
    30     1      0.720248      0.264024      0.320202
    31     1      0.708726      0.444143      0.485183
    32     1      0.459147      0.193788      0.483998
    33     1      0.409442      0.042958      0.651158
    34     1      0.653615      0.293423      0.651679
    35     1      0.823858      0.399576      0.820311
    36     1      0.571304      0.149860      0.820285
    37     1      0.542587      0.488079      0.988183
    38     1      0.794658      0.737931      0.988228
    39     1      0.776489      0.909123      0.152428
    40     1      0.526688      0.660078      0.152123
    41     1      0.469438      0.513895      0.319424
    42     1      0.720405      0.763551      0.320114
    43     1      0.711584      0.943776      0.484416
    44     1      0.460331      0.693537      0.484894
    45     1      0.403857      0.544185      0.653044
    46     1      0.658043      0.793789      0.652755
    47     1      0.828432      0.899503      0.822197
    48     1      0.576943      0.649757      0.822218
ITEM: TIMESTEP
64100
ITEM: NUMBER OF ATOMS
48
ITEM: BOX BOUNDS xy xz yz  pp  pp  pp
     -0.003081      2.203080      0.000000
     -0.005336      3.815850      0.000000
     -0.007546      5.396420      0.000000
ITEM: ATOMS id type xs ys zs
     1     1      0.047987      0.988199      0.987403
     2     1      0.294402      0.237640      0.986436
     3     1      0.272860      0.409115      0.151397
     4     1      0.025072      0.159497      0.151122
     5     1      0.968944      0.014953      0.320089
     6     1      0.219163      0.263197      0.319725
     7     1      0.209378      0.441589      0.484900
     8     1      0.955234      0.194486      0.501537
     9     1      0.907022      0.038692      0.655799
    10     1      0.158927      0.296318      0.656608
    11     1      0.323509      0.399224      0.822830
    12     1      0.071373      0.149148      0.822361
    13     1      0.041351      0.487998      0.985828
    14     1      0.293948      0.738004      0.987037
    15     1      0.278572      0.909565      0.151448
    16     1      0.026810      0.659614      0.152638
    17     1      0.971477      0.514688      0.319958
    18     1      0.221260      0.764851      0.319720
    19     1      0.209304      0.942871      0.484383
    20     1      0.961165      0.693690      0.484469
    21     1      0.908468      0.547460      0.648816
    22     1      0.156600      0.793381      0.652605
    23     1      0.327692      0.898067      0.821588
    24     1      0.075604      0.649134      0.821117
    25     1      0.549339      0.989081      0.986397
    26     1      0.793588      0.239964      0.985285
    27     1      0.772495      0.409602      0.153022
    28     1      0.525825      0.159807      0.151495
    29     1      0.468092      0.014724      0.319932
    30     1      0.722234      0.262471      0.321198
    31     1      0.708034      0.443913      0.484597
    32     1      0.457088      0.192454      0.483649
    33     1      0.407845      0.043317      0.652006
    34     1      0.648843      0.290165      0.648244
    35     1      0.828039      0.399468      0.804477
    36     1      0.572914      0.149860      0.820887
    37     1      0.543409      0.488391      0.987440
    38     1      0.794892      0.738655      0.987726
    39     1      0.776946      0.909375      0.151838
    40     1      0.525861      0.659660      0.152390
    41     1      0.470135      0.513577      0.319187
    42     1      0.720870      0.764180      0.320653
    43     1      0.710080      0.943075      0.484628
    44     1      0.460166      0.692984      0.485182
    45     1      0.405500      0.543360      0.652996
    46     1      0.657521      0.792946      0.653435
    47     1      0.826823      0.898931      0.823011
    48     1      0.576380      0.649330      0.822141
ITEM: TIMESTEP
64150
ITEM: NUMBER OF ATOMS
48
ITEM: BOX BOUNDS xy xz yz  pp  pp  pp
     -0.003081      2.203080      0.000000
     -0.005336      3.815850      0.000000
     -0.007546      5.396420      0.000000
ITEM: ATOMS id type xs ys zs
     1     1      0.047358      0.988591      0.987912
     2     1      0.293965      0.237651      0.987360
     3     1      0.272973      0.409310      0.151113
     4     1      0.024714      0.159129      0.151144
     5     1      0.968926      0.014625      0.320877
     6     1      0.218419      0.262748      0.319686
     7     1      0.209840      0.439821      0.485109
     8     1      0.954852      0.194683      0.494041
     9     1      0.908408      0.039105      0.655637
    10     1      0.158557      0.294599      0.656094
    11     1      0.325530      0.399794      0.823337
    12     1      0.072767      0.148770      0.822336
    13     1      0.041661      0.487398      0.985138
    14     1      0.293755      0.738401      0.987412
    15     1      0.278042      0.910375      0.150970
    16     1      0.026836      0.659618      0.152276
    17     1      0.971894      0.514503      0.319426
    18     1      0.220868      0.764780      0.319332
    19     1      0.209096      0.942917      0.484744
    20     1      0.970410      0.696620      0.483896
    21     1      0.910963      0.542616      0.636600
    22     1      0.157779      0.792248      0.652682
    23     1      0.326201      0.899145      0.821852
    24     1      0.073673      0.648323      0.819784
    25     1      0.549121      0.988654      0.986149
    26     1      0.794083      0.241034      0.984574
    27     1      0.774001      0.410426      0.152456
    28     1      0.526355      0.160607      0.152161
    29     1      0.469647      0.014061      0.319929
    30     1      0.722017      0.263193      0.321417
    31     1      0.703331      0.440807      0.480559
    32     1      0.454215      0.191654      0.483299
    33     1      0.408066      0.042614      0.651675
    34     1      0.651841      0.289986      0.648411
    35     1      0.829293      0.400680      0.809883
    36     1      0.573695      0.150074      0.820535
    37     1      0.543774      0.489531      0.987423
    38     1      0.793832      0.738504      0.987762
    39     1      0.777707      0.908323      0.153861
    40     1      0.526546      0.661084      0.153560
    41     1      0.469644      0.513969      0.319247
    42     1      0.716902      0.766534      0.333397
    43     1      0.708889      0.945359      0.487559
    44     1      0.456516      0.690870      0.488400
    45     1      0.407420      0.541920      0.653323
    46     1      0.656184      0.792060      0.653595
    47     1      0.826733      0.898793      0.822969
    48     1      0.575612      0.648891      0.822281
ITEM: TIMESTEP
64200
ITEM: NUMBER OF ATOMS
48
ITEM: BOX BOUNDS xy xz yz  pp  pp  pp
     -0.003081      2.203080      0.000000
     -0.005336      3.815850      0.000000
     -0.007546      5.396420      0.000000
ITEM: ATOMS id type xs ys zs
     1     1      0.047669      0.988696      0.987375
     2     1      0.296036      0.237943      0.987510
     3     1      0.274349      0.410747      0.151518
     4     1      0.025620      0.160227      0.151088
     5     1      0.970166      0.014567      0.321476
     6     1      0.219294      0.263855      0.319514
     7     1      0.208788      0.440597      0.485499
     8     1      0.955577      0.192789      0.490751
     9     1      0.908911      0.039782      0.655460
    10     1      0.158081      0.293106      0.655710
    11     1      0.327822      0.399962      0.823253
    12     1      0.074238      0.149326      0.822742
    13     1      0.040896      0.487600      0.984834
    14     1      0.293271      0.738801      0.986913
    15     1      0.277894      0.910442      0.151542
    16     1      0.026464      0.659975      0.151702
    17     1      0.972522      0.515417      0.320264
    18     1      0.221291      0.764856      0.319347
    19     1      0.208889      0.942406      0.485406
    20     1      0.966691      0.694924      0.484256
    21     1      0.910788      0.541296      0.642670
    22     1      0.157426      0.792622      0.652404
    23     1      0.326095      0.899521      0.821205
    24     1      0.073423      0.648408      0.819583
    25     1      0.549223      0.989103      0.986341
    26     1      0.794865      0.240144      0.984532
    27     1      0.774720      0.410651      0.152554
    28     1      0.527903      0.161197      0.152297
    29     1      0.470612      0.014178      0.320217
    30     1      0.722997      0.262667      0.320966
    31     1      0.705763      0.440311      0.481266
    32     1      0.454389      0.191425      0.483694
    33     1      0.407911      0.042330      0.652042
    34     1      0.654650      0.289710      0.648988
    35     1      0.828872      0.400965      0.813775
    36     1      0.573891      0.150571      0.821280
    37     1      0.544358      0.489324      0.987585
    38     1      0.794063      0.739188      0.987833
    39     1      0.779000      0.908815      0.154071
    40     1      0.527525      0.662351      0.153596
    41     1      0.469491      0.513735      0.318775
    42     1      0.716701      0.766672      0.326972
    43     1      0.707500      0.944446      0.488052
    44     1      0.456995      0.690537      0.487877
    45     1      0.407433      0.541502      0.654057
    46     1      0.656803      0.792233      0.653467
    47     1      0.825150      0.898808      0.822924
    48     1      0.576158      0.649285      0.822708
ITEM: TIMESTEP
64250
ITEM: NUMBER OF ATOMS
48
ITEM: BOX BOUNDS xy xz yz  pp  pp  pp
     -0.003081      2.203080      0.000000
     -0.005336      3.815850      0.000000
     -0.007546      5.396420      0.000000
ITEM: ATOMS id type xs ys zs
     1     1      0.047916      0.988883      0.987650
     2     1      0.295979      0.237782      0.987365
     3     1      0.274263      0.411925      0.151549
     4     1      0.026820      0.160920      0.151764
     5     1      0.969911      0.015220      0.321218
     6     1      0.218802      0.265042      0.319384
     7     1      0.207361      0.440446      0.485290
     8     1      0.955107      0.192388      0.489438
     9     1      0.910370      0.040356      0.654589
    10     1      0.157921      0.292215      0.655378
    11     1      0.325560      0.400297      0.823267
    12     1      0.073740      0.149687      0.823071
    13     1      0.041388      0.488982      0.985410
    14     1      0.294116      0.739149      0.987202
    15     1      0.278677      0.910187      0.151868
    16     1      0.026452      0.660265      0.151855
    17     1      0.971968      0.515914      0.319870
    18     1      0.220887      0.764876      0.319843
    19     1      0.207667      0.941960      0.485247
    20     1      0.962996      0.694280      0.483720
    21     1      0.910284      0.541287      0.645588
    22     1      0.158901      0.791184      0.652801
    23     1      0.326977      0.899299      0.821744
    24     1      0.071497      0.649013      0.819427
    25     1      0.549116      0.989690      0.986966
    26     1      0.797439      0.240040      0.985192
    27     1      0.775879      0.411168      0.152214
    28     1      0.528343      0.160782      0.152387
    29     1      0.469320      0.014527      0.320268
    30     1      0.722782      0.262607      0.320451
    31     1      0.707452      0.439782      0.481861
    32     1      0.454627      0.190609      0.484045
    33     1      0.408380      0.042420      0.651992
    34     1      0.656213      0.290248      0.649192
    35     1      0.826466      0.400356      0.815336
    36     1      0.573994      0.151131      0.820868
    37     1      0.544217      0.488765      0.987673
    38     1      0.793861      0.739072      0.987566
    39     1      0.779325      0.910167      0.154063
    40     1      0.528068      0.662228      0.152843
    41     1      0.469919      0.514419      0.319145
    42     1      0.717035      0.766352      0.324312
    43     1      0.706011      0.942730      0.487519
    44     1      0.458258      0.689029      0.487404
    45     1      0.407455      0.540149      0.654187
    46     1      0.657409      0.791235      0.653691
    47     1      0.825850      0.899244      0.822850
    48     1      0.573072      0.649618      0.822863
ITEM: TIMESTEP
64300
ITEM: NUMBER OF ATOMS
48
ITEM: BOX BOUNDS xy xz yz  pp  pp  pp
     -0.003081      2.203080      0.000000
     -0.005336      3.815850      0.000000
     -0.007546      5.396420      0.000000
ITEM: ATOMS id type xs ys zs
     1     1      0.047728      0.989034      0.987257
     2     1      0.296274      0.238710      0.987040
     3     1      0.276765      0.411995      0.151295
     4     1      0.026538      0.160729      0.151418
     5     1      0.969989      0.015204      0.321842
     6     1      0.221119      0.264609      0.319144
     7     1      0.206766      0.441054      0.485309
     8     1      0.955641      0.191398      0.488462
     9     1      0.910016      0.039719      0.653904
    10     1      0.157473      0.290986      0.654726
    11     1      0.324998      0.399725      0.823195
    12     1      0.073434      0.150119      0.822902
    13     1      0.043100      0.489845      0.985235
    14     1      0.294151      0.738553      0.986958
    15     1      0.279696      0.911278      0.151761
    16     1      0.028638      0.660986      0.151292
    17     1      0.971166      0.515731      0.319651
    18     1      0.221041      0.764525      0.320229
    19     1      0.207031      0.941758      0.485427
    20     1      0.960908      0.692668      0.484221
    21     1      0.909063      0.540590      0.647601
    22     1      0.159831      0.790780      0.652043
    23     1      0.325720      0.899860      0.821301
    24     1      0.073798      0.648630      0.819134
    25     1      0.548567      0.989248      0.986680
    26     1      0.797549      0.240814      0.985536
    27     1      0.777541      0.411415      0.152082
    28     1      0.528079      0.161421      0.151975
    29     1      0.469956      0.014491      0.320323
    30     1      0.724154      0.262842      0.319654
    31     1      0.706722      0.440513      0.482315
    32     1      0.454697      0.190137      0.483912
    33     1      0.409151      0.041904      0.652574
    34     1      0.657290      0.289450      0.649720
    35     1      0.827116      0.400446      0.816924
    36     1      0.572848      0.150716      0.821116
    37     1      0.544573      0.488751      0.987719
    38     1      0.794331      0.739049      0.987559
    39     1      0.779618      0.910422      0.153350
    40     1      0.528721      0.662589      0.153065
    41     1      0.470787      0.514518      0.319508
    42     1      0.717651      0.766398      0.322741
    43     1      0.706526      0.942085      0.486869
    44     1      0.458345      0.689434      0.487012
    45     1      0.406960      0.540549      0.654547
    46     1      0.658914      0.790344      0.653584
    47     1      0.824734      0.899637      0.822805
    48     1      0.572925      0.650288      0.822885
ITEM: TIMESTEP
64350
ITEM: NUMBER OF ATOMS
48
ITEM: BOX BOUNDS xy xz yz  pp  pp  pp
     -0.003081      2.203080      0.000000
     -0.005336      3.815850      0.000000
     -0.007546      5.396420      0.000000
ITEM: ATOMS id type xs ys zs
     1     1      0.047349      0.989854      0.987168
     2     1      0.295994      0.238942      0.987497
     3     1      0.276672      0.411934      0.151374
     4     1      0.026442      0.160928      0.151483
     5     1      0.970180      0.014518      0.321222
     6     1      0.221073      0.264919      0.319282
     7     1      0.205755      0.441385      0.486179
     8     1      0.956645      0.191186      0.487343
     9     1      0.908762      0.039382      0.654137
    10     1      0.157330      0.290857      0.654496
    11     1      0.326286      0.399588      0.823557
    12     1      0.072704      0.150047      0.822822
    13     1      0.044137      0.489837      0.985675
    14     1      0.293424      0.739425      0.986713
    15     1      0.280154      0.911557      0.152020
    16     1      0.027613      0.661084      0.151228
    17     1      0.971775      0.515353      0.320072
    18     1      0.220365      0.764477      0.320205
    19     1      0.206063      0.941061      0.484967
    20     1      0.958359      0.691630      0.484673
    21     1      0.908925      0.539878      0.648516
    22     1      0.160335      0.790910      0.652198
    23     1      0.325020      0.900739      0.821607
    24     1      0.072830      0.649038      0.819955
    25     1      0.548411      0.989817      0.986950
    26     1      0.796757      0.240897      0.985532
    27     1      0.776612      0.411128      0.152240
    28     1      0.527727      0.161206      0.151675
    29     1      0.470216      0.015340      0.320411
    30     1      0.724085      0.262964      0.320132
    31     1      0.705305      0.439855      0.483057
    32     1      0.454280      0.189932      0.484513
    33     1      0.407909      0.040766      0.652104
    34     1      0.658522      0.289276      0.650658
    35     1      0.826022      0.400369      0.817847
    36     1      0.572537      0.150163      0.820694
    37     1      0.544152      0.489734      0.988116
    38     1      0.794272      0.739638      0.987345
    39     1      0.779987      0.910614      0.153076
    40     1      0.527279      0.661750      0.152368
    41     1      0.470295      0.514216      0.319431
    42     1      0.718738      0.765563      0.321579
    43     1      0.705060      0.941624      0.486730
    44     1      0.457623      0.690251      0.486819
    45     1      0.406626      0.539531      0.654748
    46     1      0.658259      0.790056      0.653831
    47     1      0.824372      0.900289      0.822549
    48     1      0.572104      0.649856      0.823236
ITEM: TIMESTEP
64400
ITEM: NUMBER OF ATOMS
48
ITEM: BOX BOUNDS xy xz yz  pp  pp  pp
     -0.003081      2.203080      0.000000
     -0.005336      3.815850      0.000000
     -0.007546      5.396420      0.000000
ITEM: ATOMS id type xs ys zs
     1     1      0.047174      0.989601      0.987671
     2     1      0.295653      0.238790      0.987947
     3     1      0.277321      0.411977      0.151220
     4     1      0.028250      0.161225      0.151404
     5     1      0.971743      0.015182      0.320769
     6     1      0.220559      0.265390      0.319598
     7     1      0.205777      0.440147      0.486115
     8     1      0.956366      0.190465      0.486948
     9     1      0.908372      0.039941      0.653934
    10     1      0.158172      0.290084      0.654050
    11     1      0.325382      0.399155      0.823076
    12     1      0.073020      0.150435      0.822809
    13     1      0.043792      0.490354      0.985503
    14     1      0.294198      0.740082      0.987041
    15     1      0.280078      0.912030      0.152377
    16     1      0.028805      0.661786      0.151408
    17     1      0.970913      0.515496      0.319887
    18     1      0.221631      0.764590      0.320471
    19     1      0.206103      0.939862      0.485012
    20     1      0.958729      0.691680      0.484983
    21     1      0.908739      0.539767      0.649362
    22     1      0.158032      0.790402      0.652682
    23     1      0.323510      0.900493      0.821891
    24     1      0.073932      0.649660      0.820084
    25     1      0.548667      0.991363      0.987356
    26     1      0.795316      0.240343      0.985741
    27     1      0.778031      0.411459      0.152083
    28     1      0.529869      0.161525      0.151898
    29     1      0.471846      0.015213      0.319816
    30     1      0.723623      0.263756      0.320009
    31     1      0.705730      0.439533      0.483454
    32     1      0.454763      0.190433      0.484401
    33     1      0.408053      0.040228      0.652054
    34     1      0.657346      0.289463      0.650831
    35     1      0.824983      0.400245      0.819283
    36     1      0.572785      0.150410      0.821014
    37     1      0.545755      0.490309      0.987959
    38     1      0.794389      0.739934      0.987501
    39     1      0.780073      0.910948      0.152681
    40     1      0.526906      0.662159      0.152633
    41     1      0.470836      0.514288      0.319935
    42     1      0.719107      0.766315      0.321290
    43     1      0.706061      0.940880      0.486722
    44     1      0.457838      0.690662      0.486220
    45     1      0.407412      0.539454      0.654135
    46     1      0.657824      0.789400      0.653955
    47     1      0.824683      0.899695      0.823136
    48     1      0.572142      0.649733      0.823593
ITEM: TIMESTEP
64450
ITEM: NUMBER OF ATOMS
48
ITEM: BOX BOUNDS xy xz yz  pp  pp  pp
     -0.003081      2.203080      0.000000
     -0.005336      3.815850      0.000000
     -0.007546      5.396420      0.000000
ITEM: ATOMS id type xs ys zs
     1     1      0.047195      0.990199      0.987439
     2     1      0.296640      0.239507      0.987355
     3     1      0.278716      0.411540      0.151022
     4     1      0.028158      0.162279      0.151214
     5     1      0.972269      0.015120      0.320565
     6     1      0.221692      0.265083      0.319843
     7     1      0.205381      0.440338      0.485866
     8     1      0.955846      0.190187      0.486029
     9     1      0.907494      0.039273      0.653378
    10     1      0.158578      0.289619      0.654100
    11     1      0.324796      0.399916      0.823355
    12     1      0.071732      0.150318      0.822847
    13     1      0.044636      0.490604      0.985766
    14     1      0.294645      0.740768      0.987006
    15     1      0.280317      0.911301      0.151852
    16     1      0.028431      0.662749      0.152005
    17     1      0.970347      0.515727      0.319920
    18     1      0.220462      0.765579      0.319844
    19     1      0.206784      0.940222      0.484702
    20     1      0.959240      0.690813      0.484986
    21     1      0.908309      0.539124      0.650322
    22     1      0.157924      0.789429      0.653130
    23     1      0.324824      0.900484      0.821874
    24     1      0.072928      0.649478      0.821025
    25     1      0.549567      0.990278      0.987499
    26     1      0.795491      0.240826      0.986263
    27     1      0.779171      0.411169      0.152348
    28     1      0.530713      0.161430      0.151978
    29     1      0.472209      0.014967      0.319830
    30     1      0.723196      0.264536      0.319819
    31     1      0.705138      0.439460      0.483834
    32     1      0.456007      0.189330      0.484144
    33     1      0.407169      0.039889      0.652191
    34     1      0.656799      0.289133      0.651130
    35     1      0.825122      0.400339      0.819412
    36     1      0.572571      0.150852      0.820944
    37     1      0.543719      0.490291      0.988171
    38     1      0.794153      0.739640      0.987363
    39     1      0.778687      0.911405      0.152548
    40     1      0.528069      0.661912      0.152468
    41     1      0.471379      0.514255      0.319694
    42     1      0.720056      0.765892      0.320697
    43     1      0.706380      0.940494      0.486290
    44     1      0.456888      0.690298      0.485647
    45     1      0.408756      0.539265      0.653559
    46     1      0.658396      0.789230      0.653684
    47     1      0.824216      0.899928      0.823414
    48     1      0.573415      0.649904      0.822951
ITEM: TIMESTEP
64500
ITEM: NUMBER OF ATOMS
48
ITEM: BOX BOUNDS xy xz yz  pp  pp  pp
     -0.003081      2.203080      0.000000
     -0.005336      3.815850      0.000000
     -0.007546      5.396420      0.000000
ITEM: ATOMS id type xs ys zs
     1     1      0.047321      0.989625      0.987433
     2     1      0.297070      0.238792      0.987322
     3     1      0.278312      0.412373      0.151314
     4     1      0.030441      0.161443      0.151668
     5     1      0.972088      0.015550      0.320329
     6     1      0.222480      0.264881      0.319729
     7     1      0.205265      0.439344      0.485842
     8     1      0.954580      0.190330      0.486062
     9     1      0.907822      0.038743      0.653842
    10     1      0.156882      0.289413      0.653397
    11     1      0.324928      0.399540      0.823088
    12     1      0.071175      0.150252      0.822806
    13     1      0.044733      0.491374      0.986327
    14     1      0.295099      0.741472      0.987359
    15     1      0.280611      0.912170      0.152092
    16     1      0.028267      0.661902      0.151900
    17     1      0.971769      0.515711      0.319523