ITEM: TIMESTEP
64001
ITEM: NUMBER OF ATOMS
48
ITEM: BOX BOUNDS xy xz yz  pp  pp  pp
     -0.003081      2.203080      0.000000
     -0.005336      3.815850      0.000000
     -0.007546      5.396420      0.000000
ITEM: ATOMS id type xs ys zs
     1     1      0.048838      0.988155      0.986869
     2     1      0.293022      0.237327      0.986197
     3     1      0.272239      0.408628      0.151704
     4     1      0.022371      0.159280      0.150425
     5     1      0.967322      0.015575      0.319061
     6     1      0.220147      0.262845      0.318869
     7     1      0.212590      0.443281      0.485174
     8     1      0.959165      0.195787      0.485175
     9     1      0.907684      0.044552      0.651815
    10     1      0.153921      0.294472      0.653640
    11     1      0.322668      0.401033      0.822835
    12     1      0.073800      0.149521      0.821867
    13     1      0.038740      0.487089      0.987101
    14     1      0.292174      0.736086      0.986930
    15     1      0.277756      0.908659      0.151375
    16     1      0.026088      0.657958      0.152799
    17     1      0.971830      0.513320      0.320641
    18     1      0.218990      0.764451      0.319773
    19     1      0.208753      0.943773      0.484353
    20     1      0.963818      0.692951      0.485626
    21     1      0.904810      0.544321      0.652441
    22     1      0.157637      0.794826      0.653219
    23     1      0.329347      0.899294      0.821573
    24     1      0.073907      0.649165      0.821860
    25     1      0.549041      0.987223      0.986121
    26     1      0.791144      0.238115      0.985513
    27     1      0.772944      0.410034      0.153204
    28     1      0.523671      0.159523      0.151501
    29     1      0.468133      0.015874      0.319774
    30     1      0.720648      0.265053      0.320073
    31     1      0.710018      0.444772      0.484569
    32     1      0.459233      0.193534      0.484227
    33     1      0.408968      0.042743      0.651006
    34     1      0.651616      0.295002      0.651224
    35     1      0.823540      0.399406      0.820488
    36     1      0.572296      0.150293      0.819995
    37     1      0.541660      0.488448      0.988093
    38     1      0.794172      0.738055      0.988895
    39     1      0.776579      0.908969      0.152493
    40     1      0.525860      0.659876      0.152884
    41     1      0.469704      0.513548      0.319395
    42     1      0.720785      0.764208      0.320588
    43     1      0.712275      0.943258      0.484038
    44     1      0.461899      0.694662      0.485223
    45     1      0.404521      0.544615      0.653363
    46     1      0.658704      0.793831      0.653041
    47     1      0.828954      0.898847      0.822386
    48     1      0.575839      0.649170      0.822876
ITEM: TIMESTEP
64050
ITEM: NUMBER OF ATOMS
48
ITEM: BOX BOUNDS xy xz yz  pp  pp  pp
     -0.003081      2.203080      0.000000
     -0.005336      3.815850      0.000000
     -0.007546      5.396420      0.000000
ITEM: ATOMS id type xs ys zs
     1     1      0.049660      0.988741      0.986759
     2     1      0.292920      0.238805      0.986457
     3     1      0.273266      0.409443      0.151787
     4     1      0.023094      0.159608      0.150373
     5     1      0.968793      0.015959      0.319613
     6     1      0.220001      0.263296      0.318597
     7     1      0.211857      0.442947      0.485069
     8     1      0.959750      0.194624      0.484927
     9     1      0.906648      0.044138      0.652807
    10     1      0.155168      0.293870      0.653328
    11     1      0.324006      0.400737      0.822722
    12     1      0.074261      0.149706      0.821772
    13     1      0.039837      0.487133      0.987099
    14     1      0.293256      0.737391      0.986801
    15     1      0.278043      0.908634      0.151198
    16     1      0.026111      0.658836      0.152832
    17     1      0.971126      0.513515      0.320689
    18     1      0.219666      0.765129      0.319961
    19     1      0.209402      0.944201      0.484518
    20     1      0.963387      0.691950      0.485127
    21     1      0.906026      0.543582      0.652611
    22     1      0.157876      0.794365      0.652371
    23     1      0.327891      0.899026      0.821862
    24     1      0.074486      0.648975      0.821737
    25     1      0.549627      0.988598      0.986818
    26     1      0.793014      0.238553      0.985393
    27     1      0.773443      0.409941      0.152994
    28     1      0.524453      0.160522      0.152067
    29     1      0.470144      0.015284      0.320302
    30     1      0.719888      0.265280      0.320173
    31     1      0.710873      0.443135      0.484614
    32     1      0.458713      0.192133      0.483926
    33     1      0.408337      0.041945      0.651042
    34     1      0.653477      0.294438      0.651861
    35     1      0.823162      0.399178      0.820802
    36     1      0.571754      0.150282      0.820376
    37     1      0.541644      0.488316      0.988120
    38     1      0.794381      0.738227      0.987851
    39     1      0.776667      0.910067      0.151847
    40     1      0.526139      0.660135      0.152843
    41     1      0.469670      0.514573      0.319454
    42     1      0.721387      0.764682      0.320399
    43     1      0.711678      0.942557      0.484386
    44     1      0.461051      0.693697      0.485264
    45     1      0.404947      0.543834      0.653488
    46     1      0.657795      0.793188      0.653249
    47     1      0.827809      0.899247      0.822482
    48     1      0.575280      0.650357      0.822900
ITEM: TIMESTEP
64100
ITEM: NUMBER OF ATOMS
48
ITEM: BOX BOUNDS xy xz yz  pp  pp  pp
     -0.003081      2.203080      0.000000
     -0.005336      3.815850      0.000000
     -0.007546      5.396420      0.000000
ITEM: ATOMS id type xs ys zs
     1     1      0.047915      0.987859      0.986698
     2     1      0.293436      0.239560      0.987092
     3     1      0.274266      0.410648      0.151389
     4     1      0.024991      0.159771      0.150505
     5     1      0.968941      0.015753      0.319843
     6     1      0.221022      0.264834      0.318883
     7     1      0.211020      0.442255      0.485283
     8     1      0.960313      0.193144      0.484753
     9     1      0.906584      0.043919      0.652785
    10     1      0.155660      0.293453      0.653810
    11     1      0.323547      0.401026      0.822157
    12     1      0.073670      0.149496      0.821924
    13     1      0.040523      0.488000      0.986930
    14     1      0.294425      0.737995      0.986768
    15     1      0.279703      0.910381      0.151634
    16     1      0.028172      0.660220      0.153168
    17     1      0.970012      0.513919      0.320229
    18     1      0.221010      0.765717      0.320068
    19     1      0.210061      0.943614      0.484065
    20     1      0.962991      0.691868      0.484575
    21     1      0.906187      0.543545      0.652710
    22     1      0.156971      0.793863      0.652302
    23     1      0.325834      0.899069      0.821447
    24     1      0.073945      0.649063      0.821808
    25     1      0.549054      0.989205      0.986464
    26     1      0.793495      0.239182      0.985796
    27     1      0.773421      0.410665      0.152390
    28     1      0.525055      0.160442      0.152240
    29     1      0.469417      0.014265      0.319970
    30     1      0.720386      0.264973      0.320378
    31     1      0.710048      0.442859      0.484652
    32     1      0.460329      0.192832      0.484561
    33     1      0.408612      0.041147      0.651482
    34     1      0.652875      0.293268      0.651394
    35     1      0.822099      0.400574      0.821420
    36     1      0.571933      0.150590      0.820690
    37     1      0.541728      0.488601      0.987699
    38     1      0.794382      0.738351      0.987835
    39     1      0.777736      0.910096      0.152024
    40     1      0.527253      0.660523      0.151890
    41     1      0.468171      0.515387      0.319698
    42     1      0.723036      0.764351      0.320142
    43     1      0.711090      0.942101      0.484838
    44     1      0.461125      0.692836      0.484829
    45     1      0.405436      0.543644      0.653494
    46     1      0.656549      0.792934      0.654195
    47     1      0.827199      0.899663      0.822029
    48     1      0.573061      0.650404      0.822704
ITEM: TIMESTEP
64150
ITEM: NUMBER OF ATOMS
48
ITEM: BOX BOUNDS xy xz yz  pp  pp  pp
     -0.003081      2.203080      0.000000
     -0.005336      3.815850      0.000000
     -0.007546      5.396420      0.000000
ITEM: ATOMS id type xs ys zs
     1     1      0.048254      0.989481      0.986937
     2     1      0.296142      0.239897      0.986959
     3     1      0.275198      0.410084      0.151524
     4     1      0.025484      0.160261      0.150995
     5     1      0.969198      0.015632      0.319929
     6     1      0.219863      0.265117      0.319353
     7     1      0.211902      0.442102      0.485388
     8     1      0.958910      0.192742      0.485025
     9     1      0.905898      0.042861      0.652680
    10     1      0.155827      0.292540      0.653379
    11     1      0.321760      0.400924      0.822294
    12     1      0.074023      0.150210      0.822356
    13     1      0.042258      0.488526      0.987509
    14     1      0.292986      0.738985      0.987364
    15     1      0.278979      0.910925      0.152020
    16     1      0.027978      0.660130      0.153205
    17     1      0.969885      0.514168      0.320916
    18     1      0.221207      0.765139      0.320393
    19     1      0.208831      0.942624      0.484218
    20     1      0.961674      0.691493      0.484774
    21     1      0.905840      0.542277      0.652480
    22     1      0.157212      0.793037      0.651910
    23     1      0.324974      0.899530      0.821017
    24     1      0.074783      0.648997      0.821361
    25     1      0.547466      0.989501      0.986943
    26     1      0.795806      0.239754      0.986456
    27     1      0.774666      0.410444      0.152549
    28     1      0.525718      0.160590      0.152035
    29     1      0.469079      0.014969      0.319768
    30     1      0.720257      0.264589      0.320389
    31     1      0.710787      0.442837      0.484118
    32     1      0.457093      0.192330      0.484900
    33     1      0.407273      0.042585      0.651476
    34     1      0.654883      0.293342      0.652345
    35     1      0.821219      0.400754      0.821647
    36     1      0.571595      0.149637      0.821119
    37     1      0.543383      0.489175      0.987509
    38     1      0.795115      0.739609      0.988236
    39     1      0.777844      0.910492      0.151880
    40     1      0.527020      0.660166      0.151911
    41     1      0.470644      0.515608      0.319142
    42     1      0.720609      0.764013      0.320187
    43     1      0.708988      0.941691      0.484994
    44     1      0.460452      0.692549      0.485392
    45     1      0.404768      0.542630      0.653257
    46     1      0.656483      0.792691      0.653140
    47     1      0.826072      0.899436      0.822162
    48     1      0.572515      0.649733      0.822701
ITEM: TIMESTEP
64200
ITEM: NUMBER OF ATOMS
48
ITEM: BOX BOUNDS xy xz yz  pp  pp  pp
     -0.003081      2.203080      0.000000
     -0.005336      3.815850      0.000000
     -0.007546      5.396420      0.000000
ITEM: ATOMS id type xs ys zs
     1     1      0.048991      0.990627      0.986709
     2     1      0.297453      0.240463      0.986720
     3     1      0.276020      0.411026      0.152048
     4     1      0.027434      0.161025      0.151000
     5     1      0.970949      0.015777      0.319755
     6     1      0.220670      0.265733      0.319495
     7     1      0.210862      0.441524      0.485331
     8     1      0.958226      0.192221      0.485122
     9     1      0.905031      0.042433      0.652685
    10     1      0.156073      0.291756      0.653524
    11     1      0.320952      0.400219      0.822511
    12     1      0.072309      0.150820      0.822497
    13     1      0.042014      0.489507      0.987630
    14     1      0.292530      0.739631      0.987637
    15     1      0.278271      0.911109      0.151990
    16     1      0.029490      0.660456      0.152942
    17     1      0.970467      0.514700      0.320538
    18     1      0.223397      0.765014      0.320349
    19     1      0.209368      0.942903      0.484192
    20     1      0.960865      0.691872      0.484683
    21     1      0.906025      0.541727      0.652143
    22     1      0.157348      0.792704      0.652173
    23     1      0.324199      0.899528      0.820965
    24     1      0.073515      0.649164      0.821535
    25     1      0.547042      0.989996      0.986747
    26     1      0.796037      0.240078      0.986291
    27     1      0.774447      0.410816      0.152448
    28     1      0.527532      0.160999      0.152344
    29     1      0.470588      0.015402      0.320096
    30     1      0.720981      0.264829      0.320056
    31     1      0.709951      0.441802      0.484170
    32     1      0.458248      0.192098      0.484207
    33     1      0.404792      0.042628      0.651798
    34     1      0.654963      0.292373      0.652141
    35     1      0.821803      0.400379      0.821723
    36     1      0.570553      0.150407      0.821344
    37     1      0.544277      0.490408      0.987512
    38     1      0.794693      0.740083      0.988186
    39     1      0.778381      0.911530      0.151859
    40     1      0.527730      0.660932      0.151923
    41     1      0.469265      0.514993      0.319684
    42     1      0.721594      0.764766      0.319884
    43     1      0.710149      0.940275      0.485125
    44     1      0.460551      0.692042      0.485463
    45     1      0.405427      0.542060      0.653266
    46     1      0.656314      0.792293      0.653300
    47     1      0.824586      0.900187      0.822743
    48     1      0.573673      0.650267      0.822845
ITEM: TIMESTEP
64250
ITEM: NUMBER OF ATOMS
48
ITEM: BOX BOUNDS xy xz yz  pp  pp  pp
     -0.003081      2.203080      0.000000
     -0.005336      3.815850      0.000000
     -0.007546      5.396420      0.000000
ITEM: ATOMS id type xs ys zs
     1     1      0.048239      0.990276      0.987129
     2     1      0.297467      0.240190      0.986718
     3     1      0.274789      0.411321      0.152170
     4     1      0.028570      0.160953      0.150813
     5     1      0.971646      0.015464      0.319596
     6     1      0.221543      0.264873      0.319414
     7     1      0.210769      0.440692      0.485274
     8     1      0.959720      0.192299      0.485175
     9     1      0.906280      0.041863      0.652411
    10     1      0.155845      0.291523      0.652928
    11     1      0.320594      0.400186      0.822350
    12     1      0.071611      0.150146      0.821507
    13     1      0.043672      0.490684      0.987614
    14     1      0.294095      0.739342      0.986809
    15     1      0.278650      0.910718      0.151683
    16     1      0.027456      0.660864      0.152880
    17     1      0.970390      0.514773      0.320719
    18     1      0.223147      0.764852      0.320482
    19     1      0.209631      0.941405      0.484411
    20     1      0.959397      0.691751      0.484671
    21     1      0.907709      0.540832      0.651999
    22     1      0.158752      0.792267      0.652095
    23     1      0.322986      0.899595      0.821736
    24     1      0.072101      0.649920      0.821348
    25     1      0.546760      0.989542      0.986969
    26     1      0.795522      0.240669      0.986100
    27     1      0.774768      0.410926      0.152518
    28     1      0.528802      0.161626      0.152401
    29     1      0.471679      0.014460      0.320189
    30     1      0.722087      0.265407      0.319903
    31     1      0.708344      0.441172      0.484884
    32     1      0.460326      0.191236      0.483906
    33     1      0.405620      0.041856      0.651694
    34     1      0.655744      0.291771      0.652146
    35     1      0.821017      0.400251      0.821404
    36     1      0.573160      0.149857      0.821009
    37     1      0.543625      0.489928      0.987020
    38     1      0.796078      0.739817      0.987856
    39     1      0.778994      0.911692      0.151759
    40     1      0.527569      0.661321      0.152855
    41     1      0.470927      0.514927      0.320119
    42     1      0.722602      0.765031      0.319705
    43     1      0.709691      0.939923      0.484968
    44     1      0.460232      0.691307      0.485299
    45     1      0.405666      0.541180      0.653334
    46     1      0.658826      0.791203      0.653450
    47     1      0.824117      0.900359      0.823174
    48     1      0.572683      0.650133      0.822310
ITEM: TIMESTEP
64300
ITEM: NUMBER OF ATOMS
48
ITEM: BOX BOUNDS xy xz yz  pp  pp  pp
     -0.003081      2.203080      0.000000
     -0.005336      3.815850      0.000000
     -0.007546      5.396420      0.000000
ITEM: ATOMS id type xs ys zs
     1     1      0.047814      0.990443      0.986909
     2     1      0.296859      0.240560      0.986986
     3     1      0.274896      0.411691      0.152207
     4     1      0.028619      0.161315      0.151219
     5     1      0.971622      0.014590      0.319399
     6     1      0.220526      0.265103      0.319591
     7     1      0.209638      0.440548      0.485138
     8     1      0.958718      0.191034      0.485630
     9     1      0.905441      0.042058      0.653165
    10     1      0.156500      0.289830      0.653344
    11     1      0.319916      0.400400      0.822369
    12     1      0.071773      0.150465      0.822034
    13     1      0.044462      0.490929      0.987298
    14     1      0.294433      0.740456      0.986995
    15     1      0.278218      0.911003      0.151488
    16     1      0.027780      0.661526      0.153324
    17     1      0.970066      0.514511      0.320533
    18     1      0.222394      0.764685      0.319795
    19     1      0.210006      0.940750      0.484021
    20     1      0.959143      0.691204      0.484992
    21     1      0.907822      0.540867      0.652621
    22     1      0.159003      0.790924      0.652306
    23     1      0.321437      0.900126      0.821691
    24     1      0.072278      0.650792      0.822325
    25     1      0.547761      0.990318      0.987082
    26     1      0.796023      0.240783      0.986340
    27     1      0.773963      0.411854      0.152615
    28     1      0.528596      0.162595      0.152094
    29     1      0.471524      0.015908      0.319791
    30     1      0.721874      0.265027      0.320146
    31     1      0.709188      0.440994      0.484917
    32     1      0.460084      0.191194      0.484286
    33     1      0.406531      0.040529      0.651657
    34     1      0.655977      0.291715      0.652166
    35     1      0.821582      0.400267      0.821724
    36     1      0.571745      0.150057      0.821444
    37     1      0.543014      0.490279      0.987162
    38     1      0.794852      0.739597      0.987425
    39     1      0.778487      0.911849      0.151526
    40     1      0.526351      0.661664      0.152291
    41     1      0.470299      0.515071      0.320243
    42     1      0.722172      0.765441      0.319842
    43     1      0.710009      0.940281      0.485295
    44     1      0.459913      0.690219      0.485747
    45     1      0.405923      0.541112      0.653649
    46     1      0.659286      0.791263      0.653229
    47     1      0.822318      0.900362      0.822597
    48     1      0.572831      0.650613      0.822572
ITEM: TIMESTEP
64350
ITEM: NUMBER OF ATOMS
48
ITEM: BOX BOUNDS xy xz yz  pp  pp  pp
     -0.003081      2.203080      0.000000
     -0.005336      3.815850      0.000000
     -0.007546      5.396420      0.000000
ITEM: ATOMS id type xs ys zs
     1     1      0.047046      0.990939      0.987069
     2     1      0.297378      0.240486      0.986717
     3     1      0.276604      0.411594      0.152255
     4     1      0.028114      0.162516      0.151460
     5     1      0.972783      0.014783      0.319030
     6     1      0.220165      0.265756      0.320320
     7     1      0.210058      0.440156      0.485245
     8     1      0.958621      0.190062      0.484931
     9     1      0.904612      0.041417      0.652628
    10     1      0.156435      0.289910      0.653447
    11     1      0.320324      0.400032      0.822400
    12     1      0.071779      0.150568      0.822563
    13     1      0.044103      0.490286      0.987674
    14     1      0.293717      0.740396      0.987101
    15     1      0.279812      0.912104      0.151627
    16     1      0.026227      0.661446      0.152931
    17     1      0.970849      0.515226      0.320517
    18     1      0.222109      0.764771      0.319518
    19     1      0.209712      0.940540      0.484787
    20     1      0.959267      0.690932      0.485373
    21     1      0.907076      0.540273      0.652743
    22     1      0.158811      0.789973      0.652060
    23     1      0.321238      0.900115      0.821529
    24     1      0.072156      0.650736      0.822087
    25     1      0.548044      0.990406      0.987291
    26     1      0.797095      0.240794      0.986220
    27     1      0.775718      0.411926      0.152906
    28     1      0.527872      0.162201      0.151896
    29     1      0.470572      0.015400      0.319519
    30     1      0.721043      0.264552      0.320536
    31     1      0.709004      0.440131      0.484487
    32     1      0.457531      0.190334      0.484004
    33     1      0.406394      0.040109      0.651856
    34     1      0.656596      0.291399      0.651829
    35     1      0.820183      0.400635      0.821775
    36     1      0.571237      0.150833      0.821488
    37     1      0.544169      0.490527      0.987261
    38     1      0.794658      0.739837      0.988037
    39     1      0.778685      0.912223      0.151603
    40     1      0.527287      0.661924      0.152382
    41     1      0.472007      0.515005      0.319973
    42     1      0.720679      0.765697      0.320135
    43     1      0.709132      0.940754      0.484337
    44     1      0.458705      0.690043      0.485718
    45     1      0.406076      0.540405      0.652921
    46     1      0.658228      0.790646      0.653238
    47     1      0.821460      0.901098      0.822972
    48     1      0.572577      0.650601      0.822313
ITEM: TIMESTEP
64400
ITEM: NUMBER OF ATOMS
48
ITEM: BOX BOUNDS xy xz yz  pp  pp  pp
     -0.003081      2.203080      0.000000
     -0.005336      3.815850      0.000000
     -0.007546      5.396420      0.000000
ITEM: ATOMS id type xs ys zs
     1     1      0.047133      0.991149      0.987039
     2     1      0.297590      0.240209      0.986428
     3     1      0.276515      0.412811      0.152091
     4     1      0.028596      0.161594      0.151617
     5     1      0.972156      0.015068      0.319443
     6     1      0.219660      0.265205      0.320301
     7     1      0.209832      0.439668      0.485221
     8     1      0.958208      0.189751      0.485285
     9     1      0.904234      0.040270      0.652602
    10     1      0.157023      0.289841      0.653434
    11     1      0.318366      0.400285      0.822659
    12     1      0.069812      0.150458      0.822231
    13     1      0.044462      0.489864      0.986843
    14     1      0.294208      0.740530      0.987014
    15     1      0.279254      0.911075      0.151719
    16     1      0.026606      0.661830      0.152664
    17     1      0.972302      0.515452      0.320648
    18     1      0.220691      0.764744      0.319607
    19     1      0.209532      0.939613      0.484521
    20     1      0.959311      0.690612      0.484902
    21     1      0.908131      0.539976      0.652162
    22     1      0.157228      0.789998      0.652185
    23     1      0.320041      0.900536      0.821856
    24     1      0.070625      0.650823      0.822106
    25     1      0.546978      0.990710      0.987003
    26     1      0.796199      0.241591      0.986746
    27     1      0.777464      0.412331      0.152837
    28     1      0.528692      0.162383      0.152154
    29     1      0.470635      0.014834      0.319033
    30     1      0.720199      0.264763      0.320103
    31     1      0.708901      0.439905      0.484488
    32     1      0.458037      0.189723      0.484368
    33     1      0.405964      0.039756      0.651915
    34     1      0.657082      0.290505      0.651865
    35     1      0.819143      0.401160      0.821308
    36     1      0.570582      0.150072      0.821486
    37     1      0.542878      0.490837      0.987031
    38     1      0.794702      0.740095      0.988040
    39     1      0.779560      0.912549      0.152075
    40     1      0.528402      0.662393      0.152797
    41     1      0.471650      0.514698      0.320774
    42     1      0.719722      0.765749      0.320741
    43     1      0.709669      0.939744      0.484448
    44     1      0.458458      0.690490      0.485199
    45     1      0.407071      0.540270      0.652363
    46     1      0.658238      0.790003      0.652914
    47     1      0.821422      0.901120      0.822945
    48     1      0.571155      0.650256      0.822499
ITEM: TIMESTEP
64450
ITEM: NUMBER OF ATOMS
48
ITEM: BOX BOUNDS xy xz yz  pp  pp  pp
     -0.003081      2.203080      0.000000
     -0.005336      3.815850      0.000000
     -0.007546      5.396420      0.000000
ITEM: ATOMS id type xs ys zs
     1     1      0.046960      0.991349      0.986962
     2     1      0.296797      0.240570      0.985867
     3     1      0.277261      0.412967      0.151723
     4     1      0.028210      0.161676      0.151734
     5     1      0.971715      0.015416      0.319603
     6     1      0.220282      0.265332      0.319972
     7     1      0.209128      0.438827      0.485348
     8     1      0.956843      0.189784      0.485187
     9     1      0.906293      0.040080      0.652444
    10     1      0.157433      0.290052      0.653407
    11     1      0.318376      0.400721      0.822487
    12     1      0.069267      0.150871      0.821526
    13     1      0.045182      0.490974      0.987190
    14     1      0.294133      0.741193      0.987452
    15     1      0.279264      0.910964      0.151737
    16     1      0.027769      0.662415      0.152378
    17     1      0.970717      0.515527      0.320492
    18     1      0.221255      0.765386      0.320270
    19     1      0.209767      0.939818      0.484217
    20     1      0.959260      0.689965      0.484329
    21     1      0.907995      0.539547      0.651419
    22     1      0.156612      0.789322      0.651748
    23     1      0.319991      0.901145      0.821936
    24     1      0.070261      0.650578      0.821714
    25     1      0.548200      0.990466      0.987065
    26     1      0.796277      0.241344      0.986680
    27     1      0.777447      0.412288      0.152201
    28     1      0.528809      0.162346      0.151554
    29     1      0.471602      0.015539      0.319012
    30     1      0.720376      0.264527      0.320239
    31     1      0.709859      0.439192      0.484587
    32     1      0.456633      0.189678      0.484585
    33     1      0.407201      0.039374      0.652008
    34     1      0.658535      0.289156      0.651917
    35     1      0.818636      0.401360      0.822040
    36     1      0.570503      0.150338      0.821787
    37     1      0.542975      0.491269      0.987247
    38     1      0.795688      0.740630      0.987675
    39     1      0.779688      0.912229      0.151729
    40     1      0.528003      0.662194      0.153172
    41     1      0.471212      0.514889      0.320031
    42     1      0.720476      0.765773      0.320485
    43     1      0.709107      0.940294      0.484652
    44     1      0.458665      0.689749      0.485278
    45     1      0.408994      0.540138      0.652329
    46     1      0.659052      0.789581      0.653068
    47     1      0.820842      0.901312      0.822465
    48     1      0.569754      0.650303      0.822693
ITEM: TIMESTEP
64500
ITEM: NUMBER OF ATOMS
48
ITEM: BOX BOUNDS xy xz yz  pp  pp  pp
     -0.003081      2.203080      0.000000
     -0.005336      3.815850      0.000000
     -0.007546      5.396420      0.000000
ITEM: ATOMS id type xs ys zs
     1     1      0.048216      0.991217      0.986938
     2     1      0.296341      0.240566      0.986146
     3     1      0.277824      0.412445      0.152006
     4     1      0.028336      0.162141      0.151633
     5     1      0.972966      0.015444      0.319510
     6     1      0.221046      0.265229      0.319700
     7     1      0.209694      0.438999      0.484806
     8     1      0.957604      0.190224      0.485223
     9     1      0.906679      0.038635      0.652945
    10     1      0.158120      0.289227      0.652552
    11     1      0.316887      0.401610      0.822359
    12     1      0.067457      0.151491      0.821411
    13     1      0.045211      0.491305      0.987727
    14     1      0.294742      0.741703      0.987717
    15     1      0.278798      0.911959      0.151825
    16     1      0.027032      0.662453      0.153109
    17     1      0.971342      0.514755      0.320699