ITEM: TIMESTEP
64001
ITEM: NUMBER OF ATOMS
48
ITEM: BOX BOUNDS xy xz yz  pp  pp  pp
     -0.003081      2.203080      0.000000
     -0.005336      3.815850      0.000000
     -0.007546      5.396420      0.000000
ITEM: ATOMS id type xs ys zs
     1     1      0.049281      0.988173      0.986893
     2     1      0.293175      0.237271      0.986211
     3     1      0.272436      0.408565      0.151575
     4     1      0.022168      0.159268      0.150353
     5     1      0.967212      0.015417      0.319035
     6     1      0.220244      0.262763      0.318834
     7     1      0.212171      0.443148      0.485005
     8     1      0.959203      0.195680      0.485144
     9     1      0.907717      0.044712      0.651800
    10     1      0.153815      0.294617      0.653502
    11     1      0.322822      0.400882      0.822704
    12     1      0.073779      0.149438      0.821816
    13     1      0.038998      0.487207      0.986961
    14     1      0.292259      0.736022      0.986846
    15     1      0.277721      0.908778      0.151384
    16     1      0.026158      0.657899      0.152653
    17     1      0.971857      0.513477      0.320626
    18     1      0.219112      0.764414      0.319822
    19     1      0.208509      0.943930      0.484283
    20     1      0.963862      0.693012      0.485579
    21     1      0.904663      0.544350      0.652569
    22     1      0.157762      0.794889      0.653245
    23     1      0.329345      0.899242      0.821678
    24     1      0.073717      0.649224      0.821704
    25     1      0.549022      0.987111      0.986264
    26     1      0.791175      0.238109      0.985416
    27     1      0.772809      0.409981      0.153222
    28     1      0.523713      0.159635      0.151400
    29     1      0.467766      0.015852      0.319796
    30     1      0.720691      0.265104      0.320265
    31     1      0.709701      0.444832      0.484660
    32     1      0.458901      0.193477      0.484220
    33     1      0.408969      0.042700      0.650867
    34     1      0.651826      0.294685      0.651265
    35     1      0.823609      0.399400      0.820528
    36     1      0.572359      0.150281      0.820154
    37     1      0.541915      0.488481      0.987970
    38     1      0.794190      0.737812      0.988855
    39     1      0.776655      0.908902      0.152428
    40     1      0.525824      0.659921      0.152856
    41     1      0.469432      0.513724      0.319512
    42     1      0.720759      0.763974      0.320628
    43     1      0.712045      0.943366      0.483908
    44     1      0.462285      0.694586      0.485116
    45     1      0.404486      0.544489      0.653231
    46     1      0.658363      0.793968      0.653139
    47     1      0.828928      0.898776      0.822471
    48     1      0.575776      0.649295      0.822898
ITEM: TIMESTEP
64050
ITEM: NUMBER OF ATOMS
48
ITEM: BOX BOUNDS xy xz yz  pp  pp  pp
     -0.003081      2.203080      0.000000
     -0.005336      3.815850      0.000000
     -0.007546      5.396420      0.000000
ITEM: ATOMS id type xs ys zs
     1     1      0.047881      0.988953      0.987429
     2     1      0.294075      0.237896      0.986274
     3     1      0.273804      0.408506      0.151506
     4     1      0.023847      0.159183      0.150796
     5     1      0.969606      0.014618      0.319280
     6     1      0.220546      0.262648      0.318858
     7     1      0.210810      0.442658      0.485712
     8     1      0.959255      0.195367      0.485088
     9     1      0.907239      0.044259      0.651988
    10     1      0.154011      0.293583      0.653698
    11     1      0.321445      0.400920      0.822379
    12     1      0.074436      0.148963      0.821623
    13     1      0.040536      0.487775      0.987097
    14     1      0.292108      0.736574      0.986997
    15     1      0.277495      0.908968      0.151877
    16     1      0.027739      0.658398      0.152393
    17     1      0.971839      0.513684      0.321093
    18     1      0.219494      0.764607      0.320083
    19     1      0.208874      0.943277      0.484688
    20     1      0.963556      0.692688      0.485704
    21     1      0.903801      0.543770      0.652563
    22     1      0.157025      0.793790      0.653087
    23     1      0.328081      0.899613      0.822057
    24     1      0.072978      0.649692      0.821846
    25     1      0.547392      0.988203      0.986882
    26     1      0.792644      0.239096      0.985888
    27     1      0.773698      0.409704      0.152865
    28     1      0.524671      0.159183      0.152054
    29     1      0.467703      0.015220      0.320182
    30     1      0.719294      0.265557      0.320501
    31     1      0.708736      0.443693      0.485074
    32     1      0.458290      0.192795      0.484399
    33     1      0.407636      0.041852      0.651363
    34     1      0.653396      0.293963      0.651513
    35     1      0.822544      0.399076      0.821009
    36     1      0.573082      0.150716      0.820406
    37     1      0.543044      0.488167      0.987627
    38     1      0.793889      0.737997      0.988240
    39     1      0.776601      0.908788      0.152552
    40     1      0.527854      0.659709      0.152521
    41     1      0.468867      0.514032      0.319972
    42     1      0.720763      0.763953      0.320597
    43     1      0.710982      0.943052      0.484308
    44     1      0.461541      0.694370      0.485364
    45     1      0.404881      0.544495      0.653024
    46     1      0.659317      0.793950      0.653057
    47     1      0.828093      0.898606      0.822151
    48     1      0.574623      0.648897      0.823265
ITEM: TIMESTEP
64100
ITEM: NUMBER OF ATOMS
48
ITEM: BOX BOUNDS xy xz yz  pp  pp  pp
     -0.003081      2.203080      0.000000
     -0.005336      3.815850      0.000000
     -0.007546      5.396420      0.000000
ITEM: ATOMS id type xs ys zs
     1     1      0.048004      0.989035      0.987005
     2     1      0.295100      0.238516      0.986410
     3     1      0.275451      0.409197      0.151620
     4     1      0.024752      0.159724      0.151256
     5     1      0.969723      0.014918      0.319626
     6     1      0.220421      0.264222      0.319210
     7     1      0.210888      0.441995      0.485794
     8     1      0.959138      0.194502      0.485761
     9     1      0.906090      0.043331      0.652294
    10     1      0.153798      0.293619      0.653443
    11     1      0.321040      0.401013      0.822124
    12     1      0.073732      0.148848      0.821973
    13     1      0.041398      0.487232      0.987058
    14     1      0.292977      0.737726      0.987848
    15     1      0.277252      0.909506      0.151591
    16     1      0.026471      0.658809      0.152512
    17     1      0.971142      0.513795      0.320051
    18     1      0.222195      0.764481      0.319964
    19     1      0.207185      0.943551      0.484891
    20     1      0.962477      0.692594      0.485636
    21     1      0.904075      0.543387      0.652949
    22     1      0.157174      0.793037      0.653445
    23     1      0.327096      0.899446      0.822268
    24     1      0.073336      0.649230      0.821984
    25     1      0.547968      0.988631      0.986650
    26     1      0.794204      0.238769      0.985944
    27     1      0.775425      0.409921      0.152023
    28     1      0.525772      0.159453      0.151942
    29     1      0.469410      0.015207      0.319957
    30     1      0.720036      0.265006      0.319781
    31     1      0.708854      0.443412      0.484913
    32     1      0.458566      0.191935      0.484381
    33     1      0.405811      0.041761      0.651701
    34     1      0.653684      0.293021      0.651691
    35     1      0.821865      0.399751      0.821211
    36     1      0.572827      0.150394      0.820322
    37     1      0.541753      0.487949      0.987414
    38     1      0.796089      0.738412      0.988343
    39     1      0.776707      0.909104      0.152021
    40     1      0.527223      0.659595      0.152503
    41     1      0.470009      0.514467      0.320379
    42     1      0.720492      0.764558      0.320354
    43     1      0.710366      0.942470      0.484935
    44     1      0.461187      0.692939      0.485368
    45     1      0.405938      0.543549      0.653395
    46     1      0.657419      0.794323      0.652921
    47     1      0.826951      0.899035      0.822331
    48     1      0.574027      0.650439      0.822955
ITEM: TIMESTEP
64150
ITEM: NUMBER OF ATOMS
48
ITEM: BOX BOUNDS xy xz yz  pp  pp  pp
     -0.003081      2.203080      0.000000
     -0.005336      3.815850      0.000000
     -0.007546      5.396420      0.000000
ITEM: ATOMS id type xs ys zs
     1     1      0.047580      0.989550      0.986815
     2     1      0.294879      0.239159      0.986486
     3     1      0.277088      0.410409      0.152043
     4     1      0.025439      0.160166      0.151611
     5     1      0.970001      0.014805      0.319844
     6     1      0.220028      0.263994      0.319248
     7     1      0.210818      0.442952      0.485526
     8     1      0.958052      0.192105      0.485289
     9     1      0.905534      0.042395      0.652913
    10     1      0.152469      0.293149      0.653179
    11     1      0.322010      0.401200      0.822511
    12     1      0.074067      0.149669      0.821589
    13     1      0.042543      0.487761      0.987114
    14     1      0.293823      0.738316      0.987750
    15     1      0.276331      0.910095      0.151689
    16     1      0.028393      0.659570      0.152642
    17     1      0.972226      0.514151      0.320071
    18     1      0.224311      0.765139      0.320587
    19     1      0.208391      0.942524      0.484714
    20     1      0.961350      0.692250      0.485101
    21     1      0.903138      0.542997      0.652491
    22     1      0.157853      0.793424      0.652787
    23     1      0.327459      0.899352      0.821842
    24     1      0.072576      0.649442      0.822111
    25     1      0.546425      0.989596      0.986958
    26     1      0.793905      0.239025      0.986317
    27     1      0.776191      0.410327      0.151690
    28     1      0.526081      0.160099      0.152109
    29     1      0.471077      0.015005      0.319512
    30     1      0.720338      0.265293      0.320480
    31     1      0.708269      0.442677      0.484546
    32     1      0.458066      0.192176      0.484704
    33     1      0.406500      0.042596      0.652182
    34     1      0.653086      0.292563      0.652305
    35     1      0.821655      0.399633      0.821417
    36     1      0.573353      0.150771      0.820964
    37     1      0.543449      0.488650      0.987194
    38     1      0.795203      0.739105      0.987986
    39     1      0.776315      0.910418      0.152010
    40     1      0.527985      0.659907      0.152388
    41     1      0.470270      0.514674      0.320298
    42     1      0.722040      0.764389      0.320299
    43     1      0.708769      0.942773      0.484670
    44     1      0.460935      0.692281      0.485195
    45     1      0.404337      0.542554      0.653371
    46     1      0.658874      0.793358      0.652580
    47     1      0.825591      0.899494      0.822681
    48     1      0.574384      0.650332      0.822352
ITEM: TIMESTEP
64200
ITEM: NUMBER OF ATOMS
48
ITEM: BOX BOUNDS xy xz yz  pp  pp  pp
     -0.003081      2.203080      0.000000
     -0.005336      3.815850      0.000000
     -0.007546      5.396420      0.000000
ITEM: ATOMS id type xs ys zs
     1     1      0.047588      0.989546      0.987000
     2     1      0.293445      0.239754      0.986432
     3     1      0.278552      0.410421      0.152141
     4     1      0.025822      0.160796      0.151838
     5     1      0.969219      0.014678      0.320085
     6     1      0.220727      0.264314      0.319203
     7     1      0.210577      0.442339      0.485435
     8     1      0.959143      0.192898      0.485209
     9     1      0.905386      0.042181      0.652348
    10     1      0.154341      0.292965      0.652990
    11     1      0.319912      0.400756      0.822387
    12     1      0.075318      0.149197      0.821924
    13     1      0.043615      0.488567      0.987314
    14     1      0.294797      0.738886      0.987783
    15     1      0.276240      0.911821      0.152204
    16     1      0.029645      0.660017      0.152471
    17     1      0.971223      0.514195      0.320517
    18     1      0.223798      0.765012      0.320499
    19     1      0.208426      0.941854      0.484650
    20     1      0.960535      0.691638      0.485222
    21     1      0.903917      0.543087      0.652412
    22     1      0.158337      0.792298      0.653038
    23     1      0.325301      0.899157      0.821894
    24     1      0.072144      0.649482      0.822483
    25     1      0.547282      0.990260      0.987543
    26     1      0.793997      0.239233      0.986213
    27     1      0.776841      0.410041      0.151864
    28     1      0.526471      0.160679      0.152148
    29     1      0.469508      0.014537      0.319886
    30     1      0.720084      0.265231      0.320827
    31     1      0.709639      0.442060      0.484715
    32     1      0.458845      0.191804      0.484431
    33     1      0.406463      0.042283      0.652279
    34     1      0.654099      0.292060      0.652236
    35     1      0.821511      0.400347      0.821520
    36     1      0.572530      0.150647      0.821264
    37     1      0.544372      0.489630      0.987218
    38     1      0.795212      0.739822      0.987549
    39     1      0.776891      0.910303      0.152161
    40     1      0.528580      0.659946      0.152463
    41     1      0.469927      0.515055      0.320517
    42     1      0.721647      0.764353      0.319892
    43     1      0.708134      0.941301      0.484925
    44     1      0.459974      0.691273      0.485635
    45     1      0.404080      0.541905      0.653302
    46     1      0.657175      0.792420      0.652891
    47     1      0.824637      0.900234      0.822074
    48     1      0.573189      0.649789      0.822241
ITEM: TIMESTEP
64250
ITEM: NUMBER OF ATOMS
48
ITEM: BOX BOUNDS xy xz yz  pp  pp  pp
     -0.003081      2.203080      0.000000
     -0.005336      3.815850      0.000000
     -0.007546      5.396420      0.000000
ITEM: ATOMS id type xs ys zs
     1     1      0.047892      0.990501      0.986744
     2     1      0.293833      0.239517      0.986814
     3     1      0.277969      0.411101      0.151866
     4     1      0.026088      0.160901      0.151542
     5     1      0.969908      0.014402      0.319933
     6     1      0.220474      0.264602      0.319474
     7     1      0.208977      0.441875      0.486007
     8     1      0.959299      0.192304      0.485026
     9     1      0.905625      0.041457      0.652630
    10     1      0.153440      0.292513      0.653272
    11     1      0.321039      0.399830      0.822288
    12     1      0.072994      0.149326      0.822166
    13     1      0.043753      0.488660      0.987161
    14     1      0.296000      0.739565      0.987479
    15     1      0.276528      0.911530      0.151925
    16     1      0.029302      0.660299      0.152784
    17     1      0.970863      0.514158      0.320396
    18     1      0.221523      0.764834      0.320616
    19     1      0.208414      0.941552      0.485271
    20     1      0.960203      0.692007      0.485244
    21     1      0.904881      0.542761      0.652759
    22     1      0.157874      0.791834      0.653179
    23     1      0.324291      0.899598      0.822135
    24     1      0.071144      0.650630      0.822365
    25     1      0.547233      0.990643      0.987839
    26     1      0.794976      0.239505      0.986269
    27     1      0.776919      0.410102      0.151767
    28     1      0.526505      0.160653      0.151850
    29     1      0.470651      0.014671      0.319757
    30     1      0.719920      0.264886      0.320214
    31     1      0.709428      0.441626      0.485395
    32     1      0.458446      0.192087      0.484827
    33     1      0.405495      0.042000      0.652120
    34     1      0.655468      0.291360      0.652512
    35     1      0.819925      0.400393      0.821310
    36     1      0.571632      0.150414      0.821354
    37     1      0.546208      0.490597      0.986856
    38     1      0.795556      0.740816      0.987669
    39     1      0.777666      0.909811      0.152051
    40     1      0.528908      0.660284      0.152684
    41     1      0.469233      0.515068      0.320670
    42     1      0.719794      0.764026      0.319845
    43     1      0.709233      0.941896      0.485018
    44     1      0.459268      0.691035      0.485545
    45     1      0.405884      0.541086      0.653907
    46     1      0.657627      0.791531      0.652627
    47     1      0.823588      0.900850      0.822486
    48     1      0.573193      0.650793      0.822075
ITEM: TIMESTEP
64300
ITEM: NUMBER OF ATOMS
48
ITEM: BOX BOUNDS xy xz yz  pp  pp  pp
     -0.003081      2.203080      0.000000
     -0.005336      3.815850      0.000000
     -0.007546      5.396420      0.000000
ITEM: ATOMS id type xs ys zs
     1     1      0.046871      0.989816      0.986886
     2     1      0.294330      0.240074      0.986914
     3     1      0.277003      0.411154      0.152076
     4     1      0.026276      0.161411      0.151401
     5     1      0.970610      0.014803      0.319313
     6     1      0.219792      0.264867      0.320049
     7     1      0.207247      0.441649      0.486111
     8     1      0.958009      0.191107      0.485209
     9     1      0.905617      0.040971      0.652450
    10     1      0.153888      0.292363      0.653322
    11     1      0.319401      0.400591      0.822963
    12     1      0.072199      0.149995      0.821625
    13     1      0.043942      0.489788      0.987340
    14     1      0.296117      0.739870      0.987317
    15     1      0.277884      0.910782      0.151878
    16     1      0.029703      0.660484      0.152469
    17     1      0.969915      0.513986      0.320342
    18     1      0.221450      0.764679      0.320479
    19     1      0.208304      0.941321      0.485510
    20     1      0.958858      0.692506      0.485308
    21     1      0.905913      0.542710      0.652604
    22     1      0.157511      0.791230      0.653267
    23     1      0.324288      0.900717      0.822193
    24     1      0.071697      0.650948      0.822545
    25     1      0.546255      0.990338      0.987595
    26     1      0.794324      0.239713      0.986933
    27     1      0.776846      0.410958      0.151634
    28     1      0.527431      0.161065      0.151974
    29     1      0.471061      0.013971      0.319480
    30     1      0.721160      0.265283      0.319855
    31     1      0.708745      0.442168      0.485233
    32     1      0.456291      0.191381      0.484893
    33     1      0.405804      0.041329      0.652268
    34     1      0.655555      0.291157      0.652176
    35     1      0.819734      0.399776      0.821921
    36     1      0.571589      0.150553      0.821687
    37     1      0.545359      0.490086      0.986689
    38     1      0.796549      0.739745      0.987804
    39     1      0.778142      0.910331      0.152137
    40     1      0.528535      0.660862      0.152206
    41     1      0.469173      0.514946      0.320192
    42     1      0.721177      0.764124      0.320403
    43     1      0.708663      0.942370      0.484811
    44     1      0.459199      0.690366      0.485384
    45     1      0.406665      0.541574      0.654037
    46     1      0.657828      0.791303      0.652445
    47     1      0.823107      0.901068      0.822357
    48     1      0.573469      0.650910      0.822324
ITEM: TIMESTEP
64350
ITEM: NUMBER OF ATOMS
48
ITEM: BOX BOUNDS xy xz yz  pp  pp  pp
     -0.003081      2.203080      0.000000
     -0.005336      3.815850      0.000000
     -0.007546      5.396420      0.000000
ITEM: ATOMS id type xs ys zs
     1     1      0.047086      0.990045      0.987143
     2     1      0.295750      0.240221      0.986904
     3     1      0.278724      0.411381      0.152327
     4     1      0.027702      0.161418      0.151490
     5     1      0.971875      0.014793      0.319543
     6     1      0.220367      0.265151      0.320087
     7     1      0.205666      0.441503      0.486569
     8     1      0.956554      0.191846      0.485079
     9     1      0.906427      0.041193      0.652349
    10     1      0.156018      0.291524      0.652887
    11     1      0.320236      0.399700      0.822842
    12     1      0.071683      0.150408      0.821755
    13     1      0.045286      0.490203      0.987427
    14     1      0.296956      0.739963      0.987184
    15     1      0.278018      0.911360      0.151627
    16     1      0.030242      0.660932      0.152105
    17     1      0.970626      0.513853      0.319915
    18     1      0.221340      0.765383      0.319935
    19     1      0.209195      0.940785      0.485075
    20     1      0.957280      0.691789      0.484690
    21     1      0.906656      0.541725      0.652617
    22     1      0.158057      0.790970      0.653324
    23     1      0.323253      0.899953      0.822538
    24     1      0.071341      0.650807      0.822391
    25     1      0.547601      0.990283      0.987204
    26     1      0.794898      0.239291      0.986993
    27     1      0.777383      0.412334      0.151257
    28     1      0.526021      0.161676      0.151429
    29     1      0.471884      0.014986      0.319659
    30     1      0.720694      0.265376      0.319538
    31     1      0.706790      0.441723      0.485197
    32     1      0.456170      0.191062      0.484759
    33     1      0.405905      0.040957      0.652736
    34     1      0.657354      0.290697      0.652914
    35     1      0.821910      0.400047      0.821973
    36     1      0.570684      0.150931      0.821911
    37     1      0.545602      0.490536      0.987298
    38     1      0.795947      0.740503      0.987829
    39     1      0.779325      0.910585      0.152393
    40     1      0.528584      0.660732      0.152387
    41     1      0.468561      0.515491      0.320847
    42     1      0.721880      0.764719      0.319784
    43     1      0.707149      0.942149      0.484708
    44     1      0.458766      0.690563      0.485284
    45     1      0.407033      0.540990      0.654300
    46     1      0.657062      0.791802      0.652220
    47     1      0.822753      0.900994      0.822219
    48     1      0.572925      0.650866      0.822491
ITEM: TIMESTEP
64400
ITEM: NUMBER OF ATOMS
48
ITEM: BOX BOUNDS xy xz yz  pp  pp  pp
     -0.003081      2.203080      0.000000
     -0.005336      3.815850      0.000000
     -0.007546      5.396420      0.000000
ITEM: ATOMS id type xs ys zs
     1     1      0.048116      0.990433      0.986903
     2     1      0.296701      0.240789      0.986918
     3     1      0.279176      0.411957      0.152534
     4     1      0.027571      0.161799      0.151418
     5     1      0.971092      0.015724      0.319718
     6     1      0.220696      0.264463      0.319705
     7     1      0.206147      0.442213      0.486261
     8     1      0.958426      0.191009      0.484911
     9     1      0.906414      0.040396      0.652398
    10     1      0.157899      0.291397      0.652641
    11     1      0.320698      0.401225      0.822526
    12     1      0.070290      0.151593      0.821872
    13     1      0.045574      0.490273      0.987600
    14     1      0.296244      0.741253      0.987307
    15     1      0.277853      0.911754      0.151401
    16     1      0.030441      0.660715      0.151900
    17     1      0.971001      0.514495      0.319705
    18     1      0.221495      0.765804      0.319863
    19     1      0.208356      0.940629      0.484857
    20     1      0.956874      0.691064      0.484942
    21     1      0.907330      0.541545      0.652653
    22     1      0.157258      0.790691      0.653652
    23     1      0.322979      0.900386      0.822090
    24     1      0.071648      0.651242      0.822594
    25     1      0.547809      0.989977      0.987324
    26     1      0.794784      0.239987      0.987198
    27     1      0.778014      0.412375      0.151607
    28     1      0.527377      0.161768      0.152057
    29     1      0.471567      0.014969      0.320401
    30     1      0.720506      0.265501      0.319539
    31     1      0.705905      0.442125      0.485724
    32     1      0.456597      0.191981      0.484682
    33     1      0.406191      0.040973      0.652386
    34     1      0.658903      0.290694      0.653060
    35     1      0.821562      0.400979      0.822362
    36     1      0.570120      0.151086      0.822172
    37     1      0.544493      0.491046      0.987166
    38     1      0.796277      0.740434      0.987574
    39     1      0.778309      0.911123      0.152058
    40     1      0.528415      0.661554      0.152231
    41     1      0.469296      0.515097      0.320628
    42     1      0.720482      0.765398      0.319727
    43     1      0.707782      0.941656      0.484669
    44     1      0.457543      0.691135      0.485512
    45     1      0.407945      0.540664      0.653584
    46     1      0.656442      0.790914      0.653009
    47     1      0.822329      0.901615      0.822372
    48     1      0.572982      0.650221      0.822394
ITEM: TIMESTEP
64450
ITEM: NUMBER OF ATOMS
48
ITEM: BOX BOUNDS xy xz yz  pp  pp  pp
     -0.003081      2.203080      0.000000
     -0.005336      3.815850      0.000000
     -0.007546      5.396420      0.000000
ITEM: ATOMS id type xs ys zs
     1     1      0.046742      0.990071      0.986224
     2     1      0.295761      0.240374      0.987046
     3     1      0.277903      0.411543      0.152160
     4     1      0.029645      0.161115      0.151910
     5     1      0.970693      0.015429      0.319762
     6     1      0.220570      0.264643      0.320352
     7     1      0.206141      0.441341      0.485481
     8     1      0.956385      0.191521      0.484617
     9     1      0.907649      0.039773      0.652204
    10     1      0.157625      0.290775      0.651954
    11     1      0.319950      0.401845      0.822220
    12     1      0.069220      0.151596      0.821542
    13     1      0.046107      0.490405      0.987022
    14     1      0.296625      0.741301      0.987670
    15     1      0.278561      0.912054      0.151700
    16     1      0.029334      0.661783      0.152135
    17     1      0.970950      0.515082      0.320141
    18     1      0.221342      0.765747      0.319879
    19     1      0.207568      0.940805      0.484684
    20     1      0.956657      0.691774      0.485552
    21     1      0.907611      0.541295      0.653161
    22     1      0.158250      0.790320      0.653205
    23     1      0.322000      0.901287      0.822016
    24     1      0.071302      0.650796      0.822622
    25     1      0.547633      0.990919      0.987201
    26     1      0.795776      0.240615      0.987240
    27     1      0.778978      0.412340      0.151238
    28     1      0.527313      0.161866      0.152097
    29     1      0.471236      0.014954      0.320021
    30     1      0.721848      0.267096      0.319221
    31     1      0.705695      0.441703      0.485781
    32     1      0.457489      0.190924      0.485286
    33     1      0.406736      0.040902      0.652768
    34     1      0.658616      0.290413      0.652790
    35     1      0.819975      0.401776      0.822706
    36     1      0.569334      0.151397      0.821970
    37     1      0.545474      0.490797      0.987141
    38     1      0.796199      0.740489      0.987220
    39     1      0.778801      0.911338      0.152108
    40     1      0.528653      0.661769      0.152142
    41     1      0.468518      0.515248      0.320864
    42     1      0.719962      0.765067      0.320093
    43     1      0.707016      0.941197      0.484340
    44     1      0.457231      0.690870      0.485209
    45     1      0.408018      0.539469      0.653386
    46     1      0.657705      0.790686      0.652114
    47     1      0.822573      0.901110      0.821612
    48     1      0.572490      0.651268      0.822216
ITEM: TIMESTEP
64500
ITEM: NUMBER OF ATOMS
48
ITEM: BOX BOUNDS xy xz yz  pp  pp  pp
     -0.003081      2.203080      0.000000
     -0.005336      3.815850      0.000000
     -0.007546      5.396420      0.000000
ITEM: ATOMS id type xs ys zs
     1     1      0.046181      0.990693      0.986324
     2     1      0.295321      0.240015      0.987472
     3     1      0.278552      0.411510      0.152315
     4     1      0.028031      0.161525      0.151820
     5     1      0.970439      0.014847      0.319540
     6     1      0.221485      0.265293      0.320083
     7     1      0.205099      0.440414      0.485779
     8     1      0.955563      0.191222      0.484917
     9     1      0.908056      0.039054      0.651546
    10     1      0.159751      0.289591      0.652140
    11     1      0.319423      0.401416      0.822103
    12     1      0.068688      0.151767      0.821072
    13     1      0.045999      0.490684      0.987281
    14     1      0.296984      0.740927      0.987434
    15     1      0.278973      0.911863      0.151699
    16     1      0.028973      0.662046      0.152250
    17     1      0.970176      0.515283      0.320077