ITEM: TIMESTEP
64001
ITEM: NUMBER OF ATOMS
48
ITEM: BOX BOUNDS xy xz yz  pp  pp  pp
     -0.003081      2.203080      0.000000
     -0.005336      3.815850      0.000000
     -0.007546      5.396420      0.000000
ITEM: ATOMS id type xs ys zs
     1     1      0.048912      0.988106      0.987052
     2     1      0.292920      0.237232      0.986228
     3     1      0.272470      0.408594      0.151623
     4     1      0.022380      0.159271      0.150344
     5     1      0.967018      0.015509      0.319121
     6     1      0.220432      0.262798      0.318734
     7     1      0.212103      0.443226      0.485152
     8     1      0.958874      0.195745      0.485095
     9     1      0.908166      0.044490      0.651763
    10     1      0.154000      0.294533      0.653512
    11     1      0.322628      0.400848      0.822870
    12     1      0.073574      0.149471      0.821799
    13     1      0.039048      0.487170      0.987075
    14     1      0.292519      0.735828      0.986812
    15     1      0.277977      0.908768      0.151352
    16     1      0.026522      0.657972      0.152805
    17     1      0.971852      0.513440      0.320595
    18     1      0.219384      0.764696      0.319824
    19     1      0.209005      0.943833      0.484308
    20     1      0.963695      0.693139      0.485699
    21     1      0.904702      0.544336      0.652524
    22     1      0.157581      0.794762      0.653380
    23     1      0.329428      0.899360      0.821745
    24     1      0.073737      0.649304      0.821808
    25     1      0.549010      0.987154      0.986206
    26     1      0.791239      0.238085      0.985497
    27     1      0.772878      0.409846      0.153101
    28     1      0.523868      0.159734      0.151537
    29     1      0.467792      0.015826      0.319773
    30     1      0.720772      0.265111      0.320223
    31     1      0.709768      0.444674      0.484608
    32     1      0.458979      0.193606      0.484141
    33     1      0.409219      0.042818      0.650905
    34     1      0.651921      0.294881      0.651204
    35     1      0.823766      0.399353      0.820456
    36     1      0.572480      0.150310      0.820125
    37     1      0.541984      0.488445      0.987925
    38     1      0.793991      0.737949      0.988981
    39     1      0.776558      0.909136      0.152419
    40     1      0.525534      0.659857      0.152980
    41     1      0.469931      0.513650      0.319503
    42     1      0.720743      0.764234      0.320528
    43     1      0.712151      0.943369      0.483863
    44     1      0.462340      0.694516      0.485208
    45     1      0.404341      0.544497      0.653229
    46     1      0.658589      0.793802      0.653093
    47     1      0.828853      0.898842      0.822315
    48     1      0.575667      0.649112      0.822864
ITEM: TIMESTEP
64050
ITEM: NUMBER OF ATOMS
48
ITEM: BOX BOUNDS xy xz yz  pp  pp  pp
     -0.003081      2.203080      0.000000
     -0.005336      3.815850      0.000000
     -0.007546      5.396420      0.000000
ITEM: ATOMS id type xs ys zs
     1     1      0.048559      0.988143      0.986570
     2     1      0.294280      0.237876      0.986334
     3     1      0.273810      0.408303      0.151842
     4     1      0.022521      0.159442      0.150527
     5     1      0.968026      0.015794      0.319530
     6     1      0.220100      0.264117      0.319003
     7     1      0.210491      0.443207      0.485516
     8     1      0.958576      0.194548      0.485395
     9     1      0.906218      0.044222      0.651917
    10     1      0.155028      0.293371      0.653113
    11     1      0.320822      0.400759      0.822802
    12     1      0.072587      0.150459      0.821350
    13     1      0.040448      0.487278      0.987477
    14     1      0.294785      0.736794      0.986748
    15     1      0.277588      0.909295      0.151346
    16     1      0.027676      0.659195      0.152438
    17     1      0.970871      0.514033      0.320404
    18     1      0.220661      0.765983      0.319431
    19     1      0.207834      0.944411      0.485087
    20     1      0.962572      0.693411      0.485729
    21     1      0.905541      0.542675      0.652447
    22     1      0.157843      0.793650      0.653270
    23     1      0.329748      0.899773      0.821461
    24     1      0.072934      0.649210      0.821608
    25     1      0.548773      0.988268      0.986446
    26     1      0.792239      0.238832      0.985963
    27     1      0.773909      0.410363      0.152843
    28     1      0.522673      0.159590      0.151622
    29     1      0.469211      0.015187      0.319852
    30     1      0.720740      0.264863      0.320194
    31     1      0.709810      0.443945      0.484440
    32     1      0.459012      0.194041      0.484330
    33     1      0.407485      0.042464      0.651444
    34     1      0.652445      0.294962      0.650993
    35     1      0.822797      0.399252      0.820613
    36     1      0.572474      0.150693      0.820498
    37     1      0.543063      0.488093      0.987681
    38     1      0.793718      0.738663      0.988602
    39     1      0.776990      0.909505      0.151978
    40     1      0.526291      0.659474      0.152489
    41     1      0.469450      0.513545      0.319478
    42     1      0.721143      0.764256      0.320240
    43     1      0.709559      0.943073      0.484682
    44     1      0.459709      0.693983      0.485496
    45     1      0.404062      0.544128      0.653558
    46     1      0.659189      0.793580      0.653021
    47     1      0.827154      0.899204      0.822254
    48     1      0.575914      0.649765      0.822881
ITEM: TIMESTEP
64100
ITEM: NUMBER OF ATOMS
48
ITEM: BOX BOUNDS xy xz yz  pp  pp  pp
     -0.003081      2.203080      0.000000
     -0.005336      3.815850      0.000000
     -0.007546      5.396420      0.000000
ITEM: ATOMS id type xs ys zs
     1     1      0.048392      0.988151      0.986206
     2     1      0.293476      0.238238      0.985570
     3     1      0.273819      0.409518      0.151761
     4     1      0.022580      0.160415      0.151080
     5     1      0.968996      0.015010      0.319907
     6     1      0.219818      0.264171      0.319372
     7     1      0.210392      0.442503      0.485637
     8     1      0.958603      0.193734      0.485431
     9     1      0.906274      0.043491      0.652055
    10     1      0.155398      0.293110      0.653208
    11     1      0.322801      0.400810      0.822423
    12     1      0.071823      0.149728      0.821488
    13     1      0.041346      0.487505      0.987161
    14     1      0.293917      0.737243      0.986715
    15     1      0.276855      0.910359      0.151347
    16     1      0.027130      0.659269      0.152434
    17     1      0.970382      0.514075      0.320416
    18     1      0.220588      0.765409      0.319530
    19     1      0.207276      0.943097      0.484398
    20     1      0.961864      0.692067      0.485724
    21     1      0.905905      0.542388      0.652572
    22     1      0.157459      0.793193      0.652903
    23     1      0.327651      0.900228      0.821833
    24     1      0.073230      0.649777      0.822052
    25     1      0.548640      0.988054      0.987131
    26     1      0.793161      0.238297      0.986545
    27     1      0.775320      0.410232      0.152862
    28     1      0.524605      0.160090      0.151327
    29     1      0.468762      0.015234      0.320332
    30     1      0.720995      0.264023      0.320082
    31     1      0.710970      0.444060      0.484074
    32     1      0.458846      0.193204      0.484543
    33     1      0.407680      0.042278      0.651475
    34     1      0.655807      0.294255      0.651087
    35     1      0.822426      0.400215      0.820877
    36     1      0.571664      0.151152      0.820683
    37     1      0.541644      0.487662      0.987660
    38     1      0.795450      0.738079      0.988509
    39     1      0.777108      0.910457      0.152356
    40     1      0.527526      0.659999      0.152532
    41     1      0.469591      0.513543      0.319710
    42     1      0.721801      0.763807      0.320207
    43     1      0.709110      0.942466      0.484998
    44     1      0.460313      0.693215      0.484893
    45     1      0.405322      0.544081      0.653140
    46     1      0.658138      0.793895      0.653418
    47     1      0.825390      0.899649      0.821607
    48     1      0.574282      0.649571      0.822832
ITEM: TIMESTEP
64150
ITEM: NUMBER OF ATOMS
48
ITEM: BOX BOUNDS xy xz yz  pp  pp  pp
     -0.003081      2.203080      0.000000
     -0.005336      3.815850      0.000000
     -0.007546      5.396420      0.000000
ITEM: ATOMS id type xs ys zs
     1     1      0.048183      0.987387      0.986552
     2     1      0.293945      0.238374      0.986239
     3     1      0.273744      0.410058      0.151983
     4     1      0.024849      0.160734      0.150754
     5     1      0.968678      0.014881      0.319796
     6     1      0.218841      0.264060      0.319487
     7     1      0.208836      0.442739      0.485404
     8     1      0.958207      0.192749      0.485062
     9     1      0.906020      0.043073      0.652400
    10     1      0.157153      0.292705      0.652909
    11     1      0.321964      0.400256      0.822228
    12     1      0.072405      0.149720      0.821497
    13     1      0.042192      0.487794      0.987002
    14     1      0.294731      0.737719      0.987975
    15     1      0.276525      0.911386      0.152322
    16     1      0.028229      0.659724      0.152667
    17     1      0.970815      0.514255      0.320064
    18     1      0.220726      0.763716      0.319289
    19     1      0.208641      0.942336      0.484612
    20     1      0.961305      0.693114      0.485296
    21     1      0.906949      0.542159      0.652335
    22     1      0.157180      0.792659      0.653126
    23     1      0.326549      0.900375      0.822226
    24     1      0.074102      0.649638      0.821673
    25     1      0.547138      0.989526      0.986807
    26     1      0.792319      0.239020      0.986242
    27     1      0.773949      0.409982      0.152499
    28     1      0.526171      0.160818      0.152092
    29     1      0.468146      0.014328      0.320504
    30     1      0.719634      0.264444      0.320160
    31     1      0.709637      0.443958      0.485233
    32     1      0.457941      0.192851      0.484583
    33     1      0.406343      0.041925      0.651746
    34     1      0.655385      0.292993      0.651115
    35     1      0.821321      0.399720      0.821592
    36     1      0.571942      0.150789      0.821312
    37     1      0.542384      0.488155      0.987216
    38     1      0.795524      0.738124      0.988375
    39     1      0.777100      0.910558      0.152056
    40     1      0.527823      0.660561      0.152136
    41     1      0.470503      0.513993      0.320020
    42     1      0.721380      0.763846      0.319926
    43     1      0.708657      0.941956      0.485203
    44     1      0.458962      0.691915      0.484908
    45     1      0.406176      0.543306      0.653227
    46     1      0.656568      0.793089      0.653090
    47     1      0.825315      0.899652      0.821893
    48     1      0.572928      0.650700      0.822544
ITEM: TIMESTEP
64200
ITEM: NUMBER OF ATOMS
48
ITEM: BOX BOUNDS xy xz yz  pp  pp  pp
     -0.003081      2.203080      0.000000
     -0.005336      3.815850      0.000000
     -0.007546      5.396420      0.000000
ITEM: ATOMS id type xs ys zs
     1     1      0.047834      0.988715      0.986803
     2     1      0.294239      0.238661      0.986482
     3     1      0.276062      0.410875      0.151307
     4     1      0.025297      0.160965      0.151291
     5     1      0.970181      0.014617      0.319272
     6     1      0.220376      0.263981      0.319921
     7     1      0.208321      0.442264      0.485212
     8     1      0.957847      0.192462      0.484906
     9     1      0.906955      0.041809      0.651857
    10     1      0.156325      0.292390      0.653014
    11     1      0.319903      0.400034      0.821966
    12     1      0.071949      0.150204      0.821144
    13     1      0.042138      0.488571      0.986770
    14     1      0.296371      0.738940      0.987472
    15     1      0.276532      0.911045      0.152457
    16     1      0.027273      0.660006      0.152153
    17     1      0.971063      0.513850      0.319661
    18     1      0.220612      0.763774      0.319407
    19     1      0.208414      0.941647      0.484916
    20     1      0.959057      0.692140      0.485042
    21     1      0.906839      0.542494      0.652572
    22     1      0.156169      0.792651      0.653200
    23     1      0.325908      0.900760      0.821960
    24     1      0.073834      0.649359      0.821718
    25     1      0.547110      0.989372      0.986786
    26     1      0.793988      0.239155      0.986223
    27     1      0.775108      0.410842      0.152122
    28     1      0.525469      0.160785      0.151893
    29     1      0.470539      0.013674      0.319795
    30     1      0.719915      0.264566      0.319892
    31     1      0.709041      0.443270      0.484822
    32     1      0.456789      0.191748      0.484969
    33     1      0.407416      0.041801      0.651817
    34     1      0.655958      0.292110      0.651349
    35     1      0.820808      0.399761      0.821187
    36     1      0.571633      0.151140      0.821389
    37     1      0.542565      0.489269      0.987413
    38     1      0.796605      0.738999      0.987358
    39     1      0.776994      0.910659      0.152307
    40     1      0.528092      0.660555      0.152273
    41     1      0.470219      0.514806      0.320010
    42     1      0.721628      0.764110      0.319381
    43     1      0.708248      0.941007      0.485011
    44     1      0.458864      0.691956      0.484617
    45     1      0.405404      0.542802      0.652854
    46     1      0.656418      0.792989      0.652735
    47     1      0.825053      0.900551      0.821842
    48     1      0.573469      0.650497      0.821940
ITEM: TIMESTEP
64250
ITEM: NUMBER OF ATOMS
48
ITEM: BOX BOUNDS xy xz yz  pp  pp  pp
     -0.003081      2.203080      0.000000
     -0.005336      3.815850      0.000000
     -0.007546      5.396420      0.000000
ITEM: ATOMS id type xs ys zs
     1     1      0.046814      0.989323      0.987141
     2     1      0.294395      0.238507      0.986805
     3     1      0.276637      0.411000      0.151511
     4     1      0.025652      0.161452      0.152097
     5     1      0.971817      0.014451      0.319666
     6     1      0.219415      0.264325      0.319673
     7     1      0.207969      0.441726      0.485544
     8     1      0.958182      0.192515      0.484693
     9     1      0.906293      0.041681      0.652094
    10     1      0.157003      0.291755      0.652610
    11     1      0.321649      0.400109      0.822387
    12     1      0.071468      0.150262      0.821471
    13     1      0.041195      0.489047      0.986889
    14     1      0.296093      0.739379      0.987304
    15     1      0.276998      0.911280      0.151684
    16     1      0.027249      0.660317      0.151985
    17     1      0.972069      0.513764      0.320103
    18     1      0.220435      0.764045      0.319489
    19     1      0.208658      0.941128      0.484873
    20     1      0.958655      0.690471      0.484707
    21     1      0.905487      0.541608      0.652590
    22     1      0.155721      0.792336      0.653035
    23     1      0.325536      0.900664      0.822031
    24     1      0.074133      0.649773      0.821727
    25     1      0.547555      0.989353      0.987000
    26     1      0.794797      0.238997      0.987266
    27     1      0.776020      0.410640      0.152342
    28     1      0.525704      0.160294      0.151587
    29     1      0.471757      0.013795      0.319687
    30     1      0.719354      0.264948      0.319740
    31     1      0.708087      0.442661      0.484994
    32     1      0.456974      0.191924      0.484720
    33     1      0.406918      0.041640      0.651815
    34     1      0.655915      0.291737      0.652091
    35     1      0.821369      0.400167      0.821489
    36     1      0.570408      0.151039      0.821327
    37     1      0.542534      0.489155      0.987372
    38     1      0.797066      0.739891      0.987494
    39     1      0.778003      0.911101      0.151999
    40     1      0.528308      0.660754      0.152486
    41     1      0.470648      0.514952      0.319119
    42     1      0.721070      0.763707      0.320065
    43     1      0.708390      0.941128      0.484699
    44     1      0.458123      0.691671      0.484897
    45     1      0.406143      0.543136      0.652662
    46     1      0.655788      0.791677      0.652722
    47     1      0.824279      0.900232      0.821917
    48     1      0.574367      0.650928      0.822868
ITEM: TIMESTEP
64300
ITEM: NUMBER OF ATOMS
48
ITEM: BOX BOUNDS xy xz yz  pp  pp  pp
     -0.003081      2.203080      0.000000
     -0.005336      3.815850      0.000000
     -0.007546      5.396420      0.000000
ITEM: ATOMS id type xs ys zs
     1     1      0.045806      0.989622      0.986825
     2     1      0.293683      0.239600      0.987002
     3     1      0.275508      0.410923      0.151300
     4     1      0.025956      0.161484      0.152159
     5     1      0.971876      0.014575      0.319466
     6     1      0.219427      0.264477      0.319818
     7     1      0.208175      0.442051      0.485133
     8     1      0.956595      0.192520      0.484921
     9     1      0.905507      0.041676      0.652306
    10     1      0.157088      0.290920      0.652654
    11     1      0.320579      0.401180      0.822815
    12     1      0.070686      0.150661      0.821963
    13     1      0.043260      0.489339      0.987235
    14     1      0.295204      0.739589      0.987318
    15     1      0.276393      0.910754      0.151451
    16     1      0.027962      0.660701      0.151770
    17     1      0.972070      0.514686      0.319915
    18     1      0.218795      0.764371      0.319484
    19     1      0.207722      0.941364      0.484786
    20     1      0.957113      0.690133      0.484759
    21     1      0.905871      0.540281      0.652599
    22     1      0.155280      0.791870      0.652760
    23     1      0.323194      0.900355      0.822122
    24     1      0.073495      0.650560      0.821864
    25     1      0.547387      0.989737      0.987498
    26     1      0.795072      0.240062      0.986998
    27     1      0.775762      0.410842      0.152525
    28     1      0.527612      0.161100      0.151840
    29     1      0.472035      0.014296      0.320053
    30     1      0.719691      0.265618      0.319807
    31     1      0.707981      0.441467      0.484662
    32     1      0.457135      0.191328      0.484425
    33     1      0.406892      0.040836      0.652317
    34     1      0.654955      0.291592      0.651641
    35     1      0.822007      0.399828      0.822193
    36     1      0.571930      0.150797      0.821536
    37     1      0.543478      0.489156      0.987322
    38     1      0.796725      0.739671      0.987402
    39     1      0.777858      0.910879      0.152240
    40     1      0.527347      0.661742      0.151788
    41     1      0.470643      0.514859      0.319658
    42     1      0.721668      0.764295      0.319828
    43     1      0.708785      0.941064      0.484711
    44     1      0.457132      0.691395      0.484642
    45     1      0.405340      0.541608      0.652493
    46     1      0.655132      0.790787      0.653152
    47     1      0.824054      0.900818      0.822269
    48     1      0.573498      0.650204      0.822784
ITEM: TIMESTEP
64350
ITEM: NUMBER OF ATOMS
48
ITEM: BOX BOUNDS xy xz yz  pp  pp  pp
     -0.003081      2.203080      0.000000
     -0.005336      3.815850      0.000000
     -0.007546      5.396420      0.000000
ITEM: ATOMS id type xs ys zs
     1     1      0.045794      0.990128      0.986685
     2     1      0.292870      0.239359      0.987248
     3     1      0.275617      0.411139      0.151343
     4     1      0.026494      0.161725      0.152068
     5     1      0.971455      0.014798      0.320102
     6     1      0.222017      0.264544      0.319696
     7     1      0.207791      0.441009      0.484986
     8     1      0.956952      0.192491      0.485289
     9     1      0.906002      0.041760      0.651984
    10     1      0.158120      0.290533      0.652220
    11     1      0.320214      0.401437      0.822534
    12     1      0.070799      0.150886      0.821505
    13     1      0.043201      0.489999      0.987354
    14     1      0.296622      0.740074      0.987073
    15     1      0.278233      0.910994      0.151532
    16     1      0.027292      0.661329      0.151816
    17     1      0.972184      0.513964      0.320016
    18     1      0.219709      0.764393      0.319649
    19     1      0.207295      0.941421      0.484511
    20     1      0.956999      0.690965      0.484772
    21     1      0.905702      0.540849      0.652994
    22     1      0.156287      0.791411      0.652232
    23     1      0.322347      0.900488      0.821496
    24     1      0.073656      0.650609      0.821978
    25     1      0.544334      0.989544      0.987185
    26     1      0.794251      0.239931      0.987088
    27     1      0.775418      0.411686      0.152037
    28     1      0.526757      0.162238      0.151364
    29     1      0.472465      0.015351      0.319948
    30     1      0.720596      0.265431      0.319941
    31     1      0.706843      0.440453      0.484484
    32     1      0.457998      0.192122      0.484975
    33     1      0.406784      0.041144      0.652823
    34     1      0.657592      0.291857      0.652115
    35     1      0.820619      0.400314      0.821709
    36     1      0.571277      0.150655      0.821752
    37     1      0.543399      0.489886      0.987653
    38     1      0.797772      0.739721      0.987290
    39     1      0.777038      0.911371      0.152287
    40     1      0.528608      0.661266      0.151910
    41     1      0.471442      0.514273      0.319165
    42     1      0.720848      0.764471      0.320161
    43     1      0.709491      0.942337      0.485127
    44     1      0.456542      0.691265      0.485517
    45     1      0.405956      0.541288      0.652756
    46     1      0.655383      0.790266      0.652476
    47     1      0.822293      0.900080      0.821800
    48     1      0.572133      0.649338      0.822391
ITEM: TIMESTEP
64400
ITEM: NUMBER OF ATOMS
48
ITEM: BOX BOUNDS xy xz yz  pp  pp  pp
     -0.003081      2.203080      0.000000
     -0.005336      3.815850      0.000000
     -0.007546      5.396420      0.000000
ITEM: ATOMS id type xs ys zs
     1     1      0.044929      0.990300      0.986817
     2     1      0.292137      0.239713      0.986841
     3     1      0.276555      0.410977      0.151849
     4     1      0.025901      0.161589      0.152279
     5     1      0.972394      0.014990      0.320507
     6     1      0.221803      0.264719      0.319386
     7     1      0.207209      0.440643      0.485097
     8     1      0.956711      0.190769      0.484880
     9     1      0.906614      0.040071      0.652295
    10     1      0.158467      0.290369      0.652136
    11     1      0.318774      0.400962      0.822945
    12     1      0.070760      0.150791      0.821044
    13     1      0.042403      0.489725      0.987398
    14     1      0.296080      0.739445      0.987455
    15     1      0.277961      0.911648      0.151831
    16     1      0.027643      0.661341      0.152073
    17     1      0.973143      0.514371      0.319838
    18     1      0.221195      0.764332      0.319174
    19     1      0.207000      0.941142      0.484616
    20     1      0.957601      0.690891      0.485245
    21     1      0.906973      0.540580      0.653265
    22     1      0.156644      0.790715      0.653027
    23     1      0.322189      0.900376      0.822103
    24     1      0.073142      0.649892      0.822163
    25     1      0.545695      0.989713      0.986652
    26     1      0.794261      0.240163      0.987115
    27     1      0.774890      0.411824      0.152517
    28     1      0.527169      0.161829      0.151241
    29     1      0.473569      0.014684      0.319654
    30     1      0.720052      0.264930      0.319184
    31     1      0.708277      0.441342      0.484834
    32     1      0.458448      0.191456      0.484495
    33     1      0.406818      0.040460      0.652422
    34     1      0.657502      0.290946      0.651795
    35     1      0.820152      0.399993      0.822124
    36     1      0.570644      0.151028      0.821315
    37     1      0.543256      0.490330      0.987845
    38     1      0.797860      0.740404      0.986787
    39     1      0.777294      0.911684      0.152671
    40     1      0.528694      0.661776      0.151615
    41     1      0.471782      0.514586      0.319366
    42     1      0.721515      0.764800      0.320856
    43     1      0.708533      0.941344      0.485242
    44     1      0.455475      0.690926      0.485291
    45     1      0.408174      0.541378      0.653011
    46     1      0.657406      0.790199      0.652361
    47     1      0.822026      0.900072      0.821474
    48     1      0.572495      0.649367      0.822181
ITEM: TIMESTEP
64450
ITEM: NUMBER OF ATOMS
48
ITEM: BOX BOUNDS xy xz yz  pp  pp  pp
     -0.003081      2.203080      0.000000
     -0.005336      3.815850      0.000000
     -0.007546      5.396420      0.000000
ITEM: ATOMS id type xs ys zs
     1     1      0.045055      0.990371      0.986388
     2     1      0.292883      0.239490      0.986503
     3     1      0.276991      0.411741      0.152052
     4     1      0.026015      0.161941      0.152483
     5     1      0.970688      0.015200      0.320090
     6     1      0.222025      0.263950      0.319335
     7     1      0.206571      0.440233      0.484619
     8     1      0.956673      0.191312      0.485008
     9     1      0.905245      0.040582      0.652343
    10     1      0.158653      0.290656      0.651819
    11     1      0.319777      0.400657      0.822693
    12     1      0.068652      0.150845      0.820800
    13     1      0.043102      0.490407      0.987385
    14     1      0.296187      0.740523      0.986906
    15     1      0.277129      0.910853      0.151585
    16     1      0.027479      0.662043      0.151999
    17     1      0.972541      0.514236      0.319650
    18     1      0.220901      0.764888      0.319463
    19     1      0.207598      0.940836      0.484740
    20     1      0.957298      0.690706      0.485423
    21     1      0.908228      0.540021      0.652594
    22     1      0.156669      0.790320      0.652466
    23     1      0.321333      0.900944      0.821671
    24     1      0.072798      0.649688      0.822521
    25     1      0.547121      0.990245      0.986562
    26     1      0.794863      0.240395      0.987205
    27     1      0.776074      0.411623      0.152008
    28     1      0.527769      0.160703      0.151305
    29     1      0.471963      0.014445      0.319643
    30     1      0.720632      0.264505      0.319560
    31     1      0.708580      0.441432      0.484745
    32     1      0.458129      0.190813      0.484641
    33     1      0.406516      0.040490      0.652109
    34     1      0.657013      0.290363      0.651082
    35     1      0.818869      0.400156      0.821814
    36     1      0.569380      0.150882      0.821688
    37     1      0.543198      0.490014      0.987654
    38     1      0.796173      0.741099      0.986821
    39     1      0.776985      0.912016      0.152519
    40     1      0.528438      0.662123      0.151978
    41     1      0.470891      0.514849      0.319491
    42     1      0.722914      0.764067      0.320645
    43     1      0.707473      0.941272      0.485388
    44     1      0.455335      0.690612      0.485284
    45     1      0.407251      0.540155      0.652566
    46     1      0.658397      0.789747      0.652371
    47     1      0.821333      0.900587      0.822120
    48     1      0.572380      0.649475      0.822353
ITEM: TIMESTEP
64500
ITEM: NUMBER OF ATOMS
48
ITEM: BOX BOUNDS xy xz yz  pp  pp  pp
     -0.003081      2.203080      0.000000
     -0.005336      3.815850      0.000000
     -0.007546      5.396420      0.000000
ITEM: ATOMS id type xs ys zs
     1     1      0.046087      0.991133      0.986517
     2     1      0.293836      0.240279      0.986965
     3     1      0.275834      0.410495      0.151475
     4     1      0.025980      0.161381      0.152491
     5     1      0.970555      0.014279      0.319824
     6     1      0.220733      0.264680      0.319127
     7     1      0.207724      0.439735      0.484462
     8     1      0.956945      0.190991      0.484599
     9     1      0.907364      0.039611      0.652135
    10     1      0.159610      0.289723      0.651154
    11     1      0.318581      0.401101      0.821951
    12     1      0.068465      0.151218      0.821600
    13     1      0.043614      0.490952      0.987019
    14     1      0.295667      0.739658      0.986982
    15     1      0.278748      0.911780      0.151974
    16     1      0.028063      0.662780      0.151870
    17     1      0.972848      0.514558      0.319584