ITEM: TIMESTEP
64001
ITEM: NUMBER OF ATOMS
48
ITEM: BOX BOUNDS xy xz yz  pp  pp  pp
     -0.003081      2.203080      0.000000
     -0.005336      3.815850      0.000000
     -0.007546      5.396420      0.000000
ITEM: ATOMS id type xs ys zs
     1     1      0.048752      0.988190      0.986963
     2     1      0.292963      0.237168      0.986239
     3     1      0.272138      0.408627      0.151668
     4     1      0.022172      0.159208      0.150542
     5     1      0.967208      0.015423      0.319044
     6     1      0.220233      0.262834      0.318779
     7     1      0.212041      0.443092      0.485105
     8     1      0.959086      0.195844      0.485111
     9     1      0.908041      0.044607      0.651791
    10     1      0.153905      0.294303      0.653534
    11     1      0.322820      0.400893      0.822790
    12     1      0.073605      0.149546      0.821808
    13     1      0.038955      0.487365      0.987016
    14     1      0.292041      0.735931      0.986823
    15     1      0.277836      0.908781      0.151425
    16     1      0.026331      0.657942      0.152736
    17     1      0.972115      0.513397      0.320639
    18     1      0.219241      0.764625      0.319848
    19     1      0.209142      0.943969      0.484316
    20     1      0.963718      0.692854      0.485583
    21     1      0.904570      0.544363      0.652553
    22     1      0.157700      0.794840      0.653359
    23     1      0.329611      0.899243      0.821676
    24     1      0.073892      0.649275      0.821761
    25     1      0.549287      0.987358      0.986188
    26     1      0.791393      0.237914      0.985447
    27     1      0.772786      0.409914      0.153157
    28     1      0.523848      0.159486      0.151336
    29     1      0.467943      0.016025      0.319753
    30     1      0.720624      0.265074      0.320200
    31     1      0.709814      0.444735      0.484605
    32     1      0.459230      0.193579      0.484062
    33     1      0.409006      0.042675      0.650833
    34     1      0.651870      0.294887      0.651208
    35     1      0.823500      0.399258      0.820434
    36     1      0.572455      0.150190      0.820067
    37     1      0.541751      0.488386      0.988034
    38     1      0.793886      0.738018      0.988893
    39     1      0.776592      0.909055      0.152498
    40     1      0.525973      0.659859      0.152785
    41     1      0.469408      0.513723      0.319456
    42     1      0.720783      0.764101      0.320564
    43     1      0.712166      0.943440      0.483916
    44     1      0.462307      0.694652      0.485195
    45     1      0.404389      0.544478      0.653296
    46     1      0.658279      0.793768      0.653135
    47     1      0.829136      0.898950      0.822483
    48     1      0.575632      0.649157      0.822928
ITEM: TIMESTEP
64050
ITEM: NUMBER OF ATOMS
48
ITEM: BOX BOUNDS xy xz yz  pp  pp  pp
     -0.003081      2.203080      0.000000
     -0.005336      3.815850      0.000000
     -0.007546      5.396420      0.000000
ITEM: ATOMS id type xs ys zs
     1     1      0.048314      0.988239      0.987139
     2     1      0.295058      0.237976      0.986883
     3     1      0.275032      0.409274      0.151439
     4     1      0.023479      0.159966      0.151110
     5     1      0.967825      0.015273      0.319124
     6     1      0.220018      0.263107      0.319192
     7     1      0.212351      0.443928      0.485640
     8     1      0.957377      0.196190      0.485386
     9     1      0.909226      0.043557      0.652129
    10     1      0.153805      0.294442      0.653780
    11     1      0.322006      0.399598      0.822489
    12     1      0.075573      0.149309      0.821739
    13     1      0.041343      0.488404      0.987208
    14     1      0.291767      0.737519      0.986345
    15     1      0.278377      0.908929      0.151353
    16     1      0.028228      0.658597      0.153060
    17     1      0.973291      0.513815      0.320569
    18     1      0.220646      0.764040      0.321152
    19     1      0.203824      0.948586      0.483329
    20     1      0.959726      0.691774      0.483892
    21     1      0.903099      0.543478      0.652269
    22     1      0.146928      0.791502      0.646931
    23     1      0.338392      0.879061      0.808127
    24     1      0.071440      0.646666      0.821546
    25     1      0.545162      0.986734      0.984712
    26     1      0.793111      0.238178      0.985529
    27     1      0.773428      0.409548      0.152917
    28     1      0.525728      0.159119      0.150936
    29     1      0.468466      0.015549      0.319165
    30     1      0.721318      0.264532      0.319764
    31     1      0.707885      0.446025      0.484309
    32     1      0.458234      0.193109      0.483991
    33     1      0.408740      0.043087      0.650155
    34     1      0.652288      0.294174      0.651440
    35     1      0.822547      0.398560      0.821213
    36     1      0.570512      0.149060      0.820443
    37     1      0.541174      0.488092      0.988033
    38     1      0.795194      0.737772      0.988460
    39     1      0.777340      0.910258      0.151669
    40     1      0.526581      0.659661      0.151780
    41     1      0.470779      0.514445      0.319699
    42     1      0.718454      0.764239      0.321173
    43     1      0.714959      0.946508      0.484046
    44     1      0.454390      0.715192      0.498913
    45     1      0.404668      0.544150      0.654300
    46     1      0.665641      0.796081      0.659684
    47     1      0.831270      0.899869      0.823772
    48     1      0.580905      0.644075      0.823679
ITEM: TIMESTEP
64100
ITEM: NUMBER OF ATOMS
48
ITEM: BOX BOUNDS xy xz yz  pp  pp  pp
     -0.003081      2.203080      0.000000
     -0.005336      3.815850      0.000000
     -0.007546      5.396420      0.000000
ITEM: ATOMS id type xs ys zs
     1     1      0.047700      0.988277      0.987269
     2     1      0.294831      0.238094      0.987137
     3     1      0.274511      0.409431      0.151004
     4     1      0.025622      0.159727      0.151241
     5     1      0.968299      0.014027      0.319214
     6     1      0.219731      0.264055      0.319433
     7     1      0.211921      0.444613      0.486172
     8     1      0.956850      0.196126      0.485572
     9     1      0.907870      0.043595      0.652588
    10     1      0.153224      0.294438      0.653626
    11     1      0.321834      0.398833      0.822816
    12     1      0.076697      0.148511      0.821773
    13     1      0.040846      0.488148      0.987145
    14     1      0.293954      0.738539      0.986111
    15     1      0.278963      0.908527      0.151980
    16     1      0.027195      0.659494      0.152502
    17     1      0.972118      0.512976      0.319890
    18     1      0.221755      0.764361      0.321195
    19     1      0.204438      0.948540      0.484035
    20     1      0.957758      0.692369      0.483332
    21     1      0.903503      0.542684      0.652332
    22     1      0.149394      0.791477      0.648307
    23     1      0.338345      0.887007      0.813319
    24     1      0.073722      0.647346      0.821303
    25     1      0.544307      0.987404      0.984856
    26     1      0.793601      0.238286      0.985665
    27     1      0.774343      0.409273      0.152596
    28     1      0.525996      0.159749      0.150943
    29     1      0.468260      0.015079      0.319324
    30     1      0.719079      0.263738      0.319450
    31     1      0.706749      0.445972      0.484359
    32     1      0.457152      0.193147      0.483446
    33     1      0.407063      0.042787      0.650368
    34     1      0.652481      0.293437      0.651353
    35     1      0.822900      0.398105      0.821305
    36     1      0.570673      0.148379      0.820987
    37     1      0.541504      0.488071      0.988304
    38     1      0.795652      0.738437      0.988494
    39     1      0.777235      0.910106      0.151803
    40     1      0.527588      0.660172      0.151923
    41     1      0.469830      0.514907      0.319685
    42     1      0.717489      0.764053      0.320941
    43     1      0.711962      0.945816      0.485016
    44     1      0.454509      0.707512      0.494096
    45     1      0.405751      0.543935      0.654480
    46     1      0.661948      0.794424      0.658207
    47     1      0.832836      0.900473      0.824835
    48     1      0.580849      0.643846      0.823373
ITEM: TIMESTEP
64150
ITEM: NUMBER OF ATOMS
48
ITEM: BOX BOUNDS xy xz yz  pp  pp  pp
     -0.003081      2.203080      0.000000
     -0.005336      3.815850      0.000000
     -0.007546      5.396420      0.000000
ITEM: ATOMS id type xs ys zs
     1     1      0.048737      0.989481      0.987878
     2     1      0.296041      0.238613      0.986841
     3     1      0.275139      0.409551      0.151213
     4     1      0.026912      0.159813      0.151124
     5     1      0.968219      0.014641      0.318893
     6     1      0.219935      0.264294      0.319381
     7     1      0.209915      0.445035      0.486057
     8     1      0.957522      0.195742      0.485184
     9     1      0.906235      0.043680      0.652800
    10     1      0.154610      0.294157      0.653051
    11     1      0.321750      0.398487      0.822891
    12     1      0.076631      0.148407      0.821334
    13     1      0.040359      0.489391      0.986806
    14     1      0.295034      0.738532      0.986714
    15     1      0.279599      0.908390      0.151577
    16     1      0.027843      0.659939      0.152204
    17     1      0.972251      0.514506      0.319486
    18     1      0.219388      0.765369      0.321118
    19     1      0.203510      0.946791      0.483875
    20     1      0.957505      0.692220      0.483541
    21     1      0.903274      0.542452      0.652377
    22     1      0.153208      0.791992      0.649198
    23     1      0.335687      0.890835      0.816064
    24     1      0.075126      0.648193      0.821415
    25     1      0.544895      0.987323      0.984899
    26     1      0.793681      0.237637      0.986037
    27     1      0.776190      0.409303      0.152126
    28     1      0.527474      0.159277      0.150908
    29     1      0.468466      0.014891      0.319199
    30     1      0.719380      0.263398      0.319295
    31     1      0.705175      0.445201      0.484534
    32     1      0.456788      0.193296      0.483713
    33     1      0.407657      0.042837      0.650831
    34     1      0.653274      0.293162      0.651029
    35     1      0.822189      0.397897      0.820955
    36     1      0.572211      0.148534      0.820776
    37     1      0.542528      0.488537      0.988024
    38     1      0.796253      0.739104      0.988529
    39     1      0.778162      0.910126      0.152015
    40     1      0.528017      0.658969      0.152324
    41     1      0.470760      0.514671      0.320216
    42     1      0.718172      0.764603      0.320469
    43     1      0.709672      0.945468      0.485126
    44     1      0.453690      0.702081      0.490779
    45     1      0.405281      0.543901      0.654238
    46     1      0.659213      0.794531      0.657371
    47     1      0.833390      0.900042      0.823771
    48     1      0.579138      0.644996      0.823433
ITEM: TIMESTEP
64200
ITEM: NUMBER OF ATOMS
48
ITEM: BOX BOUNDS xy xz yz  pp  pp  pp
     -0.003081      2.203080      0.000000
     -0.005336      3.815850      0.000000
     -0.007546      5.396420      0.000000
ITEM: ATOMS id type xs ys zs
     1     1      0.047608      0.989290      0.987699
     2     1      0.294864      0.239216      0.986786
     3     1      0.275217      0.410028      0.151562
     4     1      0.027535      0.159817      0.151492
     5     1      0.968490      0.014322      0.318853
     6     1      0.219186      0.264737      0.319378
     7     1      0.209603      0.444839      0.485922
     8     1      0.956301      0.195854      0.484914
     9     1      0.906925      0.043479      0.652744
    10     1      0.153831      0.293601      0.652747
    11     1      0.322111      0.398476      0.823065
    12     1      0.076349      0.148050      0.821281
    13     1      0.042861      0.489852      0.986506
    14     1      0.295602      0.737751      0.986217
    15     1      0.278353      0.909150      0.151710
    16     1      0.028238      0.660060      0.152689
    17     1      0.971671      0.514290      0.319281
    18     1      0.218651      0.764903      0.320860
    19     1      0.203492      0.945606      0.484428
    20     1      0.954709      0.692406      0.484202
    21     1      0.905004      0.542735      0.652768
    22     1      0.153252      0.792331      0.650231
    23     1      0.334458      0.893485      0.817620
    24     1      0.075822      0.648467      0.821382
    25     1      0.545408      0.987542      0.985012
    26     1      0.794631      0.237853      0.985862
    27     1      0.775762      0.409429      0.151968
    28     1      0.526726      0.158603      0.151098
    29     1      0.468983      0.015295      0.319991
    30     1      0.719089      0.263877      0.319335
    31     1      0.706618      0.444636      0.484496
    32     1      0.456528      0.193947      0.483408
    33     1      0.407757      0.042817      0.650827
    34     1      0.654746      0.291897      0.651437
    35     1      0.824081      0.397707      0.821036
    36     1      0.573065      0.148092      0.820921
    37     1      0.543415      0.488096      0.988186
    38     1      0.796558      0.738751      0.988230
    39     1      0.776522      0.910152      0.150922
    40     1      0.527030      0.659144      0.151879
    41     1      0.469612      0.515005      0.320493
    42     1      0.718603      0.764065      0.319874
    43     1      0.707292      0.944769      0.485909
    44     1      0.455150      0.698387      0.489317
    45     1      0.404175      0.543129      0.654196
    46     1      0.656960      0.794456      0.656479
    47     1      0.832616      0.898972      0.823423
    48     1      0.577741      0.646276      0.823241
ITEM: TIMESTEP
64250
ITEM: NUMBER OF ATOMS
48
ITEM: BOX BOUNDS xy xz yz  pp  pp  pp
     -0.003081      2.203080      0.000000
     -0.005336      3.815850      0.000000
     -0.007546      5.396420      0.000000
ITEM: ATOMS id type xs ys zs
     1     1      0.047561      0.988858      0.987530
     2     1      0.295494      0.239675      0.986985
     3     1      0.275808      0.411213      0.152185
     4     1      0.026787      0.159474      0.150741
     5     1      0.967059      0.014740      0.319266
     6     1      0.218700      0.264821      0.319843
     7     1      0.208805      0.444634      0.485615
     8     1      0.955212      0.195457      0.484745
     9     1      0.906200      0.043032      0.651972
    10     1      0.154121      0.293077      0.652797
    11     1      0.322657      0.398383      0.822787
    12     1      0.076772      0.148485      0.821954
    13     1      0.043671      0.488920      0.987259
    14     1      0.296376      0.737702      0.986468
    15     1      0.278233      0.909433      0.152154
    16     1      0.027654      0.661400      0.150556
    17     1      0.969633      0.514861      0.319663
    18     1      0.219349      0.764497      0.321060
    19     1      0.203094      0.944437      0.485693
    20     1      0.954037      0.692981      0.486256
    21     1      0.903555      0.542289      0.652331
    22     1      0.149168      0.792757      0.663724
    23     1      0.338726      0.897521      0.822994
    24     1      0.075239      0.644274      0.823683
    25     1      0.546184      0.988730      0.986185
    26     1      0.795933      0.238459      0.985990
    27     1      0.777792      0.410187      0.151504
    28     1      0.526941      0.159332      0.151309
    29     1      0.468523      0.015606      0.319591
    30     1      0.719449      0.264387      0.318551
    31     1      0.706249      0.444166      0.484696
    32     1      0.455413      0.193758      0.483726
    33     1      0.406067      0.041745      0.651132
    34     1      0.653691      0.291798      0.651489
    35     1      0.825058      0.397547      0.821231
    36     1      0.572982      0.149366      0.820983
    37     1      0.544653      0.488834      0.987770
    38     1      0.798759      0.738654      0.974821
    39     1      0.776542      0.909814      0.150207
    40     1      0.529860      0.660660      0.151157
    41     1      0.470098      0.515521      0.320478
    42     1      0.719136      0.765116      0.320284
    43     1      0.705844      0.943843      0.485616
    44     1      0.455456      0.696468      0.488378
    45     1      0.403051      0.541685      0.653299
    46     1      0.654050      0.793325      0.655114
    47     1      0.833812      0.902795      0.820029
    48     1      0.572296      0.644364      0.819226
ITEM: TIMESTEP
64300
ITEM: NUMBER OF ATOMS
48
ITEM: BOX BOUNDS xy xz yz  pp  pp  pp
     -0.003081      2.203080      0.000000
     -0.005336      3.815850      0.000000
     -0.007546      5.396420      0.000000
ITEM: ATOMS id type xs ys zs
     1     1      0.047988      0.988958      0.987162
     2     1      0.295926      0.239015      0.986973
     3     1      0.276421      0.410778      0.152049
     4     1      0.027539      0.160535      0.151329
     5     1      0.968232      0.014914      0.319081
     6     1      0.219532      0.265799      0.319361
     7     1      0.204295      0.481376      0.510770
     8     1      0.956058      0.194526      0.484752
     9     1      0.904510      0.042991      0.651607
    10     1      0.154909      0.291569      0.652688
    11     1      0.326046      0.397280      0.822645
    12     1      0.076520      0.148828      0.821290
    13     1      0.044386      0.488727      0.986848
    14     1      0.296114      0.737533      0.986465
    15     1      0.278592      0.909703      0.151681
    16     1      0.026065      0.661828      0.150389
    17     1      0.969751      0.515564      0.319740
    18     1      0.219044      0.764649      0.320590
    19     1      0.203419      0.942788      0.486060
    20     1      0.954305      0.693524      0.486167
    21     1      0.898156      0.540652      0.650175
    22     1      0.150737      0.792892      0.658921
    23     1      0.335332      0.898412      0.823140
    24     1      0.077989      0.609012      0.797877
    25     1      0.547685      0.989049      0.987046
    26     1      0.796231      0.239639      0.986358
    27     1      0.777757      0.410191      0.151917
    28     1      0.528644      0.159826      0.151474
    29     1      0.467833      0.015644      0.319529
    30     1      0.719482      0.265129      0.318840
    31     1      0.706899      0.443901      0.484673
    32     1      0.454144      0.193432      0.484072
    33     1      0.405147      0.042019      0.652324
    34     1      0.654559      0.292096      0.651375
    35     1      0.823592      0.396533      0.821281
    36     1      0.575701      0.148457      0.820499
    37     1      0.543918      0.489163      0.987775
    38     1      0.796849      0.738533      0.980679
    39     1      0.778797      0.909184      0.149835
    40     1      0.530153      0.660581      0.151069
    41     1      0.468891      0.516205      0.320460
    42     1      0.718975      0.765562      0.320155
    43     1      0.705733      0.944205      0.485197
    44     1      0.454573      0.695670      0.487310
    45     1      0.407353      0.541912      0.655511
    46     1      0.653279      0.793192      0.654586
    47     1      0.834580      0.901335      0.819979
    48     1      0.574375      0.645089      0.819238
ITEM: TIMESTEP
64350
ITEM: NUMBER OF ATOMS
48
ITEM: BOX BOUNDS xy xz yz  pp  pp  pp
     -0.003081      2.203080      0.000000
     -0.005336      3.815850      0.000000
     -0.007546      5.396420      0.000000
ITEM: ATOMS id type xs ys zs
     1     1      0.047769      0.989743      0.987101
     2     1      0.294773      0.239087      0.987131
     3     1      0.278378      0.411567      0.151708
     4     1      0.028478      0.160564      0.151872
     5     1      0.968348      0.015274      0.319432
     6     1      0.218106      0.266824      0.319987
     7     1      0.197847      0.463384      0.497208
     8     1      0.956445      0.194450      0.484467
     9     1      0.904535      0.043716      0.651490
    10     1      0.156931      0.291695      0.652660
    11     1      0.331290      0.392133      0.822907
    12     1      0.074324      0.148181      0.820809
    13     1      0.044711      0.489603      0.985914
    14     1      0.295204      0.737074      0.984675
    15     1      0.277864      0.909382      0.151841
    16     1      0.027835      0.661731      0.149640
    17     1      0.971233      0.515693      0.320684
    18     1      0.217839      0.764917      0.320680
    19     1      0.202750      0.942129      0.486149
    20     1      0.948688      0.698254      0.485713
    21     1      0.893854      0.538765      0.647199
    22     1      0.149285      0.793618      0.655163
    23     1      0.333424      0.897291      0.822034
    24     1      0.083335      0.628304      0.810557
    25     1      0.549225      0.989642      0.987045
    26     1      0.794860      0.238903      0.986891
    27     1      0.778874      0.410919      0.151981
    28     1      0.529015      0.160072      0.151238
    29     1      0.467343      0.016211      0.319485
    30     1      0.718461      0.265099      0.319328
    31     1      0.701770      0.442901      0.483084
    32     1      0.452435      0.194138      0.483988
    33     1      0.405937      0.041156      0.652023
    34     1      0.653486      0.290854      0.650983
    35     1      0.822099      0.393536      0.820655
    36     1      0.575843      0.147303      0.820435
    37     1      0.544964      0.488785      0.987562
    38     1      0.797571      0.739290      0.982817
    39     1      0.779005      0.909948      0.150204
    40     1      0.531055      0.660597      0.150946
    41     1      0.466903      0.517100      0.321204
    42     1      0.717502      0.766545      0.319973
    43     1      0.704334      0.944300      0.485166
    44     1      0.457052      0.697487      0.486708
    45     1      0.410186      0.542857      0.658363
    46     1      0.652974      0.792823      0.654340
    47     1      0.835195      0.899515      0.820567
    48     1      0.578402      0.646957      0.821986
ITEM: TIMESTEP
64400
ITEM: NUMBER OF ATOMS
48
ITEM: BOX BOUNDS xy xz yz  pp  pp  pp
     -0.003081      2.203080      0.000000
     -0.005336      3.815850      0.000000
     -0.007546      5.396420      0.000000
ITEM: ATOMS id type xs ys zs
     1     1      0.046700      0.989773      0.986937
     2     1      0.296006      0.237904      0.987285
     3     1      0.278200      0.411893      0.151779
     4     1      0.028818      0.161120      0.152139
     5     1      0.969200      0.015465      0.319139
     6     1      0.217846      0.267011      0.319700
     7     1      0.197388      0.455857      0.492002
     8     1      0.956901      0.195089      0.484282
     9     1      0.904282      0.042729      0.652080
    10     1      0.156575      0.291822      0.652660
    11     1      0.330062      0.392449      0.822360
    12     1      0.076653      0.147807      0.820837
    13     1      0.045946      0.489215      0.985726
    14     1      0.296865      0.737647      0.984454
    15     1      0.279302      0.909978      0.151333
    16     1      0.028743      0.661167      0.150692
    17     1      0.970134      0.516178      0.320584
    18     1      0.218470      0.765406      0.320601
    19     1      0.202544      0.943081      0.485637
    20     1      0.947970      0.697152      0.485765
    21     1      0.896390      0.539421      0.648895
    22     1      0.151697      0.793789      0.653908
    23     1      0.334121      0.897269      0.821380
    24     1      0.083863      0.636441      0.814507
    25     1      0.547433      0.989295      0.987016
    26     1      0.794969      0.239251      0.987368
    27     1      0.779895      0.410857      0.152270
    28     1      0.529462      0.160718      0.151676
    29     1      0.467183      0.016167      0.319816
    30     1      0.718241      0.266060      0.319891
    31     1      0.701007      0.443045      0.483140
    32     1      0.452223      0.194916      0.483852
    33     1      0.405347      0.041324      0.651368
    34     1      0.654060      0.290725      0.650804
    35     1      0.825376      0.394310      0.820719
    36     1      0.576829      0.146634      0.820923
    37     1      0.546914      0.488404      0.987049
    38     1      0.797815      0.739408      0.984779
    39     1      0.780475      0.910489      0.150623
    40     1      0.530045      0.660560      0.150762
    41     1      0.466313      0.517806      0.321157
    42     1      0.718105      0.765994      0.319182
    43     1      0.703691      0.946044      0.485014
    44     1      0.455223      0.697302      0.487059
    45     1      0.406156      0.543300      0.656840
    46     1      0.652138      0.792807      0.653570
    47     1      0.835435      0.898374      0.820589
    48     1      0.580406      0.648308      0.822755
ITEM: TIMESTEP
64450
ITEM: NUMBER OF ATOMS
48
ITEM: BOX BOUNDS xy xz yz  pp  pp  pp
     -0.003081      2.203080      0.000000
     -0.005336      3.815850      0.000000
     -0.007546      5.396420      0.000000
ITEM: ATOMS id type xs ys zs
     1     1      0.046767      0.990173      0.986518
     2     1      0.296210      0.238698      0.987413
     3     1      0.278491      0.412005      0.151661
     4     1      0.028763      0.161241      0.151719
     5     1      0.968804      0.015893      0.318817
     6     1      0.215980      0.267551      0.319879
     7     1      0.197226      0.451564      0.489660
     8     1      0.956097      0.194598      0.484709
     9     1      0.904057      0.042435      0.652300
    10     1      0.154811      0.290735      0.652682
    11     1      0.330773      0.393622      0.822649
    12     1      0.077566      0.146858      0.821098
    13     1      0.045476      0.489093      0.985683
    14     1      0.296655      0.737280      0.984620
    15     1      0.280253      0.909694      0.151213
    16     1      0.029431      0.661358      0.150762
    17     1      0.967416      0.516610      0.320122
    18     1      0.218042      0.765071      0.320067
    19     1      0.201667      0.943575      0.485048
    20     1      0.947922      0.696123      0.485181
    21     1      0.898627      0.539665      0.649975
    22     1      0.151214      0.792747      0.652665
    23     1      0.331564      0.897381      0.820957
    24     1      0.083997      0.640152      0.816684
    25     1      0.547935      0.989205      0.986729
    26     1      0.796054      0.239420      0.986949
    27     1      0.779004      0.411209      0.151950
    28     1      0.527758      0.160445      0.151947
    29     1      0.467244      0.016308      0.319751
    30     1      0.717743      0.265728      0.319928
    31     1      0.699702      0.443347      0.483259
    32     1      0.451256      0.194467      0.484125
    33     1      0.404407      0.042058      0.651898
    34     1      0.654914      0.289976      0.650864
    35     1      0.825717      0.395124      0.819952
    36     1      0.578040      0.146600      0.820856
    37     1      0.546645      0.488637      0.986250
    38     1      0.798109      0.739290      0.985629
    39     1      0.780012      0.911157      0.150780
    40     1      0.529269      0.660231      0.150728
    41     1      0.467292      0.517005      0.320594
    42     1      0.717999      0.766782      0.318831
    43     1      0.702014      0.945827      0.484908
    44     1      0.451897      0.696128      0.486396
    45     1      0.404092      0.542383      0.655461
    46     1      0.652931      0.791754      0.652922
    47     1      0.835201      0.896738      0.820122
    48     1      0.581440      0.648157      0.822321
ITEM: TIMESTEP
64500
ITEM: NUMBER OF ATOMS
48
ITEM: BOX BOUNDS xy xz yz  pp  pp  pp
     -0.003081      2.203080      0.000000
     -0.005336      3.815850      0.000000
     -0.007546      5.396420      0.000000
ITEM: ATOMS id type xs ys zs
     1     1      0.047227      0.990806      0.987002
     2     1      0.296167      0.238270      0.987226
     3     1      0.278479      0.411142      0.150893
     4     1      0.027986      0.161218      0.151350
     5     1      0.967742      0.015752      0.318375
     6     1      0.215304      0.268031      0.319324
     7     1      0.195736      0.450308      0.487904
     8     1      0.956486      0.194960      0.484859
     9     1      0.917736      0.041179      0.651404
    10     1      0.158471      0.289307      0.651996
    11     1      0.330905      0.394398      0.821872
    12     1      0.077110      0.147218      0.821381
    13     1      0.047942      0.489426      0.985335
    14     1      0.297272      0.738264      0.984747
    15     1      0.280357      0.910951      0.151389
    16     1      0.030653      0.660990      0.150919
    17     1      0.965357      0.517344      0.320806