ITEM: TIMESTEP
64001
ITEM: NUMBER OF ATOMS
48
ITEM: BOX BOUNDS xy xz yz  pp  pp  pp
     -0.003081      2.203080      0.000000
     -0.005336      3.815850      0.000000
     -0.007546      5.396420      0.000000
ITEM: ATOMS id type xs ys zs
     1     1      0.048924      0.988239      0.986947
     2     1      0.292896      0.237185      0.986225
     3     1      0.272440      0.408694      0.151631
     4     1      0.022506      0.159076      0.150366
     5     1      0.967372      0.015428      0.319169
     6     1      0.220371      0.262814      0.318833
     7     1      0.212075      0.443057      0.485136
     8     1      0.959107      0.195882      0.485114
     9     1      0.907610      0.044498      0.651759
    10     1      0.153668      0.294502      0.653531
    11     1      0.322572      0.400992      0.822818
    12     1      0.073882      0.149384      0.821727
    13     1      0.038930      0.487025      0.986991
    14     1      0.292338      0.735954      0.986929
    15     1      0.277809      0.908616      0.151236
    16     1      0.026354      0.657912      0.152797
    17     1      0.971994      0.513343      0.320723
    18     1      0.219258      0.764541      0.319806
    19     1      0.208835      0.943879      0.484302
    20     1      0.963777      0.693031      0.485682
    21     1      0.904490      0.544523      0.652579
    22     1      0.157976      0.794987      0.653226
    23     1      0.329364      0.899341      0.821743
    24     1      0.073580      0.649142      0.821763
    25     1      0.549077      0.987289      0.986097
    26     1      0.791267      0.238098      0.985446
    27     1      0.772662      0.409894      0.153233
    28     1      0.523887      0.159495      0.151462
    29     1      0.467886      0.015990      0.319835
    30     1      0.720421      0.265178      0.320133
    31     1      0.709756      0.444819      0.484646
    32     1      0.459053      0.193538      0.484328
    33     1      0.409227      0.042805      0.650924
    34     1      0.651960      0.294846      0.651216
    35     1      0.823370      0.399389      0.820406
    36     1      0.572286      0.150231      0.820096
    37     1      0.541558      0.488408      0.988050
    38     1      0.793858      0.738069      0.988939
    39     1      0.776672      0.908967      0.152385
    40     1      0.525816      0.659957      0.152729
    41     1      0.469577      0.513684      0.319567
    42     1      0.720769      0.764023      0.320668
    43     1      0.712218      0.943416      0.483912
    44     1      0.462099      0.694547      0.485149
    45     1      0.404504      0.544461      0.653252
    46     1      0.658438      0.793893      0.653079
    47     1      0.828707      0.898954      0.822437
    48     1      0.575824      0.649296      0.822913
ITEM: TIMESTEP
64050
ITEM: NUMBER OF ATOMS
48
ITEM: BOX BOUNDS xy xz yz  pp  pp  pp
     -0.003081      2.203080      0.000000
     -0.005336      3.815850      0.000000
     -0.007546      5.396420      0.000000
ITEM: ATOMS id type xs ys zs
     1     1      0.047359      0.988721      0.987215
     2     1      0.293763      0.237295      0.986189
     3     1      0.273773      0.409514      0.151219
     4     1      0.024365      0.159890      0.150802
     5     1      0.968374      0.015797      0.319710
     6     1      0.220656      0.263439      0.318793
     7     1      0.211968      0.442175      0.484775
     8     1      0.958118      0.195009      0.485129
     9     1      0.907174      0.043783      0.651861
    10     1      0.151940      0.294293      0.653255
    11     1      0.321245      0.401160      0.822858
    12     1      0.074067      0.150191      0.821200
    13     1      0.040210      0.487665      0.987066
    14     1      0.293732      0.737930      0.986807
    15     1      0.277514      0.908587      0.151226
    16     1      0.027355      0.659257      0.152669
    17     1      0.971228      0.513557      0.320772
    18     1      0.222015      0.765443      0.320203
    19     1      0.208324      0.943523      0.484597
    20     1      0.960987      0.692096      0.485487
    21     1      0.904493      0.544216      0.652241
    22     1      0.156837      0.794572      0.652738
    23     1      0.327573      0.899650      0.822107
    24     1      0.072556      0.649937      0.821681
    25     1      0.548098      0.987507      0.986513
    26     1      0.792752      0.238465      0.985602
    27     1      0.773615      0.409744      0.152546
    28     1      0.524694      0.159639      0.151662
    29     1      0.468436      0.015059      0.319009
    30     1      0.721272      0.264240      0.319778
    31     1      0.709592      0.443559      0.484753
    32     1      0.458954      0.192412      0.484681
    33     1      0.408058      0.042625      0.651060
    34     1      0.652090      0.294313      0.651659
    35     1      0.821336      0.400462      0.820283
    36     1      0.572893      0.150532      0.820357
    37     1      0.541244      0.488052      0.988031
    38     1      0.793314      0.738077      0.988270
    39     1      0.777416      0.909309      0.151907
    40     1      0.525781      0.659865      0.152490
    41     1      0.470549      0.514293      0.319827
    42     1      0.721157      0.763661      0.320564
    43     1      0.711102      0.942836      0.484276
    44     1      0.460326      0.693429      0.484755
    45     1      0.403999      0.544102      0.652965
    46     1      0.657657      0.793764      0.653014
    47     1      0.827719      0.900110      0.822184
    48     1      0.575187      0.649675      0.821800
ITEM: TIMESTEP
64100
ITEM: NUMBER OF ATOMS
48
ITEM: BOX BOUNDS xy xz yz  pp  pp  pp
     -0.003081      2.203080      0.000000
     -0.005336      3.815850      0.000000
     -0.007546      5.396420      0.000000
ITEM: ATOMS id type xs ys zs
     1     1      0.045587      0.988619      0.986794
     2     1      0.294401      0.237410      0.986266
     3     1      0.273741      0.410408      0.150920
     4     1      0.025354      0.159550      0.150982
     5     1      0.969952      0.015467      0.319958
     6     1      0.219901      0.263860      0.319797
     7     1      0.210214      0.441872      0.484948
     8     1      0.916253      0.216071      0.501807
     9     1      0.906982      0.041931      0.652741
    10     1      0.161678      0.293070      0.654935
    11     1      0.335825      0.401206      0.823043
    12     1      0.083833      0.140195      0.821834
    13     1      0.039075      0.487731      0.985425
    14     1      0.293720      0.738354      0.986895
    15     1      0.277015      0.910425      0.151357
    16     1      0.027378      0.660009      0.152426
    17     1      0.972411      0.514005      0.320243
    18     1      0.222601      0.766028      0.319961
    19     1      0.206090      0.943704      0.485009
    20     1      0.959931      0.692284      0.484919
    21     1      0.903204      0.544077      0.651146
    22     1      0.157552      0.793208      0.652380
    23     1      0.327546      0.898627      0.821380
    24     1      0.071691      0.649459      0.821263
    25     1      0.546446      0.988442      0.986515
    26     1      0.793363      0.239191      0.985157
    27     1      0.774860      0.408868      0.152344
    28     1      0.526088      0.160034      0.151785
    29     1      0.470217      0.014185      0.319226
    30     1      0.722001      0.264084      0.320992
    31     1      0.700469      0.452907      0.483627
    32     1      0.444971      0.191381      0.483845
    33     1      0.408392      0.042192      0.651330
    34     1      0.638391      0.294106      0.650842
    35     1      0.868284      0.377850      0.804132
    36     1      0.573251      0.149920      0.820401
    37     1      0.542154      0.489039      0.987646
    38     1      0.793428      0.738744      0.987613
    39     1      0.779126      0.909698      0.151639
    40     1      0.527235      0.661616      0.152594
    41     1      0.470546      0.515067      0.318275
    42     1      0.723140      0.764374      0.320266
    43     1      0.709206      0.943360      0.484631
    44     1      0.458239      0.693683      0.485322
    45     1      0.402716      0.542627      0.652889
    46     1      0.657871      0.792696      0.652985
    47     1      0.824257      0.900392      0.821826
    48     1      0.575899      0.648453      0.821520
ITEM: TIMESTEP
64150
ITEM: NUMBER OF ATOMS
48
ITEM: BOX BOUNDS xy xz yz  pp  pp  pp
     -0.003081      2.203080      0.000000
     -0.005336      3.815850      0.000000
     -0.007546      5.396420      0.000000
ITEM: ATOMS id type xs ys zs
     1     1      0.045326      0.987956      0.987523
     2     1      0.294029      0.237136      0.986531
     3     1      0.273041      0.410617      0.150838
     4     1      0.026316      0.160014      0.151330
     5     1      0.969552      0.015418      0.320209
     6     1      0.218141      0.263908      0.319282
     7     1      0.207090      0.442078      0.484905
     8     1      0.928048      0.207711      0.495930
     9     1      0.906006      0.041969      0.653197
    10     1      0.157814      0.293139      0.655932
    11     1      0.340057      0.399408      0.822483
    12     1      0.085109      0.140825      0.822082
    13     1      0.040532      0.488136      0.984419
    14     1      0.292678      0.738433      0.986683
    15     1      0.277623      0.910785      0.151253
    16     1      0.027722      0.660540      0.152125
    17     1      0.971512      0.514676      0.320169
    18     1      0.221792      0.765917      0.319906
    19     1      0.204054      0.943287      0.485520
    20     1      0.960035      0.693107      0.484750
    21     1      0.904155      0.543407      0.650694
    22     1      0.158811      0.793075      0.652249
    23     1      0.329039      0.897266      0.821335
    24     1      0.074908      0.648373      0.820886
    25     1      0.545923      0.989215      0.986848
    26     1      0.795133      0.239699      0.984286
    27     1      0.775506      0.409781      0.152102
    28     1      0.527630      0.160125      0.151432
    29     1      0.470324      0.013029      0.319291
    30     1      0.721237      0.264024      0.320956
    31     1      0.699239      0.451407      0.484471
    32     1      0.441386      0.192091      0.484063
    33     1      0.406312      0.041667      0.651581
    34     1      0.642410      0.293582      0.650108
    35     1      0.857091      0.385317      0.811557
    36     1      0.576296      0.149045      0.820289
    37     1      0.541687      0.489876      0.988209
    38     1      0.794202      0.738972      0.987148
    39     1      0.778385      0.910174      0.151685
    40     1      0.528169      0.661847      0.151787
    41     1      0.469258      0.514300      0.317859
    42     1      0.723347      0.763453      0.319749
    43     1      0.708451      0.944075      0.484646
    44     1      0.456801      0.694648      0.485249
    45     1      0.402546      0.543395      0.652699
    46     1      0.657969      0.792680      0.653034
    47     1      0.826365      0.898946      0.822079
    48     1      0.578490      0.646828      0.821465
ITEM: TIMESTEP
64200
ITEM: NUMBER OF ATOMS
48
ITEM: BOX BOUNDS xy xz yz  pp  pp  pp
     -0.003081      2.203080      0.000000
     -0.005336      3.815850      0.000000
     -0.007546      5.396420      0.000000
ITEM: ATOMS id type xs ys zs
     1     1      0.044325      0.988437      0.987316
     2     1      0.296297      0.238841      0.985623
     3     1      0.273518      0.410827      0.151262
     4     1      0.027289      0.160532      0.151520
     5     1      0.968885      0.015185      0.320505
     6     1      0.217954      0.264919      0.319669
     7     1      0.203169      0.441704      0.485238
     8     1      0.933441      0.202022      0.491099
     9     1      0.905289      0.041347      0.653070
    10     1      0.151019      0.289752      0.652298
    11     1      0.345802      0.397848      0.810021
    12     1      0.084315      0.143040      0.821626
    13     1      0.042476      0.487407      0.984217
    14     1      0.293881      0.738621      0.986388
    15     1      0.278594      0.911356      0.151465
    16     1      0.027361      0.660638      0.151515
    17     1      0.969731      0.515205      0.320863
    18     1      0.221276      0.766076      0.319482
    19     1      0.204193      0.944162      0.485086
    20     1      0.958578      0.693936      0.485667
    21     1      0.910528      0.544210      0.654940
    22     1      0.159080      0.793166      0.652152
    23     1      0.328403      0.896786      0.821180
    24     1      0.076627      0.648363      0.821146
    25     1      0.545522      0.989417      0.986459
    26     1      0.795100      0.240052      0.984815
    27     1      0.775740      0.410146      0.152256
    28     1      0.526879      0.161132      0.151686
    29     1      0.468667      0.013408      0.319528
    30     1      0.719048      0.264401      0.321580
    31     1      0.693931      0.449853      0.497957
    32     1      0.441271      0.192187      0.484764
    33     1      0.405225      0.041459      0.651990
    34     1      0.643959      0.289136      0.653689
    35     1      0.850419      0.389346      0.814534
    36     1      0.577994      0.147909      0.820750
    37     1      0.542496      0.488792      0.985934
    38     1      0.793085      0.738992      0.986797
    39     1      0.778660      0.910637      0.151946
    40     1      0.527971      0.661399      0.151802
    41     1      0.471499      0.513952      0.320137
    42     1      0.722146      0.764217      0.319522
    43     1      0.706147      0.943950      0.484836
    44     1      0.456803      0.695904      0.484584
    45     1      0.404544      0.546598      0.649268
    46     1      0.657857      0.792882      0.652413
    47     1      0.826140      0.898218      0.822490
    48     1      0.578838      0.648077      0.821165
ITEM: TIMESTEP
64250
ITEM: NUMBER OF ATOMS
48
ITEM: BOX BOUNDS xy xz yz  pp  pp  pp
     -0.003081      2.203080      0.000000
     -0.005336      3.815850      0.000000
     -0.007546      5.396420      0.000000
ITEM: ATOMS id type xs ys zs
     1     1      0.044504      0.988623      0.987423
     2     1      0.296468      0.240210      0.985654
     3     1      0.274943      0.410657      0.151160
     4     1      0.026559      0.160659      0.151421
     5     1      0.968328      0.015361      0.320316
     6     1      0.216460      0.265334      0.320133
     7     1      0.196088      0.469103      0.502960
     8     1      0.938952      0.199584      0.489196
     9     1      0.905061      0.041403      0.652792
    10     1      0.151038      0.289694      0.652160
    11     1      0.348039      0.393666      0.814820
    12     1      0.085002      0.144046      0.821588
    13     1      0.043496      0.488915      0.984760
    14     1      0.292992      0.739124      0.985854
    15     1      0.279488      0.912013      0.151338
    16     1      0.026485      0.660743      0.151744
    17     1      0.970622      0.514729      0.321307
    18     1      0.220866      0.765714      0.319593
    19     1      0.203013      0.944117      0.484591
    20     1      0.952765      0.697354      0.484370
    21     1      0.898242      0.540453      0.648166
    22     1      0.158075      0.792665      0.651548
    23     1      0.327412      0.896202      0.821129
    24     1      0.089920      0.621794      0.804530
    25     1      0.545962      0.989876      0.986592
    26     1      0.797216      0.239675      0.985568
    27     1      0.774754      0.411014      0.151866
    28     1      0.528756      0.161188      0.152123
    29     1      0.469959      0.014351      0.319354
    30     1      0.717260      0.264717      0.321554
    31     1      0.693488      0.447451      0.491308
    32     1      0.441176      0.193111      0.485347
    33     1      0.406099      0.041248      0.652737
    34     1      0.645991      0.289998      0.652639
    35     1      0.844106      0.389048      0.816848
    36     1      0.579555      0.146306      0.820576
    37     1      0.543989      0.489321      0.985581
    38     1      0.793518      0.738580      0.987143
    39     1      0.778602      0.910980      0.151661
    40     1      0.527440      0.661141      0.151617
    41     1      0.470346      0.513917      0.321262
    42     1      0.721093      0.764935      0.319509
    43     1      0.705815      0.943720      0.485048
    44     1      0.458313      0.697600      0.484055
    45     1      0.415435      0.548540      0.655303
    46     1      0.658723      0.792583      0.652010
    47     1      0.827360      0.897242      0.822389
    48     1      0.582129      0.647499      0.820908
ITEM: TIMESTEP
64300
ITEM: NUMBER OF ATOMS
48
ITEM: BOX BOUNDS xy xz yz  pp  pp  pp
     -0.003081      2.203080      0.000000
     -0.005336      3.815850      0.000000
     -0.007546      5.396420      0.000000
ITEM: ATOMS id type xs ys zs
     1     1      0.044634      0.989932      0.987059
     2     1      0.297978      0.240411      0.985789
     3     1      0.275933      0.410629      0.151292
     4     1      0.027032      0.161321      0.151399
     5     1      0.968225      0.016155      0.319769
     6     1      0.215390      0.266757      0.320053
     7     1      0.194064      0.458271      0.494912
     8     1      0.941483      0.199080      0.488142
     9     1      0.904452      0.041322      0.653110
    10     1      0.151948      0.289527      0.653394
    11     1      0.347655      0.391838      0.817465
    12     1      0.084334      0.144045      0.821215
    13     1      0.043554      0.489771      0.984835
    14     1      0.290833      0.738366      0.984798
    15     1      0.279582      0.910808      0.151189
    16     1      0.026446      0.660539      0.152160
    17     1      0.969659      0.515040      0.322260
    18     1      0.219723      0.765716      0.319385
    19     1      0.204605      0.944603      0.484594
    20     1      0.950624      0.699174      0.484273
    21     1      0.899801      0.540358      0.648537
    22     1      0.157522      0.792089      0.650936
    23     1      0.327096      0.895109      0.820912
    24     1      0.092039      0.632928      0.811985
    25     1      0.545253      0.989232      0.986035
    26     1      0.797637      0.239757      0.986114
    27     1      0.775291      0.411264      0.152342
    28     1      0.527790      0.161992      0.151860
    29     1      0.469271      0.015386      0.319177
    30     1      0.716213      0.265656      0.321113
    31     1      0.690422      0.445776      0.487540
    32     1      0.441543      0.194893      0.485868
    33     1      0.404842      0.040491      0.652534
    34     1      0.646342      0.290328      0.651866
    35     1      0.841837      0.390144      0.816972
    36     1      0.581142      0.144824      0.820455
    37     1      0.545309      0.489872      0.986062
    38     1      0.794296      0.739424      0.986767
    39     1      0.779135      0.911433      0.151891
    40     1      0.526751      0.661418      0.151371
    41     1      0.468417      0.514393      0.320816
    42     1      0.720692      0.765064      0.318490
    43     1      0.703292      0.945513      0.485110
    44     1      0.455839      0.697825      0.484603
    45     1      0.412539      0.547739      0.655268
    46     1      0.659807      0.792064      0.652272
    47     1      0.828714      0.895779      0.821446
    48     1      0.586948      0.647464      0.821747
ITEM: TIMESTEP
64350
ITEM: NUMBER OF ATOMS
48
ITEM: BOX BOUNDS xy xz yz  pp  pp  pp
     -0.003081      2.203080      0.000000
     -0.005336      3.815850      0.000000
     -0.007546      5.396420      0.000000
ITEM: ATOMS id type xs ys zs
     1     1      0.047337      0.990247      0.986801
     2     1      0.297108      0.240532      0.985930
     3     1      0.277289      0.410940      0.150844
     4     1      0.027003      0.162195      0.151907
     5     1      0.969276      0.016931      0.319853
     6     1      0.215504      0.267082      0.320235
     7     1      0.194134      0.453168      0.491761
     8     1      0.943786      0.198339      0.487127
     9     1      0.905443      0.041755      0.652708
    10     1      0.152386      0.289850      0.653481
    11     1      0.345720      0.392963      0.818559
    12     1      0.084494      0.144822      0.821453
    13     1      0.044422      0.488284      0.985024
    14     1      0.292329      0.738442      0.985026
    15     1      0.279000      0.911632      0.151722
    16     1      0.027064      0.660627      0.152383
    17     1      0.968522      0.514956      0.322702
    18     1      0.220061      0.766467      0.319729
    19     1      0.202712      0.945336      0.484252
    20     1      0.947810      0.698066      0.484950
    21     1      0.902605      0.540570      0.648839
    22     1      0.155432      0.791450      0.650893
    23     1      0.328143      0.894791      0.821140
    24     1      0.092800      0.637793      0.815023
    25     1      0.545157      0.989121      0.986147
    26     1      0.796701      0.240163      0.985889
    27     1      0.776384      0.411020      0.152116
    28     1      0.527163      0.161350      0.151752
    29     1      0.468722      0.015911      0.319792
    30     1      0.715388      0.266431      0.320317
    31     1      0.690904      0.445123      0.486443
    32     1      0.442377      0.194134      0.485345
    33     1      0.405455      0.040294      0.652708
    34     1      0.648390      0.290105      0.652089
    35     1      0.840524      0.391916      0.817433
    36     1      0.582797      0.144426      0.820697
    37     1      0.544913      0.489884      0.986242
    38     1      0.794172      0.740474      0.987654
    39     1      0.778400      0.912258      0.151678
    40     1      0.527081      0.660621      0.151500
    41     1      0.466404      0.515563      0.319887
    42     1      0.720423      0.765389      0.318162
    43     1      0.702135      0.946216      0.485165
    44     1      0.452438      0.697487      0.485455
    45     1      0.409657      0.545111      0.654538
    46     1      0.658861      0.791251      0.652505
    47     1      0.831499      0.895594      0.820910
    48     1      0.589022      0.646682      0.821996
ITEM: TIMESTEP
64400
ITEM: NUMBER OF ATOMS
48
ITEM: BOX BOUNDS xy xz yz  pp  pp  pp
     -0.003081      2.203080      0.000000
     -0.005336      3.815850      0.000000
     -0.007546      5.396420      0.000000
ITEM: ATOMS id type xs ys zs
     1     1      0.047727      0.989626      0.986405
     2     1      0.297940      0.240307      0.985935
     3     1      0.277894      0.411868      0.151211
     4     1      0.027735      0.161967      0.151467
     5     1      0.968650      0.017376      0.319746
     6     1      0.215733      0.267604      0.320297
     7     1      0.193254      0.450379      0.489236
     8     1      0.944521      0.197807      0.486568
     9     1      0.906412      0.040740      0.652095
    10     1      0.152793      0.290648      0.653177
    11     1      0.344390      0.393216      0.819029
    12     1      0.084589      0.145020      0.820676
    13     1      0.044179      0.489208      0.985350
    14     1      0.292261      0.737941      0.985546
    15     1      0.278733      0.910926      0.151468
    16     1      0.027739      0.660688      0.152465
    17     1      0.967065      0.515839      0.322133
    18     1      0.217279      0.766634      0.320256
    19     1      0.200458      0.945379      0.484526
    20     1      0.945736      0.697119      0.485136
    21     1      0.905019      0.540622      0.649533
    22     1      0.154680      0.792089      0.651109
    23     1      0.330503      0.894552      0.821178
    24     1      0.092473      0.640376      0.816590
    25     1      0.545092      0.989938      0.985903
    26     1      0.795733      0.239811      0.985752
    27     1      0.777431      0.411610      0.152328
    28     1      0.528014      0.161832      0.151375
    29     1      0.466766      0.016910      0.319682
    30     1      0.715710      0.266661      0.320582
    31     1      0.690322      0.445223      0.486271
    32     1      0.443388      0.195091      0.485649
    33     1      0.405354      0.040915      0.652367
    34     1      0.649688      0.289991      0.651779
    35     1      0.840483      0.392471      0.817940
    36     1      0.583079      0.144175      0.820835
    37     1      0.545219      0.490645      0.986311
    38     1      0.794129      0.740611      0.987670
    39     1      0.779691      0.912398      0.151308
    40     1      0.526995      0.660912      0.151980
    41     1      0.466467      0.516300      0.320256
    42     1      0.718688      0.765734      0.318592
    43     1      0.700800      0.945729      0.484918
    44     1      0.449984      0.696864      0.485403
    45     1      0.407927      0.544350      0.654162
    46     1      0.658098      0.791891      0.651683
    47     1      0.832753      0.895227      0.821206
    48     1      0.590153      0.645956      0.821544
ITEM: TIMESTEP
64450
ITEM: NUMBER OF ATOMS
48
ITEM: BOX BOUNDS xy xz yz  pp  pp  pp
     -0.003081      2.203080      0.000000
     -0.005336      3.815850      0.000000
     -0.007546      5.396420      0.000000
ITEM: ATOMS id type xs ys zs
     1     1      0.047389      0.989535      0.985647
     2     1      0.297170      0.240448      0.985879
     3     1      0.277914      0.411787      0.150834
     4     1      0.028035      0.162043      0.151409
     5     1      0.967336      0.017056      0.320653
     6     1      0.215613      0.268477      0.320359
     7     1      0.192738      0.448364      0.488149
     8     1      0.942977      0.197885      0.485826
     9     1      0.901334      0.047422      0.650775
    10     1      0.152923      0.291476      0.652825
    11     1      0.342527      0.393762      0.819165
    12     1      0.085980      0.145742      0.820759
    13     1      0.044520      0.489318      0.985705
    14     1      0.293943      0.738629      0.985526
    15     1      0.278701      0.911100      0.151633
    16     1      0.027994      0.661064      0.152054
    17     1      0.965759      0.516622      0.321046
    18     1      0.215841      0.766486      0.320008
    19     1      0.148251      0.947279      0.504927
    20     1      0.946015      0.695650      0.485278
    21     1      0.906131      0.540293      0.650220
    22     1      0.158060      0.786423      0.653440
    23     1      0.342932      0.895025      0.821102
    24     1      0.092298      0.640645      0.817828
    25     1      0.545572      0.989602      0.985894
    26     1      0.796723      0.239788      0.985638
    27     1      0.777632      0.412011      0.152763
    28     1      0.527138      0.162064      0.151205
    29     1      0.466295      0.016705      0.319569
    30     1      0.716426      0.266206      0.320022
    31     1      0.692238      0.445473      0.486258
    32     1      0.443006      0.193608      0.486222
    33     1      0.406341      0.040543      0.653016
    34     1      0.650557      0.290904      0.651926
    35     1      0.840308      0.393786      0.818468
    36     1      0.585864      0.143654      0.821131
    37     1      0.546733      0.489903      0.986430
    38     1      0.795662      0.741750      0.986091
    39     1      0.779040      0.911251      0.151361
    40     1      0.526687      0.661672      0.151401
    41     1      0.465921      0.516257      0.320303
    42     1      0.716921      0.765417      0.319048
    43     1      0.688342      0.945378      0.483671
    44     1      0.448283      0.697256      0.485812
    45     1      0.408618      0.542396      0.653192
    46     1      0.655658      0.790812      0.650641
    47     1      0.886419      0.891644      0.800524
    48     1      0.591322      0.646265      0.820832
ITEM: TIMESTEP
64500
ITEM: NUMBER OF ATOMS
48
ITEM: BOX BOUNDS xy xz yz  pp  pp  pp
     -0.003081      2.203080      0.000000
     -0.005336      3.815850      0.000000
     -0.007546      5.396420      0.000000
ITEM: ATOMS id type xs ys zs
     1     1      0.046279      0.989341      0.984975
     2     1      0.296991      0.240278      0.986315
     3     1      0.278732      0.411894      0.150896
     4     1      0.028967      0.161740      0.151096
     5     1      0.966077      0.016806      0.321585
     6     1      0.214529      0.268297      0.320238
     7     1      0.194455      0.447190      0.487372
     8     1      0.942776      0.198927      0.485518
     9     1      0.900220      0.047631      0.650141
    10     1      0.154877      0.291083      0.652646
    11     1      0.343535      0.393284      0.819563
    12     1      0.087567      0.145903      0.820447
    13     1      0.045169      0.489856      0.985917
    14     1      0.294350      0.739466      0.985105
    15     1      0.277167      0.912371      0.151104
    16     1      0.027605      0.660767      0.151322
    17     1      0.965738      0.516674      0.320939