ITEM: TIMESTEP
64001
ITEM: NUMBER OF ATOMS
48
ITEM: BOX BOUNDS xy xz yz  pp  pp  pp
     -0.003081      2.203080      0.000000
     -0.005336      3.815850      0.000000
     -0.007546      5.396420      0.000000
ITEM: ATOMS id type xs ys zs
     1     1      0.049017      0.988006      0.986984
     2     1      0.293007      0.237303      0.986090
     3     1      0.272552      0.408553      0.151606
     4     1      0.022268      0.159280      0.150385
     5     1      0.967525      0.015550      0.319063
     6     1      0.220157      0.262756      0.318826
     7     1      0.212255      0.443025      0.485091
     8     1      0.958995      0.195810      0.485113
     9     1      0.907671      0.044624      0.651658
    10     1      0.153683      0.294600      0.653543
    11     1      0.322666      0.400785      0.822834
    12     1      0.073622      0.149414      0.821800
    13     1      0.038789      0.487172      0.986987
    14     1      0.292276      0.735946      0.986964
    15     1      0.278167      0.908867      0.151216
    16     1      0.026274      0.658041      0.152779
    17     1      0.972111      0.513482      0.320723
    18     1      0.219465      0.764667      0.319677
    19     1      0.208799      0.943927      0.484343
    20     1      0.963653      0.692843      0.485661
    21     1      0.904689      0.544248      0.652604
    22     1      0.157543      0.794760      0.653369
    23     1      0.329380      0.899514      0.821647
    24     1      0.073655      0.649116      0.821676
    25     1      0.549273      0.987376      0.986274
    26     1      0.791336      0.237884      0.985385
    27     1      0.772892      0.410014      0.153210
    28     1      0.523853      0.159524      0.151431
    29     1      0.467975      0.015868      0.319822
    30     1      0.720637      0.264900      0.320167
    31     1      0.709833      0.444969      0.484631
    32     1      0.459357      0.193580      0.484195
    33     1      0.409015      0.042710      0.651003
    34     1      0.651999      0.294818      0.651316
    35     1      0.823533      0.399306      0.820434
    36     1      0.572558      0.150253      0.820131
    37     1      0.542004      0.488377      0.988007
    38     1      0.793793      0.737923      0.988979
    39     1      0.776349      0.909189      0.152481
    40     1      0.525731      0.659833      0.152851
    41     1      0.469701      0.513572      0.319471
    42     1      0.720793      0.764133      0.320498
    43     1      0.712095      0.943344      0.483901
    44     1      0.462233      0.694491      0.485185
    45     1      0.404598      0.544555      0.653217
    46     1      0.658495      0.793941      0.653167
    47     1      0.828757      0.898753      0.822466
    48     1      0.575764      0.649337      0.822854
ITEM: TIMESTEP
64050
ITEM: NUMBER OF ATOMS
48
ITEM: BOX BOUNDS xy xz yz  pp  pp  pp
     -0.003081      2.203080      0.000000
     -0.005336      3.815850      0.000000
     -0.007546      5.396420      0.000000
ITEM: ATOMS id type xs ys zs
     1     1      0.048800      0.988765      0.986715
     2     1      0.293282      0.237911      0.986541
     3     1      0.274216      0.408798      0.151357
     4     1      0.022819      0.159489      0.150829
     5     1      0.967844      0.015570      0.319217
     6     1      0.219249      0.263580      0.318979
     7     1      0.211104      0.442465      0.485377
     8     1      0.959048      0.194177      0.485148
     9     1      0.907522      0.043659      0.651821
    10     1      0.152788      0.293615      0.653471
    11     1      0.321617      0.400401      0.822166
    12     1      0.073063      0.149474      0.821880
    13     1      0.041116      0.488387      0.986667
    14     1      0.293168      0.737772      0.986826
    15     1      0.277088      0.909927      0.151805
    16     1      0.026769      0.659066      0.152856
    17     1      0.972228      0.514100      0.320644
    18     1      0.221329      0.764991      0.320175
    19     1      0.210101      0.942630      0.483649
    20     1      0.961856      0.692050      0.485589
    21     1      0.903981      0.543561      0.652537
    22     1      0.156965      0.794165      0.653074
    23     1      0.328296      0.898917      0.821905
    24     1      0.075177      0.649586      0.821250
    25     1      0.549119      0.988809      0.986288
    26     1      0.792558      0.238618      0.986139
    27     1      0.773787      0.410071      0.152639
    28     1      0.524392      0.159747      0.151760
    29     1      0.468195      0.015132      0.319495
    30     1      0.720630      0.264646      0.320354
    31     1      0.709352      0.444089      0.484003
    32     1      0.458722      0.194039      0.483988
    33     1      0.408711      0.043124      0.651061
    34     1      0.652198      0.294307      0.651289
    35     1      0.823830      0.398889      0.820692
    36     1      0.572737      0.149587      0.819961
    37     1      0.542169      0.488627      0.987641
    38     1      0.795290      0.738254      0.988107
    39     1      0.776593      0.909672      0.152175
    40     1      0.525753      0.659870      0.152235
    41     1      0.469991      0.513879      0.319494
    42     1      0.721780      0.763793      0.320311
    43     1      0.711169      0.942926      0.484425
    44     1      0.462541      0.692568      0.484549
    45     1      0.403962      0.544529      0.653224
    46     1      0.659052      0.793108      0.652965
    47     1      0.826799      0.899372      0.822316
    48     1      0.574824      0.650603      0.822500
ITEM: TIMESTEP
64100
ITEM: NUMBER OF ATOMS
48
ITEM: BOX BOUNDS xy xz yz  pp  pp  pp
     -0.003081      2.203080      0.000000
     -0.005336      3.815850      0.000000
     -0.007546      5.396420      0.000000
ITEM: ATOMS id type xs ys zs
     1     1      0.048452      0.988160      0.986828
     2     1      0.294225      0.239070      0.986804
     3     1      0.273477      0.409111      0.151363
     4     1      0.021742      0.159528      0.150995
     5     1      0.968773      0.014960      0.319278
     6     1      0.220029      0.263639      0.318865
     7     1      0.211164      0.442126      0.485651
     8     1      0.958956      0.192296      0.484501
     9     1      0.907630      0.042849      0.651798
    10     1      0.152114      0.293014      0.653383
    11     1      0.321563      0.400174      0.821725
    12     1      0.072336      0.149735      0.821730
    13     1      0.041351      0.488700      0.986633
    14     1      0.294016      0.738286      0.986733
    15     1      0.278156      0.910372      0.151484
    16     1      0.026892      0.660277      0.152465
    17     1      0.971547      0.514327      0.320763
    18     1      0.222163      0.764132      0.319918
    19     1      0.209557      0.942177      0.484228
    20     1      0.960633      0.692090      0.485216
    21     1      0.903807      0.543575      0.652354
    22     1      0.157609      0.793866      0.652955
    23     1      0.325464      0.899531      0.821934
    24     1      0.074955      0.649671      0.820965
    25     1      0.548606      0.989216      0.986090
    26     1      0.793874      0.238366      0.986280
    27     1      0.775736      0.410686      0.152924
    28     1      0.523963      0.160136      0.151580
    29     1      0.468813      0.014615      0.319535
    30     1      0.720333      0.264103      0.319791
    31     1      0.709019      0.442506      0.484834
    32     1      0.458519      0.192977      0.484034
    33     1      0.408371      0.042814      0.651321
    34     1      0.653338      0.294071      0.651333
    35     1      0.822812      0.399723      0.820629
    36     1      0.572381      0.150559      0.821047
    37     1      0.542935      0.489060      0.987566
    38     1      0.794594      0.737984      0.987599
    39     1      0.776260      0.910476      0.151792
    40     1      0.527198      0.659922      0.152116
    41     1      0.470041      0.513483      0.319161
    42     1      0.723771      0.763786      0.319527
    43     1      0.709891      0.942544      0.484157
    44     1      0.461106      0.692758      0.484831
    45     1      0.403560      0.544761      0.653247
    46     1      0.658653      0.792894      0.652689
    47     1      0.825926      0.899277      0.822046
    48     1      0.574657      0.649967      0.822052
ITEM: TIMESTEP
64150
ITEM: NUMBER OF ATOMS
48
ITEM: BOX BOUNDS xy xz yz  pp  pp  pp
     -0.003081      2.203080      0.000000
     -0.005336      3.815850      0.000000
     -0.007546      5.396420      0.000000
ITEM: ATOMS id type xs ys zs
     1     1      0.047952      0.988431      0.986850
     2     1      0.295443      0.238971      0.986577
     3     1      0.274973      0.409648      0.151566
     4     1      0.023535      0.160354      0.151447
     5     1      0.970232      0.014106      0.318955
     6     1      0.219808      0.263819      0.319193
     7     1      0.209242      0.442084      0.485947
     8     1      0.959459      0.192128      0.484521
     9     1      0.907021      0.042347      0.652284
    10     1      0.152973      0.293094      0.653558
    11     1      0.322523      0.400484      0.822230
    12     1      0.072453      0.150027      0.821834
    13     1      0.042875      0.488915      0.986422
    14     1      0.295502      0.738788      0.987473
    15     1      0.278585      0.910469      0.151852
    16     1      0.027356      0.660554      0.152257
    17     1      0.971334      0.514798      0.320590
    18     1      0.221935      0.763705      0.319310
    19     1      0.208809      0.941337      0.484293
    20     1      0.961201      0.691879      0.484893
    21     1      0.904251      0.542796      0.652489
    22     1      0.159100      0.793670      0.652561
    23     1      0.325456      0.900188      0.821685
    24     1      0.073819      0.650286      0.821580
    25     1      0.550073      0.989696      0.985732
    26     1      0.794091      0.239492      0.986003
    27     1      0.774397      0.411115      0.152696
    28     1      0.524919      0.160434      0.151148
    29     1      0.470473      0.015272      0.319413
    30     1      0.720543      0.264392      0.319937
    31     1      0.709524      0.442205      0.484486
    32     1      0.457405      0.191687      0.483653
    33     1      0.409169      0.042667      0.651537
    34     1      0.653867      0.293415      0.651423
    35     1      0.821960      0.400364      0.820953
    36     1      0.571706      0.149997      0.820986
    37     1      0.544137      0.489705      0.987082
    38     1      0.795400      0.738250      0.987121
    39     1      0.777854      0.910743      0.151442
    40     1      0.528369      0.660443      0.151698
    41     1      0.470466      0.513467      0.319278
    42     1      0.721088      0.764219      0.319161
    43     1      0.710488      0.941831      0.484358
    44     1      0.459338      0.691591      0.484322
    45     1      0.404116      0.543905      0.653305
    46     1      0.659291      0.792501      0.652490
    47     1      0.826361      0.900025      0.821626
    48     1      0.573694      0.650154      0.821964
ITEM: TIMESTEP
64200
ITEM: NUMBER OF ATOMS
48
ITEM: BOX BOUNDS xy xz yz  pp  pp  pp
     -0.003081      2.203080      0.000000
     -0.005336      3.815850      0.000000
     -0.007546      5.396420      0.000000
ITEM: ATOMS id type xs ys zs
     1     1      0.047179      0.988866      0.986956
     2     1      0.296033      0.239586      0.986318
     3     1      0.275780      0.410784      0.151539
     4     1      0.024718      0.159832      0.151157
     5     1      0.969225      0.013199      0.319310
     6     1      0.218461      0.264280      0.318856
     7     1      0.210853      0.440937      0.485866
     8     1      0.959001      0.191670      0.484543
     9     1      0.906618      0.041508      0.651998
    10     1      0.153414      0.292395      0.652817
    11     1      0.322269      0.400444      0.821619
    12     1      0.071775      0.149476      0.822461
    13     1      0.043064      0.489265      0.986024
    14     1      0.294703      0.739023      0.987318
    15     1      0.278302      0.910457      0.151495
    16     1      0.028595      0.659639      0.151402
    17     1      0.971477      0.515307      0.320622
    18     1      0.221955      0.763781      0.319085
    19     1      0.210730      0.941609      0.484382
    20     1      0.960680      0.691565      0.484796
    21     1      0.904331      0.542540      0.652146
    22     1      0.159091      0.793312      0.652384
    23     1      0.324785      0.900241      0.821483
    24     1      0.074233      0.650827      0.821479
    25     1      0.546925      0.989470      0.985417
    26     1      0.793966      0.239441      0.985857
    27     1      0.774486      0.410832      0.151872
    28     1      0.525215      0.160536      0.151524
    29     1      0.471245      0.014588      0.319460
    30     1      0.720416      0.263981      0.319734
    31     1      0.711203      0.441331      0.484034
    32     1      0.457309      0.191186      0.483821
    33     1      0.407911      0.042094      0.651834
    34     1      0.654679      0.292601      0.651336
    35     1      0.821591      0.400483      0.820116
    36     1      0.571802      0.150601      0.820578
    37     1      0.543894      0.490334      0.986767
    38     1      0.795955      0.739320      0.986856
    39     1      0.777919      0.910483      0.151134
    40     1      0.527887      0.659926      0.151472
    41     1      0.470544      0.513755      0.319320
    42     1      0.721905      0.764403      0.318535
    43     1      0.711665      0.940826      0.484947
    44     1      0.460214      0.691539      0.484402
    45     1      0.403668      0.542911      0.652727
    46     1      0.657776      0.792426      0.652505
    47     1      0.825029      0.900553      0.821223
    48     1      0.572813      0.650935      0.821552
ITEM: TIMESTEP
64250
ITEM: NUMBER OF ATOMS
48
ITEM: BOX BOUNDS xy xz yz  pp  pp  pp
     -0.003081      2.203080      0.000000
     -0.005336      3.815850      0.000000
     -0.007546      5.396420      0.000000
ITEM: ATOMS id type xs ys zs
     1     1      0.047309      0.989471      0.986779
     2     1      0.294643      0.240433      0.987058
     3     1      0.275367      0.410757      0.151761
     4     1      0.025286      0.160653      0.150984
     5     1      0.970123      0.012977      0.319915
     6     1      0.218932      0.264438      0.319226
     7     1      0.209428      0.441089      0.485398
     8     1      0.958318      0.190800      0.484937
     9     1      0.906251      0.041285      0.652572
    10     1      0.155436      0.291834      0.652689
    11     1      0.322347      0.400354      0.821620
    12     1      0.071213      0.150315      0.822239
    13     1      0.043880      0.489571      0.986336
    14     1      0.295439      0.739265      0.987237
    15     1      0.277876      0.910430      0.151616
    16     1      0.028237      0.659395      0.151118
    17     1      0.972215      0.515039      0.320403
    18     1      0.223506      0.763843      0.319391
    19     1      0.210839      0.940834      0.484284
    20     1      0.960634      0.691214      0.484928
    21     1      0.905459      0.542291      0.652169
    22     1      0.157227      0.792606      0.652974
    23     1      0.323299      0.900513      0.821876
    24     1      0.074654      0.651432      0.821642
    25     1      0.546601      0.989818      0.985941
    26     1      0.794908      0.240054      0.985650
    27     1      0.774545      0.410509      0.151341
    28     1      0.524549      0.160579      0.151468
    29     1      0.471467      0.013901      0.319394
    30     1      0.721611      0.263225      0.319470
    31     1      0.710299      0.440850      0.484011
    32     1      0.457576      0.190895      0.484428
    33     1      0.407636      0.041482      0.652074
    34     1      0.655839      0.291556      0.651671
    35     1      0.822191      0.400885      0.820183
    36     1      0.570719      0.150561      0.820915
    37     1      0.543569      0.489978      0.985969
    38     1      0.795578      0.739862      0.986047
    39     1      0.777624      0.910941      0.150758
    40     1      0.529595      0.659816      0.151521
    41     1      0.470784      0.514162      0.319384
    42     1      0.721411      0.764277      0.318890
    43     1      0.710906      0.939695      0.484975
    44     1      0.459974      0.690661      0.484638
    45     1      0.404148      0.543198      0.652725
    46     1      0.657657      0.791751      0.652548
    47     1      0.826353      0.900561      0.821285
    48     1      0.573031      0.650615      0.821150
ITEM: TIMESTEP
64300
ITEM: NUMBER OF ATOMS
48
ITEM: BOX BOUNDS xy xz yz  pp  pp  pp
     -0.003081      2.203080      0.000000
     -0.005336      3.815850      0.000000
     -0.007546      5.396420      0.000000
ITEM: ATOMS id type xs ys zs
     1     1      0.045908      0.990246      0.986878
     2     1      0.296214      0.239838      0.987102
     3     1      0.274746      0.411036      0.151437
     4     1      0.026365      0.161007      0.151364
     5     1      0.970349      0.013474      0.319116
     6     1      0.221977      0.263827      0.319282
     7     1      0.209625      0.440259      0.485546
     8     1      0.957721      0.190512      0.485141
     9     1      0.907026      0.041419      0.653207
    10     1      0.156674      0.290917      0.652966
    11     1      0.321098      0.401221      0.821866
    12     1      0.072275      0.151211      0.822709
    13     1      0.044097      0.489574      0.985903
    14     1      0.295920      0.739961      0.986730
    15     1      0.276393      0.910660      0.151647
    16     1      0.028801      0.660197      0.150949
    17     1      0.972009      0.514120      0.319843
    18     1      0.222194      0.764175      0.319338
    19     1      0.209590      0.940614      0.484237
    20     1      0.958756      0.691250      0.484658
    21     1      0.906443      0.541410      0.652137
    22     1      0.156364      0.791284      0.652687
    23     1      0.322715      0.900753      0.821646
    24     1      0.072300      0.650705      0.821850
    25     1      0.546999      0.989780      0.985997
    26     1      0.796079      0.239563      0.986111
    27     1      0.775278      0.411369      0.151302
    28     1      0.525650      0.161022      0.151279
    29     1      0.470642      0.013500      0.319407
    30     1      0.721184      0.263681      0.318993
    31     1      0.709358      0.440551      0.484355
    32     1      0.458163      0.190600      0.484678
    33     1      0.407220      0.040901      0.651966
    34     1      0.656383      0.291084      0.651670
    35     1      0.821412      0.401369      0.820316
    36     1      0.570627      0.150458      0.821409
    37     1      0.545197      0.489950      0.986338
    38     1      0.796014      0.740019      0.986165
    39     1      0.778079      0.910597      0.151046
    40     1      0.528381      0.660664      0.151525
    41     1      0.471162      0.513458      0.319683
    42     1      0.721203      0.764338      0.319286
    43     1      0.710238      0.940468      0.484872
    44     1      0.459633      0.690814      0.484745
    45     1      0.406363      0.542918      0.652876
    46     1      0.657075      0.791709      0.652877
    47     1      0.825165      0.900550      0.821625
    48     1      0.571057      0.651543      0.821814
ITEM: TIMESTEP
64350
ITEM: NUMBER OF ATOMS
48
ITEM: BOX BOUNDS xy xz yz  pp  pp  pp
     -0.003081      2.203080      0.000000
     -0.005336      3.815850      0.000000
     -0.007546      5.396420      0.000000
ITEM: ATOMS id type xs ys zs
     1     1      0.045492      0.990071      0.986360
     2     1      0.296501      0.239079      0.986225
     3     1      0.276722      0.411243      0.151675
     4     1      0.026727      0.161465      0.150863
     5     1      0.971708      0.014199      0.319350
     6     1      0.221950      0.263339      0.318982
     7     1      0.210647      0.439733      0.485029
     8     1      0.958184      0.190336      0.485006
     9     1      0.907366      0.041182      0.652948
    10     1      0.157560      0.290691      0.652604
    11     1      0.321991      0.401327      0.821628
    12     1      0.070617      0.151519      0.822379
    13     1      0.044784      0.489442      0.985992
    14     1      0.295116      0.739953      0.986765
    15     1      0.277008      0.910775      0.151895
    16     1      0.028921      0.660274      0.151042
    17     1      0.973017      0.514116      0.320129
    18     1      0.222246      0.763214      0.319408
    19     1      0.208858      0.939523      0.484115
    20     1      0.958827      0.690709      0.484826
    21     1      0.906911      0.541740      0.652285
    22     1      0.156906      0.791012      0.652809
    23     1      0.321626      0.901231      0.822077
    24     1      0.072940      0.650694      0.821569
    25     1      0.546593      0.990036      0.986611
    26     1      0.796521      0.240255      0.986170
    27     1      0.776215      0.411762      0.151334
    28     1      0.528855      0.160742      0.151441
    29     1      0.470711      0.014077      0.319101
    30     1      0.721975      0.264391      0.319076
    31     1      0.709116      0.440087      0.484833
    32     1      0.456933      0.190123      0.484172
    33     1      0.406963      0.041232      0.651665
    34     1      0.655940      0.290650      0.651477
    35     1      0.820418      0.401589      0.820863
    36     1      0.570194      0.150728      0.821956
    37     1      0.546216      0.490384      0.986132
    38     1      0.796248      0.740163      0.986231
    39     1      0.778425      0.910828      0.151417
    40     1      0.528088      0.660621      0.152087
    41     1      0.472301      0.513971      0.320073
    42     1      0.722085      0.764249      0.319467
    43     1      0.708646      0.940615      0.484407
    44     1      0.460097      0.691128      0.484925
    45     1      0.407170      0.541876      0.653150
    46     1      0.657095      0.791483      0.652958
    47     1      0.823394      0.900591      0.821958
    48     1      0.570536      0.651812      0.821550
ITEM: TIMESTEP
64400
ITEM: NUMBER OF ATOMS
48
ITEM: BOX BOUNDS xy xz yz  pp  pp  pp
     -0.003081      2.203080      0.000000
     -0.005336      3.815850      0.000000
     -0.007546      5.396420      0.000000
ITEM: ATOMS id type xs ys zs
     1     1      0.046439      0.990464      0.986123
     2     1      0.295994      0.239332      0.986204
     3     1      0.277235      0.411495      0.151599
     4     1      0.026987      0.162545      0.151498
     5     1      0.972875      0.013998      0.318851
     6     1      0.221538      0.263924      0.318620
     7     1      0.209063      0.439322      0.484865
     8     1      0.958842      0.190278      0.484419
     9     1      0.907759      0.040325      0.652204
    10     1      0.157238      0.289703      0.652136
    11     1      0.321741      0.401153      0.821748
    12     1      0.070583      0.151239      0.821487
    13     1      0.046078      0.489349      0.985934
    14     1      0.296394      0.740358      0.986946
    15     1      0.276852      0.911563      0.151123
    16     1      0.028769      0.660921      0.151202
    17     1      0.972981      0.513609      0.320063
    18     1      0.221063      0.764034      0.319559
    19     1      0.208227      0.939418      0.484078
    20     1      0.958119      0.689742      0.484691
    21     1      0.907125      0.541646      0.652279
    22     1      0.156289      0.791808      0.652319
    23     1      0.322511      0.901528      0.822127
    24     1      0.071601      0.651398      0.822016
    25     1      0.547417      0.990467      0.986769
    26     1      0.796310      0.240373      0.986465
    27     1      0.777383      0.411894      0.151332
    28     1      0.528737      0.161611      0.150978
    29     1      0.471655      0.014024      0.318861
    30     1      0.720760      0.264629      0.319150
    31     1      0.708473      0.439718      0.484891
    32     1      0.457038      0.189553      0.484103
    33     1      0.405821      0.040996      0.651938
    34     1      0.656136      0.290380      0.651922
    35     1      0.821055      0.401192      0.821005
    36     1      0.571193      0.150655      0.821822
    37     1      0.546587      0.490774      0.986007
    38     1      0.796644      0.741437      0.986236
    39     1      0.777420      0.911377      0.152114
    40     1      0.528724      0.661347      0.152021
    41     1      0.472373      0.514786      0.319838
    42     1      0.723537      0.764369      0.320014
    43     1      0.708483      0.940042      0.484061
    44     1      0.459711      0.689797      0.485088
    45     1      0.406234      0.540948      0.652973
    46     1      0.657167      0.791292      0.651847
    47     1      0.820494      0.901212      0.822035
    48     1      0.570703      0.651447      0.821973
ITEM: TIMESTEP
64450
ITEM: NUMBER OF ATOMS
48
ITEM: BOX BOUNDS xy xz yz  pp  pp  pp
     -0.003081      2.203080      0.000000
     -0.005336      3.815850      0.000000
     -0.007546      5.396420      0.000000
ITEM: ATOMS id type xs ys zs
     1     1      0.045623      0.990986      0.986128
     2     1      0.295670      0.239695      0.986516
     3     1      0.278573      0.411565      0.151086
     4     1      0.027558      0.162591      0.151317
     5     1      0.973273      0.014067      0.318905
     6     1      0.221476      0.264598      0.319168
     7     1      0.209249      0.439376      0.484606
     8     1      0.958502      0.189597      0.484453
     9     1      0.906724      0.040005      0.652468
    10     1      0.156532      0.290256      0.651821
    11     1      0.321038      0.400870      0.821530
    12     1      0.071296      0.151375      0.821638
    13     1      0.046670      0.489212      0.986142
    14     1      0.297380      0.740487      0.986878
    15     1      0.276652      0.910948      0.151230
    16     1      0.027653      0.661177      0.151038
    17     1      0.972845      0.514214      0.319966
    18     1      0.223881      0.764034      0.319676
    19     1      0.207524      0.939166      0.484117
    20     1      0.959261      0.690116      0.484982
    21     1      0.906903      0.540586      0.652275
    22     1      0.157339      0.791940      0.652448
    23     1      0.320323      0.901984      0.821908
    24     1      0.070535      0.651112      0.821768
    25     1      0.547272      0.990858      0.986527
    26     1      0.796585      0.240629      0.986051
    27     1      0.777615      0.412457      0.151322
    28     1      0.527472      0.162412      0.151107
    29     1      0.471529      0.014296      0.319116
    30     1      0.721537      0.263114      0.318962
    31     1      0.710076      0.440026      0.484589
    32     1      0.457598      0.189207      0.483879
    33     1      0.406944      0.040286      0.651761
    34     1      0.656548      0.289693      0.651822
    35     1      0.822218      0.401351      0.821122
    36     1      0.569664      0.151001      0.821518
    37     1      0.545122      0.490858      0.986486
    38     1      0.796079      0.740415      0.986569
    39     1      0.776544      0.911908      0.151281
    40     1      0.528168      0.661889      0.151748
    41     1      0.473842      0.514724      0.320125
    42     1      0.722631      0.764563      0.319807
    43     1      0.707325      0.940191      0.483687
    44     1      0.459349      0.689645      0.484987
    45     1      0.405298      0.541205      0.652125
    46     1      0.657279      0.791850      0.652553
    47     1      0.820255      0.901717      0.822243
    48     1      0.570969      0.652283      0.821455
ITEM: TIMESTEP
64500
ITEM: NUMBER OF ATOMS
48
ITEM: BOX BOUNDS xy xz yz  pp  pp  pp
     -0.003081      2.203080      0.000000
     -0.005336      3.815850      0.000000
     -0.007546      5.396420      0.000000
ITEM: ATOMS id type xs ys zs
     1     1      0.047169      0.990861      0.986550
     2     1      0.294712      0.240009      0.986263
     3     1      0.278727      0.411411      0.150868
     4     1      0.028551      0.161448      0.151396
     5     1      0.972021      0.013620      0.319078
     6     1      0.221903      0.264300      0.318754
     7     1      0.209677      0.439596      0.484262
     8     1      0.959813      0.189069      0.484090
     9     1      0.906133      0.040004      0.652876
    10     1      0.156532      0.289986      0.652334
    11     1      0.320238      0.401679      0.821617
    12     1      0.070306      0.151725      0.821728
    13     1      0.048045      0.489808      0.986081
    14     1      0.296511      0.741605      0.986418
    15     1      0.275794      0.911129      0.151143
    16     1      0.027886      0.661423      0.151578
    17     1      0.973319      0.514264      0.319764