ITEM: TIMESTEP
64001
ITEM: NUMBER OF ATOMS
48
ITEM: BOX BOUNDS xy xz yz  pp  pp  pp
     -0.003081      2.203080      0.000000
     -0.005336      3.815850      0.000000
     -0.007546      5.396420      0.000000
ITEM: ATOMS id type xs ys zs
     1     1      0.049123      0.988154      0.986980
     2     1      0.293004      0.237196      0.986211
     3     1      0.272359      0.408616      0.151588
     4     1      0.022230      0.159332      0.150436
     5     1      0.967076      0.015558      0.319141
     6     1      0.220471      0.262980      0.318833
     7     1      0.212151      0.443060      0.485132
     8     1      0.958966      0.195841      0.485236
     9     1      0.908118      0.044537      0.651860
    10     1      0.153883      0.294539      0.653478
    11     1      0.322818      0.400887      0.822791
    12     1      0.073564      0.149291      0.821754
    13     1      0.038731      0.487103      0.987040
    14     1      0.292247      0.735900      0.987012
    15     1      0.277675      0.908765      0.151363
    16     1      0.026478      0.657888      0.152867
    17     1      0.971955      0.513390      0.320699
    18     1      0.219353      0.764639      0.319814
    19     1      0.208867      0.943949      0.484307
    20     1      0.963782      0.693030      0.485591
    21     1      0.904497      0.544307      0.652327
    22     1      0.157700      0.794755      0.653280
    23     1      0.329380      0.899325      0.821648
    24     1      0.073821      0.649256      0.821730
    25     1      0.549271      0.987276      0.986148
    26     1      0.791341      0.238016      0.985412
    27     1      0.772738      0.409913      0.153177
    28     1      0.523857      0.159629      0.151595
    29     1      0.467880      0.015965      0.319830
    30     1      0.720676      0.265164      0.320183
    31     1      0.709884      0.444754      0.484577
    32     1      0.459081      0.193602      0.484232
    33     1      0.409330      0.042882      0.651081
    34     1      0.651923      0.294900      0.651257
    35     1      0.823715      0.399454      0.820457
    36     1      0.572439      0.150157      0.820149
    37     1      0.542149      0.488449      0.988010
    38     1      0.793878      0.737897      0.988869
    39     1      0.776597      0.909132      0.152430
    40     1      0.525890      0.659863      0.152828
    41     1      0.469435      0.513425      0.319384
    42     1      0.720612      0.764074      0.320486
    43     1      0.712201      0.943494      0.483929
    44     1      0.462242      0.694530      0.485167
    45     1      0.404284      0.544513      0.653330
    46     1      0.658626      0.793929      0.653118
    47     1      0.828901      0.898870      0.822439
    48     1      0.575886      0.649122      0.822846
ITEM: TIMESTEP
64050
ITEM: NUMBER OF ATOMS
48
ITEM: BOX BOUNDS xy xz yz  pp  pp  pp
     -0.003081      2.203080      0.000000
     -0.005336      3.815850      0.000000
     -0.007546      5.396420      0.000000
ITEM: ATOMS id type xs ys zs
     1     1      0.048187      0.989086      0.986746
     2     1      0.293122      0.238010      0.985786
     3     1      0.273559      0.409406      0.151881
     4     1      0.023924      0.159797      0.150705
     5     1      0.968585      0.014427      0.319829
     6     1      0.221304      0.263426      0.319236
     7     1      0.211743      0.443105      0.485300
     8     1      0.958933      0.194309      0.484496
     9     1      0.908066      0.044093      0.652156
    10     1      0.153929      0.294221      0.653697
    11     1      0.322384      0.400275      0.823049
    12     1      0.073450      0.148536      0.821695
    13     1      0.040110      0.487997      0.987391
    14     1      0.293004      0.737768      0.986192
    15     1      0.276686      0.910705      0.151840
    16     1      0.025745      0.659414      0.153267
    17     1      0.971223      0.513329      0.320279
    18     1      0.222208      0.764624      0.321236
    19     1      0.208174      0.942937      0.484091
    20     1      0.960702      0.692333      0.484659
    21     1      0.904025      0.543853      0.652053
    22     1      0.152523      0.791136      0.649089
    23     1      0.334284      0.898892      0.807525
    24     1      0.073547      0.650070      0.821333
    25     1      0.547313      0.987100      0.985575
    26     1      0.791179      0.238046      0.985955
    27     1      0.773975      0.409974      0.152258
    28     1      0.524346      0.160139      0.151425
    29     1      0.468893      0.015209      0.319712
    30     1      0.720115      0.265351      0.319947
    31     1      0.708821      0.444067      0.484572
    32     1      0.459615      0.193580      0.483671
    33     1      0.410308      0.046521      0.647844
    34     1      0.654049      0.293947      0.651490
    35     1      0.820376      0.400064      0.820947
    36     1      0.571915      0.149967      0.820480
    37     1      0.543096      0.487947      0.987797
    38     1      0.795267      0.737878      0.988204
    39     1      0.777190      0.909401      0.152440
    40     1      0.525302      0.659849      0.152068
    41     1      0.468978      0.513759      0.319946
    42     1      0.718559      0.763484      0.321416
    43     1      0.709387      0.942675      0.485013
    44     1      0.458290      0.694839      0.499760
    45     1      0.403756      0.540730      0.657052
    46     1      0.661935      0.795387      0.656772
    47     1      0.829079      0.899056      0.822961
    48     1      0.575191      0.649253      0.823230
ITEM: TIMESTEP
64100
ITEM: NUMBER OF ATOMS
48
ITEM: BOX BOUNDS xy xz yz  pp  pp  pp
     -0.003081      2.203080      0.000000
     -0.005336      3.815850      0.000000
     -0.007546      5.396420      0.000000
ITEM: ATOMS id type xs ys zs
     1     1      0.048346      0.988920      0.986990
     2     1      0.293874      0.237710      0.986490
     3     1      0.273665      0.410374      0.152248
     4     1      0.023835      0.160106      0.151520
     5     1      0.970527      0.014889      0.320028
     6     1      0.220449      0.264714      0.319069
     7     1      0.209523      0.442265      0.486579
     8     1      0.958320      0.193444      0.484342
     9     1      0.908319      0.043020      0.652139
    10     1      0.155452      0.293200      0.653301
    11     1      0.321149      0.399708      0.823955
    12     1      0.072626      0.148457      0.821851
    13     1      0.041652      0.488121      0.986825
    14     1      0.293922      0.739246      0.985521
    15     1      0.276939      0.910890      0.151309
    16     1      0.027767      0.660414      0.153144
    17     1      0.971233      0.513998      0.320069
    18     1      0.222210      0.764491      0.321435
    19     1      0.207901      0.942675      0.483569
    20     1      0.959476      0.691774      0.484219
    21     1      0.903800      0.543345      0.652641
    22     1      0.153988      0.790728      0.649829
    23     1      0.332588      0.898811      0.813068
    24     1      0.072841      0.650075      0.821564
    25     1      0.545704      0.987173      0.984915
    26     1      0.792233      0.238201      0.985702
    27     1      0.774333      0.410345      0.151674
    28     1      0.524755      0.160750      0.152432
    29     1      0.470106      0.014931      0.319722
    30     1      0.721514      0.265963      0.319873
    31     1      0.709122      0.443418      0.484397
    32     1      0.459900      0.193578      0.483205
    33     1      0.409570      0.044784      0.648316
    34     1      0.656144      0.293112      0.651650
    35     1      0.820800      0.399247      0.821564
    36     1      0.570876      0.149317      0.820306
    37     1      0.542812      0.489090      0.987392
    38     1      0.795710      0.738180      0.988371
    39     1      0.776174      0.909493      0.152154
    40     1      0.525140      0.660527      0.152317
    41     1      0.467881      0.514683      0.320363
    42     1      0.717120      0.763279      0.321463
    43     1      0.706999      0.942848      0.485722
    44     1      0.456921      0.694014      0.493654
    45     1      0.404630      0.540837      0.656391
    46     1      0.659204      0.794656      0.656260
    47     1      0.830093      0.899473      0.822959
    48     1      0.575962      0.650020      0.823503
ITEM: TIMESTEP
64150
ITEM: NUMBER OF ATOMS
48
ITEM: BOX BOUNDS xy xz yz  pp  pp  pp
     -0.003081      2.203080      0.000000
     -0.005336      3.815850      0.000000
     -0.007546      5.396420      0.000000
ITEM: ATOMS id type xs ys zs
     1     1      0.046487      0.989118      0.986672
     2     1      0.294682      0.238628      0.987141
     3     1      0.274718      0.411491      0.152074
     4     1      0.026077      0.160446      0.151481
     5     1      0.969248      0.015280      0.319373
     6     1      0.220019      0.264262      0.319239
     7     1      0.209355      0.443038      0.486099
     8     1      0.960033      0.192772      0.484583
     9     1      0.910968      0.041641      0.651809
    10     1      0.155160      0.293036      0.653221
    11     1      0.321395      0.400211      0.823433
    12     1      0.071612      0.149207      0.821806
    13     1      0.042458      0.488550      0.987142
    14     1      0.295207      0.739379      0.985371
    15     1      0.277077      0.910796      0.151900
    16     1      0.026826      0.660266      0.152402
    17     1      0.971388      0.513593      0.319847
    18     1      0.222734      0.763412      0.320848
    19     1      0.207679      0.942433      0.483851
    20     1      0.958345      0.691005      0.483996
    21     1      0.904025      0.542834      0.652849
    22     1      0.156664      0.791056      0.649878
    23     1      0.330536      0.898799      0.815686
    24     1      0.073292      0.649464      0.821452
    25     1      0.546400      0.987569      0.985641
    26     1      0.793091      0.238438      0.986325
    27     1      0.774710      0.411484      0.151609
    28     1      0.525939      0.159592      0.152058
    29     1      0.470311      0.014539      0.319426
    30     1      0.720812      0.265907      0.319583
    31     1      0.708793      0.443989      0.484780
    32     1      0.460753      0.194193      0.483220
    33     1      0.409871      0.044507      0.648720
    34     1      0.656340      0.292453      0.651791
    35     1      0.821212      0.399394      0.821634
    36     1      0.572168      0.149394      0.820338
    37     1      0.542400      0.489437      0.987219
    38     1      0.796212      0.737825      0.987998
    39     1      0.776632      0.910064      0.152097
    40     1      0.524411      0.661114      0.152367
    41     1      0.468430      0.515004      0.320614
    42     1      0.718766      0.764184      0.321125
    43     1      0.707499      0.942737      0.485713
    44     1      0.457277      0.693322      0.490888
    45     1      0.405032      0.540716      0.656375
    46     1      0.657187      0.794018      0.655727
    47     1      0.829227      0.899614      0.823176
    48     1      0.575008      0.650505      0.823426
ITEM: TIMESTEP
64200
ITEM: NUMBER OF ATOMS
48
ITEM: BOX BOUNDS xy xz yz  pp  pp  pp
     -0.003081      2.203080      0.000000
     -0.005336      3.815850      0.000000
     -0.007546      5.396420      0.000000
ITEM: ATOMS id type xs ys zs
     1     1      0.047905      0.988735      0.987434
     2     1      0.293351      0.238956      0.987171
     3     1      0.275286      0.412051      0.151951
     4     1      0.025316      0.160799      0.151980
     5     1      0.969949      0.015528      0.319704
     6     1      0.220125      0.264809      0.319428
     7     1      0.209013      0.442897      0.486094
     8     1      0.958861      0.193054      0.484504
     9     1      0.911453      0.041750      0.651745
    10     1      0.156004      0.292710      0.653499
    11     1      0.321957      0.400178      0.823292
    12     1      0.072396      0.148836      0.821991
    13     1      0.043724      0.488970      0.987044
    14     1      0.294422      0.739917      0.985608
    15     1      0.277752      0.910564      0.152588
    16     1      0.026640      0.660804      0.152096
    17     1      0.970567      0.513910      0.319707
    18     1      0.222548      0.764231      0.320725
    19     1      0.208116      0.942659      0.483717
    20     1      0.958099      0.691392      0.484190
    21     1      0.904974      0.541905      0.652648
    22     1      0.159161      0.791289      0.650102
    23     1      0.329094      0.899387      0.816983
    24     1      0.073992      0.649805      0.821255
    25     1      0.545778      0.988326      0.985572
    26     1      0.792687      0.239633      0.986818
    27     1      0.775006      0.410980      0.151579
    28     1      0.526913      0.159853      0.151143
    29     1      0.469196      0.014944      0.319686
    30     1      0.720569      0.265607      0.319006
    31     1      0.707874      0.443214      0.484817
    32     1      0.459862      0.193085      0.483123
    33     1      0.410257      0.043466      0.649240
    34     1      0.656338      0.291182      0.651911
    35     1      0.820689      0.399075      0.821561
    36     1      0.573134      0.149697      0.820539
    37     1      0.543888      0.489816      0.987421
    38     1      0.795513      0.738123      0.987694
    39     1      0.776363      0.910634      0.152084
    40     1      0.526913      0.660871      0.152380
    41     1      0.469513      0.515000      0.321362
    42     1      0.718253      0.765226      0.321142
    43     1      0.707120      0.941810      0.485628
    44     1      0.455999      0.692794      0.488891
    45     1      0.404179      0.540789      0.655178
    46     1      0.658005      0.792769      0.654962
    47     1      0.827803      0.900249      0.823261
    48     1      0.574808      0.650154      0.823277
ITEM: TIMESTEP
64250
ITEM: NUMBER OF ATOMS
48
ITEM: BOX BOUNDS xy xz yz  pp  pp  pp
     -0.003081      2.203080      0.000000
     -0.005336      3.815850      0.000000
     -0.007546      5.396420      0.000000
ITEM: ATOMS id type xs ys zs
     1     1      0.047145      0.989583      0.987792
     2     1      0.295092      0.239183      0.987149
     3     1      0.275782      0.410994      0.151556
     4     1      0.026538      0.161119      0.151546
     5     1      0.969072      0.014762      0.319650
     6     1      0.219736      0.264461      0.319637
     7     1      0.205698      0.480671      0.512068
     8     1      0.959227      0.192251      0.484635
     9     1      0.911000      0.040928      0.652141
    10     1      0.157312      0.291928      0.653573
    11     1      0.321548      0.398967      0.823400
    12     1      0.072719      0.148602      0.822198
    13     1      0.043975      0.489697      0.987058
    14     1      0.296151      0.739769      0.985927
    15     1      0.275933      0.910364      0.152096
    16     1      0.028059      0.661012      0.152204
    17     1      0.969851      0.513896      0.320037
    18     1      0.221556      0.763807      0.320357
    19     1      0.207238      0.942317      0.483858
    20     1      0.955382      0.691834      0.484062
    21     1      0.902508      0.540855      0.649887
    22     1      0.158454      0.790856      0.650790
    23     1      0.326593      0.899866      0.818410
    24     1      0.075133      0.611620      0.795281
    25     1      0.546786      0.988418      0.986055
    26     1      0.792797      0.239137      0.987016
    27     1      0.776434      0.411269      0.151905
    28     1      0.526479      0.160370      0.151649
    29     1      0.470221      0.014956      0.319731
    30     1      0.720509      0.265342      0.319123
    31     1      0.708621      0.441336      0.484647
    32     1      0.459778      0.192360      0.483369
    33     1      0.407944      0.042538      0.649757
    34     1      0.656306      0.291182      0.651534
    35     1      0.820213      0.398545      0.821715
    36     1      0.571933      0.148830      0.820427
    37     1      0.543492      0.490093      0.987181
    38     1      0.795966      0.739329      0.987754
    39     1      0.776444      0.911050      0.151846
    40     1      0.528027      0.660813      0.152073
    41     1      0.469531      0.515059      0.320531
    42     1      0.718490      0.765393      0.320698
    43     1      0.706008      0.941250      0.486258
    44     1      0.456243      0.692496      0.488547
    45     1      0.408441      0.541380      0.656753
    46     1      0.659122      0.791997      0.654687
    47     1      0.826372      0.899659      0.822981
    48     1      0.573258      0.650379      0.823251
ITEM: TIMESTEP
64300
ITEM: NUMBER OF ATOMS
48
ITEM: BOX BOUNDS xy xz yz  pp  pp  pp
     -0.003081      2.203080      0.000000
     -0.005336      3.815850      0.000000
     -0.007546      5.396420      0.000000
ITEM: ATOMS id type xs ys zs
     1     1      0.045222      0.989697      0.987165
     2     1      0.293433      0.239883      0.987345
     3     1      0.276816      0.411345      0.151734
     4     1      0.026749      0.161202      0.151685
     5     1      0.968938      0.014135      0.320342
     6     1      0.218728      0.265237      0.320375
     7     1      0.204238      0.461265      0.497912
     8     1      0.958056      0.193409      0.485211
     9     1      0.911000      0.039773      0.652307
    10     1      0.156526      0.291331      0.654171
    11     1      0.324931      0.393363      0.823449
    12     1      0.074447      0.148516      0.822311
    13     1      0.043476      0.491012      0.986656
    14     1      0.293755      0.739201      0.984450
    15     1      0.276694      0.910570      0.152188
    16     1      0.027884      0.661401      0.152262
    17     1      0.971238      0.514043      0.321448
    18     1      0.220867      0.764297      0.320505
    19     1      0.207358      0.942158      0.483927
    20     1      0.956275      0.697738      0.484684
    21     1      0.896396      0.539953      0.624082
    22     1      0.158712      0.790580      0.650247
    23     1      0.324487      0.898680      0.819129
    24     1      0.080235      0.630918      0.808329
    25     1      0.545244      0.989524      0.985792
    26     1      0.793241      0.239312      0.986631
    27     1      0.776445      0.412175      0.152517
    28     1      0.527796      0.160797      0.151747
    29     1      0.470357      0.015159      0.319609
    30     1      0.720385      0.265374      0.319457
    31     1      0.701221      0.438117      0.480922
    32     1      0.456555      0.193139      0.483797
    33     1      0.409783      0.041461      0.650445
    34     1      0.655688      0.289519      0.651946
    35     1      0.819510      0.397260      0.821441
    36     1      0.573679      0.148587      0.820728
    37     1      0.544134      0.489803      0.987434
    38     1      0.796170      0.739585      0.987585
    39     1      0.776394      0.911731      0.152422
    40     1      0.525467      0.660995      0.152387
    41     1      0.469251      0.515430      0.320955
    42     1      0.717004      0.766145      0.343898
    43     1      0.705395      0.943706      0.486849
    44     1      0.457698      0.695164      0.489235
    45     1      0.413403      0.543076      0.660026
    46     1      0.659301      0.792384      0.655057
    47     1      0.828693      0.899270      0.822745
    48     1      0.575114      0.650828      0.824673
ITEM: TIMESTEP
64350
ITEM: NUMBER OF ATOMS
48
ITEM: BOX BOUNDS xy xz yz  pp  pp  pp
     -0.003081      2.203080      0.000000
     -0.005336      3.815850      0.000000
     -0.007546      5.396420      0.000000
ITEM: ATOMS id type xs ys zs
     1     1      0.045140      0.988566      0.986433
     2     1      0.293624      0.240123      0.987780
     3     1      0.276439      0.411833      0.151673
     4     1      0.027481      0.160151      0.151827
     5     1      0.968850      0.014583      0.320522
     6     1      0.219438      0.265969      0.320612
     7     1      0.205307      0.452342      0.492105
     8     1      0.956844      0.193990      0.485390
     9     1      0.913521      0.044383      0.650033
    10     1      0.156308      0.291715      0.653503
    11     1      0.325490      0.393902      0.823578
    12     1      0.072903      0.147914      0.822716
    13     1      0.042732      0.490149      0.985942
    14     1      0.293293      0.739401      0.984529
    15     1      0.276359      0.911556      0.152276
    16     1      0.029612      0.661002      0.152114
    17     1      0.970499      0.515778      0.321336
    18     1      0.218515      0.764421      0.321714
    19     1      0.207328      0.942689      0.484724
    20     1      0.956112      0.701126      0.501062
    21     1      0.897102      0.534280      0.643059
    22     1      0.164577      0.793816      0.654707
    23     1      0.325735      0.899163      0.820663
    24     1      0.077365      0.637238      0.811823
    25     1      0.544584      0.989658      0.985660
    26     1      0.793418      0.239935      0.986148
    27     1      0.777464      0.411975      0.151668
    28     1      0.527664      0.161038      0.151551
    29     1      0.469595      0.015161      0.319469
    30     1      0.719929      0.264839      0.318796
    31     1      0.700639      0.437656      0.480538
    32     1      0.453797      0.192696      0.484312
    33     1      0.410189      0.041459      0.650992
    34     1      0.655918      0.290216      0.651434
    35     1      0.821338      0.398486      0.820784
    36     1      0.574123      0.147646      0.820658
    37     1      0.544612      0.489518      0.987481
    38     1      0.795473      0.741217      0.987032
    39     1      0.776362      0.910573      0.153513
    40     1      0.528964      0.662826      0.153021
    41     1      0.466121      0.515656      0.320932
    42     1      0.716748      0.766395      0.331646
    43     1      0.703778      0.945837      0.487679
    44     1      0.457071      0.693239      0.489469
    45     1      0.409626      0.541277      0.659115
    46     1      0.655175      0.788733      0.651317
    47     1      0.832990      0.898151      0.804711
    48     1      0.575808      0.651010      0.824677
ITEM: TIMESTEP
64400
ITEM: NUMBER OF ATOMS
48
ITEM: BOX BOUNDS xy xz yz  pp  pp  pp
     -0.003081      2.203080      0.000000
     -0.005336      3.815850      0.000000
     -0.007546      5.396420      0.000000
ITEM: ATOMS id type xs ys zs
     1     1      0.042975      0.988689      0.985973
     2     1      0.293698      0.238986      0.988500
     3     1      0.276840      0.411137      0.151494
     4     1      0.026906      0.160482      0.151894
     5     1      0.968986      0.015314      0.320899
     6     1      0.219374      0.266122      0.320434
     7     1      0.203546      0.448544      0.489351
     8     1      0.954981      0.194179      0.484449
     9     1      0.914685      0.044053      0.649650
    10     1      0.155855      0.290659      0.653630
    11     1      0.324740      0.395026      0.823511
    12     1      0.072922      0.148791      0.822642
    13     1      0.042849      0.490105      0.985546
    14     1      0.292805      0.738532      0.985054
    15     1      0.278550      0.910873      0.152023
    16     1      0.030596      0.660711      0.152148
    17     1      0.969381      0.515840      0.321768
    18     1      0.216372      0.764834      0.322126
    19     1      0.206354      0.943398      0.485200
    20     1      0.954023      0.698390      0.493248
    21     1      0.901839      0.534712      0.647614
    22     1      0.165107      0.794376      0.654778
    23     1      0.328366      0.899389      0.821493
    24     1      0.078759      0.640385      0.814862
    25     1      0.546127      0.989733      0.986911
    26     1      0.794026      0.239988      0.986266
    27     1      0.776738      0.412115      0.151482
    28     1      0.527864      0.161968      0.151453
    29     1      0.469956      0.015900      0.319729
    30     1      0.719882      0.264928      0.318808
    31     1      0.700505      0.439318      0.482407
    32     1      0.452370      0.193296      0.484673
    33     1      0.411839      0.041173      0.651397
    34     1      0.655353      0.289624      0.651366
    35     1      0.821498      0.398679      0.820706
    36     1      0.574667      0.147780      0.821243
    37     1      0.545107      0.490446      0.987564
    38     1      0.797036      0.741693      0.986512
    39     1      0.776438      0.910640      0.153899
    40     1      0.529859      0.662909      0.153482
    41     1      0.466436      0.516051      0.320428
    42     1      0.716463      0.766810      0.328152
    43     1      0.703455      0.946423      0.487593
    44     1      0.454173      0.692057      0.488704
    45     1      0.406203      0.540472      0.657764
    46     1      0.656386      0.789216      0.651670
    47     1      0.833655      0.897360      0.813169
    48     1      0.576618      0.650597      0.823655
ITEM: TIMESTEP
64450
ITEM: NUMBER OF ATOMS
48
ITEM: BOX BOUNDS xy xz yz  pp  pp  pp
     -0.003081      2.203080      0.000000
     -0.005336      3.815850      0.000000
     -0.007546      5.396420      0.000000
ITEM: ATOMS id type xs ys zs
     1     1      0.042765      0.988158      0.986753
     2     1      0.294205      0.239442      0.987443
     3     1      0.277454      0.411518      0.151454
     4     1      0.026581      0.161495      0.151904
     5     1      0.968052      0.016031      0.321497
     6     1      0.217699      0.266793      0.320058
     7     1      0.201333      0.446422      0.487957
     8     1      0.954821      0.194478      0.484557
     9     1      0.913967      0.042661      0.649990
    10     1      0.158083      0.290152      0.653611
    11     1      0.324556      0.396466      0.823037
    12     1      0.072491      0.148278      0.822297
    13     1      0.043706      0.490349      0.985815
    14     1      0.294119      0.738746      0.985425
    15     1      0.278101      0.910250      0.151522
    16     1      0.030343      0.660432      0.152014
    17     1      0.969025      0.516489      0.321064
    18     1      0.215969      0.766051      0.322170
    19     1      0.205551      0.942864      0.485383
    20     1      0.952650      0.696380      0.490352
    21     1      0.904463      0.535627      0.648981
    22     1      0.162931      0.793019      0.653752
    23     1      0.327674      0.900015      0.821852
    24     1      0.078193      0.642933      0.816684
    25     1      0.546183      0.990027      0.987649
    26     1      0.794153      0.239638      0.986632
    27     1      0.778383      0.412122      0.152091
    28     1      0.527975      0.161616      0.151745
    29     1      0.467948      0.016691      0.320045
    30     1      0.719973      0.264682      0.318514
    31     1      0.700560      0.440083      0.482847
    32     1      0.451710      0.193355      0.484246
    33     1      0.411966      0.040211      0.651862
    34     1      0.656512      0.289026      0.650979
    35     1      0.820995      0.397940      0.820792
    36     1      0.573853      0.147502      0.821705
    37     1      0.544645      0.490600      0.987311
    38     1      0.795979      0.741618      0.986225
    39     1      0.778339      0.911033      0.154023
    40     1      0.530445      0.662746      0.153323
    41     1      0.465509      0.516174      0.319966
    42     1      0.717199      0.767290      0.325482
    43     1      0.701757      0.945896      0.486819
    44     1      0.453775      0.691274      0.488062
    45     1      0.406209      0.539996      0.656321
    46     1      0.658839      0.789139      0.651431
    47     1      0.831509      0.897424      0.816911
    48     1      0.576175      0.650281      0.823256
ITEM: TIMESTEP
64500
ITEM: NUMBER OF ATOMS
48
ITEM: BOX BOUNDS xy xz yz  pp  pp  pp
     -0.003081      2.203080      0.000000
     -0.005336      3.815850      0.000000
     -0.007546      5.396420      0.000000
ITEM: ATOMS id type xs ys zs
     1     1      0.042889      0.988937      0.986801
     2     1      0.294303      0.239513      0.987317
     3     1      0.278482      0.412912      0.150916
     4     1      0.026558      0.161050      0.151743
     5     1      0.968797      0.017115      0.320780
     6     1      0.217538      0.267143      0.319585
     7     1      0.200394      0.444744      0.487499
     8     1      0.953549      0.194046      0.484750
     9     1      0.912385      0.041363      0.650052
    10     1      0.158071      0.290026      0.653670
    11     1      0.324488      0.396799      0.822933
    12     1      0.072734      0.148773      0.822549
    13     1      0.042774      0.489772      0.985659
    14     1      0.294250      0.738432      0.985690
    15     1      0.278106      0.912090      0.151566
    16     1      0.029266      0.661099      0.151704
    17     1      0.967446      0.517258      0.321280