ITEM: TIMESTEP
64001
ITEM: NUMBER OF ATOMS
48
ITEM: BOX BOUNDS xy xz yz  pp  pp  pp
     -0.003081      2.203080      0.000000
     -0.005336      3.815850      0.000000
     -0.007546      5.396420      0.000000
ITEM: ATOMS id type xs ys zs
     1     1      0.048806      0.988198      0.986883
     2     1      0.293072      0.237228      0.986064
     3     1      0.272577      0.408691      0.151691
     4     1      0.022312      0.158971      0.150385
     5     1      0.967368      0.015535      0.319060
     6     1      0.220644      0.262928      0.318746
     7     1      0.211950      0.443294      0.485096
     8     1      0.959309      0.195802      0.485250
     9     1      0.908133      0.044552      0.651710
    10     1      0.153751      0.294608      0.653572
    11     1      0.322852      0.400933      0.822823
    12     1      0.073835      0.149542      0.821800
    13     1      0.038953      0.487079      0.987024
    14     1      0.292314      0.735835      0.986852
    15     1      0.277825      0.908670      0.151380
    16     1      0.026267      0.657873      0.152797
    17     1      0.972027      0.513425      0.320572
    18     1      0.219349      0.764604      0.319776
    19     1      0.208850      0.943866      0.484220
    20     1      0.963634      0.693038      0.485572
    21     1      0.904805      0.544474      0.652412
    22     1      0.157615      0.794696      0.653217
    23     1      0.329266      0.899316      0.821696
    24     1      0.073592      0.649176      0.821631
    25     1      0.549179      0.987298      0.986119
    26     1      0.791190      0.238056      0.985495
    27     1      0.772574      0.410062      0.153210
    28     1      0.523555      0.159630      0.151489
    29     1      0.467571      0.015631      0.319813
    30     1      0.720544      0.265090      0.320144
    31     1      0.709945      0.444784      0.484583
    32     1      0.459057      0.193442      0.484210
    33     1      0.408945      0.042857      0.650852
    34     1      0.651789      0.294683      0.651153
    35     1      0.823848      0.399387      0.820569
    36     1      0.572467      0.150192      0.820163
    37     1      0.541992      0.488395      0.988063
    38     1      0.794208      0.738030      0.988928
    39     1      0.776600      0.909189      0.152367
    40     1      0.525771      0.659904      0.152909
    41     1      0.469520      0.513692      0.319379
    42     1      0.720726      0.763997      0.320520
    43     1      0.712127      0.943220      0.484082
    44     1      0.462077      0.694627      0.485077
    45     1      0.404277      0.544568      0.653195
    46     1      0.658561      0.794006      0.652978
    47     1      0.828777      0.898920      0.822338
    48     1      0.575515      0.649158      0.822856
ITEM: TIMESTEP
64050
ITEM: NUMBER OF ATOMS
48
ITEM: BOX BOUNDS xy xz yz  pp  pp  pp
     -0.003081      2.203080      0.000000
     -0.005336      3.815850      0.000000
     -0.007546      5.396420      0.000000
ITEM: ATOMS id type xs ys zs
     1     1      0.047470      0.988076      0.986796
     2     1      0.294378      0.237591      0.986683
     3     1      0.274234      0.409629      0.151609
     4     1      0.023928      0.158818      0.150803
     5     1      0.967790      0.015559      0.319303
     6     1      0.219402      0.263886      0.318991
     7     1      0.211226      0.442055      0.485454
     8     1      0.960369      0.194266      0.485364
     9     1      0.909200      0.043383      0.652168
    10     1      0.154055      0.293723      0.653429
    11     1      0.322250      0.399532      0.822770
    12     1      0.071698      0.148986      0.821586
    13     1      0.040182      0.486952      0.986995
    14     1      0.293131      0.737221      0.987296
    15     1      0.277512      0.908798      0.151895
    16     1      0.025836      0.658990      0.152895
    17     1      0.970999      0.513721      0.320618
    18     1      0.220636      0.765074      0.320186
    19     1      0.207929      0.942923      0.484349
    20     1      0.962324      0.692458      0.484853
    21     1      0.905360      0.544174      0.652983
    22     1      0.158072      0.794114      0.652620
    23     1      0.328146      0.898839      0.821526
    24     1      0.073288      0.650150      0.822026
    25     1      0.548056      0.988027      0.986066
    26     1      0.792283      0.237774      0.986095
    27     1      0.773809      0.410270      0.153110
    28     1      0.524504      0.160302      0.151503
    29     1      0.467955      0.014504      0.320080
    30     1      0.720753      0.264647      0.319785
    31     1      0.709504      0.443824      0.484678
    32     1      0.458876      0.192260      0.484000
    33     1      0.409016      0.043605      0.650966
    34     1      0.653103      0.294186      0.651429
    35     1      0.823030      0.399453      0.821022
    36     1      0.571739      0.150232      0.821268
    37     1      0.542808      0.488497      0.987732
    38     1      0.793806      0.738110      0.988100
    39     1      0.777693      0.909196      0.152062
    40     1      0.525352      0.660131      0.152429
    41     1      0.470713      0.514169      0.319615
    42     1      0.720983      0.763973      0.320727
    43     1      0.710588      0.943641      0.484515
    44     1      0.461276      0.693621      0.485446
    45     1      0.404381      0.544155      0.653608
    46     1      0.658962      0.793243      0.652865
    47     1      0.828387      0.899381      0.821884
    48     1      0.573523      0.649301      0.823214
ITEM: TIMESTEP
64100
ITEM: NUMBER OF ATOMS
48
ITEM: BOX BOUNDS xy xz yz  pp  pp  pp
     -0.003081      2.203080      0.000000
     -0.005336      3.815850      0.000000
     -0.007546      5.396420      0.000000
ITEM: ATOMS id type xs ys zs
     1     1      0.046401      0.988298      0.986790
     2     1      0.295023      0.238522      0.986599
     3     1      0.275079      0.409788      0.151286
     4     1      0.025785      0.159113      0.150706
     5     1      0.967482      0.014843      0.319295
     6     1      0.219939      0.263676      0.319353
     7     1      0.208896      0.441610      0.485398
     8     1      0.959847      0.193641      0.485145
     9     1      0.908162      0.042496      0.652114
    10     1      0.154143      0.293268      0.653749
    11     1      0.320793      0.400097      0.822811
    12     1      0.070187      0.149167      0.821576
    13     1      0.040197      0.488236      0.986504
    14     1      0.292014      0.737041      0.987214
    15     1      0.277877      0.909606      0.151680
    16     1      0.026179      0.659864      0.152706
    17     1      0.971195      0.514143      0.320470
    18     1      0.220038      0.764934      0.319951
    19     1      0.208210      0.942436      0.484219
    20     1      0.961490      0.692411      0.485069
    21     1      0.904561      0.543369      0.652556
    22     1      0.157226      0.792927      0.652805
    23     1      0.327896      0.900102      0.821704
    24     1      0.073327      0.650416      0.821622
    25     1      0.547604      0.989193      0.987138
    26     1      0.792909      0.239116      0.985740
    27     1      0.775198      0.411257      0.152472
    28     1      0.526878      0.160155      0.151776
    29     1      0.469342      0.014552      0.319140
    30     1      0.719882      0.265190      0.319886
    31     1      0.707517      0.442634      0.485196
    32     1      0.458849      0.192686      0.484180
    33     1      0.407744      0.042145      0.651245
    34     1      0.652499      0.293181      0.651725
    35     1      0.821296      0.399655      0.821040
    36     1      0.571532      0.149968      0.820841
    37     1      0.543546      0.488179      0.987727
    38     1      0.794397      0.738826      0.987532
    39     1      0.777489      0.909051      0.151794
    40     1      0.525401      0.660539      0.152267
    41     1      0.470948      0.513960      0.319662
    42     1      0.719900      0.764224      0.320274
    43     1      0.709830      0.943220      0.484994
    44     1      0.459745      0.692572      0.484908
    45     1      0.404629      0.543463      0.653278
    46     1      0.657984      0.792383      0.652770
    47     1      0.827354      0.899234      0.822027
    48     1      0.572915      0.649865      0.822284
ITEM: TIMESTEP
64150
ITEM: NUMBER OF ATOMS
48
ITEM: BOX BOUNDS xy xz yz  pp  pp  pp
     -0.003081      2.203080      0.000000
     -0.005336      3.815850      0.000000
     -0.007546      5.396420      0.000000
ITEM: ATOMS id type xs ys zs
     1     1      0.046602      0.988726      0.986783
     2     1      0.294574      0.238213      0.986793
     3     1      0.275726      0.411088      0.151168
     4     1      0.026487      0.159578      0.150611
     5     1      0.968319      0.015127      0.319969
     6     1      0.219746      0.264188      0.319393
     7     1      0.208241      0.442557      0.484957
     8     1      0.957941      0.193519      0.485180
     9     1      0.907027      0.042271      0.652464
    10     1      0.154080      0.293398      0.653410
    11     1      0.321453      0.400551      0.822555
    12     1      0.070542      0.149367      0.821781
    13     1      0.041506      0.488429      0.986602
    14     1      0.293825      0.738042      0.986958
    15     1      0.278104      0.910023      0.151373
    16     1      0.026383      0.661183      0.152247
    17     1      0.971925      0.514588      0.320033
    18     1      0.219739      0.765515      0.319916
    19     1      0.208251      0.941679      0.484630
    20     1      0.958571      0.691521      0.485325
    21     1      0.903761      0.542955      0.652560
    22     1      0.158169      0.792296      0.652786
    23     1      0.325044      0.899909      0.821251
    24     1      0.072583      0.650958      0.821748
    25     1      0.545916      0.989071      0.987178
    26     1      0.792588      0.238688      0.985984
    27     1      0.775341      0.410759      0.152465
    28     1      0.526897      0.160602      0.152028
    29     1      0.470065      0.014647      0.319536
    30     1      0.719590      0.265637      0.319634
    31     1      0.708430      0.442917      0.485232
    32     1      0.458229      0.191918      0.484414
    33     1      0.407051      0.041424      0.651314
    34     1      0.654906      0.292673      0.651960
    35     1      0.820614      0.400291      0.821373
    36     1      0.570358      0.150507      0.820961
    37     1      0.543841      0.488315      0.987447
    38     1      0.793987      0.738848      0.987223
    39     1      0.777370      0.909805      0.151766
    40     1      0.527417      0.661142      0.152370
    41     1      0.470879      0.514207      0.319588
    42     1      0.720042      0.764646      0.320291
    43     1      0.709947      0.942720      0.484960
    44     1      0.459547      0.692844      0.485367
    45     1      0.404022      0.542601      0.652905
    46     1      0.658044      0.792235      0.652525
    47     1      0.825185      0.899668      0.822331
    48     1      0.573002      0.649763      0.822721
ITEM: TIMESTEP
64200
ITEM: NUMBER OF ATOMS
48
ITEM: BOX BOUNDS xy xz yz  pp  pp  pp
     -0.003081      2.203080      0.000000
     -0.005336      3.815850      0.000000
     -0.007546      5.396420      0.000000
ITEM: ATOMS id type xs ys zs
     1     1      0.046041      0.988520      0.987282
     2     1      0.293994      0.238583      0.986224
     3     1      0.274709      0.410519      0.151198
     4     1      0.026376      0.160361      0.151149
     5     1      0.968196      0.015755      0.319805
     6     1      0.219406      0.263793      0.319796
     7     1      0.208168      0.441923      0.485520
     8     1      0.957869      0.191871      0.485055
     9     1      0.907024      0.041365      0.652131
    10     1      0.154605      0.292876      0.652582
    11     1      0.322445      0.400454      0.822430
    12     1      0.070731      0.150059      0.822291
    13     1      0.040857      0.489220      0.986749
    14     1      0.294699      0.738568      0.987193
    15     1      0.278715      0.910644      0.151126
    16     1      0.024915      0.661712      0.152069
    17     1      0.972659      0.515063      0.320059
    18     1      0.220863      0.765197      0.319725
    19     1      0.208334      0.941573      0.484708
    20     1      0.958622      0.691729      0.485299
    21     1      0.905359      0.542864      0.652220
    22     1      0.158242      0.791416      0.652018
    23     1      0.323918      0.900413      0.821722
    24     1      0.071238      0.650825      0.821489
    25     1      0.545687      0.988860      0.987300
    26     1      0.792839      0.238806      0.986144
    27     1      0.775500      0.411282      0.152175
    28     1      0.527832      0.160868      0.151800
    29     1      0.469985      0.014890      0.319656
    30     1      0.720201      0.266107      0.320007
    31     1      0.708746      0.442674      0.485213
    32     1      0.458151      0.192177      0.484288
    33     1      0.407153      0.041316      0.651065
    34     1      0.655891      0.291536      0.651436
    35     1      0.821437      0.400879      0.820809
    36     1      0.569020      0.150262      0.820921
    37     1      0.544264      0.488655      0.987390
    38     1      0.794377      0.738916      0.986549
    39     1      0.777575      0.910463      0.152019
    40     1      0.525800      0.661107      0.152252
    41     1      0.470732      0.513964      0.320032
    42     1      0.719120      0.764634      0.320366
    43     1      0.709627      0.941605      0.484756
    44     1      0.458716      0.691799      0.484742
    45     1      0.405807      0.542366      0.653174
    46     1      0.658537      0.792374      0.652772
    47     1      0.824232      0.900325      0.821978
    48     1      0.572590      0.650606      0.822153
ITEM: TIMESTEP
64250
ITEM: NUMBER OF ATOMS
48
ITEM: BOX BOUNDS xy xz yz  pp  pp  pp
     -0.003081      2.203080      0.000000
     -0.005336      3.815850      0.000000
     -0.007546      5.396420      0.000000
ITEM: ATOMS id type xs ys zs
     1     1      0.045290      0.988757      0.987877
     2     1      0.293312      0.238271      0.986442
     3     1      0.276002      0.411180      0.151415
     4     1      0.026959      0.161121      0.151605
     5     1      0.968670      0.015534      0.319529
     6     1      0.220392      0.264092      0.319628
     7     1      0.208493      0.442167      0.484961
     8     1      0.956291      0.191457      0.485013
     9     1      0.908080      0.041400      0.651360
    10     1      0.154397      0.291925      0.652686
    11     1      0.320574      0.400566      0.822263
    12     1      0.069777      0.150206      0.821682
    13     1      0.042705      0.489144      0.987098
    14     1      0.295995      0.738940      0.987226
    15     1      0.278056      0.911323      0.151435
    16     1      0.025301      0.661624      0.152213
    17     1      0.971851      0.515676      0.319906
    18     1      0.219489      0.765909      0.319944
    19     1      0.206916      0.941227      0.484804
    20     1      0.958948      0.690993      0.485191
    21     1      0.906380      0.541828      0.652776
    22     1      0.157794      0.791229      0.652294
    23     1      0.322665      0.901037      0.821552
    24     1      0.071803      0.650706      0.822218
    25     1      0.545188      0.989554      0.986830
    26     1      0.793334      0.238921      0.986490
    27     1      0.775703      0.411183      0.152195
    28     1      0.527610      0.161389      0.151482
    29     1      0.469242      0.015450      0.319595
    30     1      0.720462      0.267007      0.320164
    31     1      0.708036      0.441842      0.484987
    32     1      0.457041      0.191024      0.484612
    33     1      0.407545      0.040643      0.651572
    34     1      0.656011      0.291681      0.651747
    35     1      0.820796      0.400390      0.821115
    36     1      0.568351      0.150798      0.821066
    37     1      0.542128      0.488896      0.987530
    38     1      0.794194      0.739502      0.986748
    39     1      0.778203      0.910039      0.151994
    40     1      0.526471      0.660957      0.152305
    41     1      0.469300      0.515547      0.320014
    42     1      0.719012      0.765384      0.320258
    43     1      0.708303      0.941228      0.484889
    44     1      0.457969      0.691384      0.485231
    45     1      0.405929      0.542148      0.653356
    46     1      0.659081      0.791525      0.653041
    47     1      0.824846      0.900587      0.821856
    48     1      0.571569      0.650316      0.822261
ITEM: TIMESTEP
64300
ITEM: NUMBER OF ATOMS
48
ITEM: BOX BOUNDS xy xz yz  pp  pp  pp
     -0.003081      2.203080      0.000000
     -0.005336      3.815850      0.000000
     -0.007546      5.396420      0.000000
ITEM: ATOMS id type xs ys zs
     1     1      0.046614      0.989306      0.986905
     2     1      0.293287      0.238891      0.986686
     3     1      0.276291      0.411095      0.151989
     4     1      0.027086      0.161195      0.151681
     5     1      0.968836      0.015463      0.319217
     6     1      0.220763      0.264361      0.319821
     7     1      0.208050      0.441522      0.484609
     8     1      0.955820      0.191819      0.484974
     9     1      0.907167      0.040927      0.652052
    10     1      0.156054      0.292133      0.652438
    11     1      0.321570      0.401013      0.821597
    12     1      0.068428      0.150737      0.821631
    13     1      0.044558      0.489325      0.987259
    14     1      0.294710      0.739329      0.987110
    15     1      0.277639      0.911578      0.152047
    16     1      0.026228      0.661879      0.151976
    17     1      0.971034      0.516212      0.320125
    18     1      0.219837      0.766299      0.320324
    19     1      0.206099      0.941959      0.485028
    20     1      0.958690      0.690599      0.485836
    21     1      0.907591      0.541808      0.652666
    22     1      0.157512      0.790889      0.652567
    23     1      0.322131      0.900574      0.821591
    24     1      0.071185      0.650842      0.822170
    25     1      0.544862      0.990407      0.986056
    26     1      0.793524      0.239039      0.987010
    27     1      0.775951      0.411472      0.151984
    28     1      0.529059      0.161282      0.151493
    29     1      0.470232      0.015546      0.319874
    30     1      0.718902      0.266807      0.320044
    31     1      0.709224      0.441731      0.484926
    32     1      0.458238      0.190912      0.484400
    33     1      0.407022      0.040279      0.651691
    34     1      0.656556      0.290963      0.651862
    35     1      0.820516      0.399936      0.821392
    36     1      0.568660      0.150472      0.821077
    37     1      0.543687      0.489044      0.987650
    38     1      0.794716      0.740212      0.986773
    39     1      0.777866      0.910851      0.151670
    40     1      0.527013      0.661696      0.152291
    41     1      0.468931      0.515299      0.320258
    42     1      0.718825      0.765017      0.320766
    43     1      0.706948      0.940304      0.484914
    44     1      0.457788      0.691467      0.485254
    45     1      0.405448      0.542205      0.653072
    46     1      0.659837      0.790705      0.653108
    47     1      0.822667      0.900320      0.822128
    48     1      0.570526      0.650610      0.822206
ITEM: TIMESTEP
64350
ITEM: NUMBER OF ATOMS
48
ITEM: BOX BOUNDS xy xz yz  pp  pp  pp
     -0.003081      2.203080      0.000000
     -0.005336      3.815850      0.000000
     -0.007546      5.396420      0.000000
ITEM: ATOMS id type xs ys zs
     1     1      0.046464      0.989684      0.986909
     2     1      0.293715      0.240109      0.986995
     3     1      0.276796      0.411439      0.152088
     4     1      0.028474      0.160842      0.151742
     5     1      0.968654      0.015729      0.319558
     6     1      0.219494      0.264853      0.320239
     7     1      0.207997      0.440851      0.485104
     8     1      0.955909      0.191730      0.484957
     9     1      0.907754      0.040096      0.652361
    10     1      0.156185      0.290992      0.651977
    11     1      0.320689      0.400606      0.821352
    12     1      0.067723      0.150580      0.822079
    13     1      0.044597      0.490300      0.986468
    14     1      0.294429      0.740223      0.986380
    15     1      0.278691      0.912067      0.152064
    16     1      0.028227      0.661655      0.152074
    17     1      0.971617      0.514990      0.319910
    18     1      0.220945      0.766370      0.320191
    19     1      0.205321      0.941589      0.485118
    20     1      0.957976      0.690446      0.485341
    21     1      0.907447      0.541478      0.652746
    22     1      0.158465      0.790662      0.652856
    23     1      0.320862      0.900354      0.821467
    24     1      0.069981      0.651032      0.822042
    25     1      0.544510      0.989830      0.986283
    26     1      0.793511      0.239513      0.986190
    27     1      0.776851      0.411233      0.151863
    28     1      0.527611      0.161859      0.150916
    29     1      0.469974      0.015563      0.320360
    30     1      0.719248      0.266568      0.319783
    31     1      0.707540      0.441174      0.485250
    32     1      0.458097      0.190236      0.485059
    33     1      0.407768      0.039850      0.651739
    34     1      0.655592      0.290952      0.652158
    35     1      0.819631      0.400281      0.821601
    36     1      0.567632      0.150586      0.821375
    37     1      0.543106      0.488887      0.987622
    38     1      0.794548      0.740726      0.987240
    39     1      0.778411      0.911770      0.151826
    40     1      0.527342      0.661701      0.152430
    41     1      0.469645      0.515315      0.319696
    42     1      0.718937      0.765510      0.320666
    43     1      0.707170      0.940183      0.485281
    44     1      0.456710      0.690561      0.484705
    45     1      0.407454      0.541011      0.652404
    46     1      0.657726      0.789965      0.652780
    47     1      0.821443      0.899612      0.821764
    48     1      0.571699      0.651007      0.822294
ITEM: TIMESTEP
64400
ITEM: NUMBER OF ATOMS
48
ITEM: BOX BOUNDS xy xz yz  pp  pp  pp
     -0.003081      2.203080      0.000000
     -0.005336      3.815850      0.000000
     -0.007546      5.396420      0.000000
ITEM: ATOMS id type xs ys zs
     1     1      0.044881      0.990454      0.986932
     2     1      0.294107      0.240695      0.986587
     3     1      0.277393      0.411071      0.151886
     4     1      0.028980      0.161291      0.152047
     5     1      0.968986      0.015143      0.320201
     6     1      0.221686      0.264244      0.320087
     7     1      0.206905      0.440638      0.485288
     8     1      0.956773      0.190198      0.484755
     9     1      0.906686      0.039822      0.652046
    10     1      0.156781      0.290659      0.651803
    11     1      0.320319      0.400584      0.821441
    12     1      0.067573      0.149973      0.821737
    13     1      0.045270      0.490557      0.986563
    14     1      0.295520      0.740156      0.986594
    15     1      0.279175      0.912405      0.151920
    16     1      0.027349      0.661233      0.152092
    17     1      0.970622      0.515655      0.319856
    18     1      0.220048      0.765568      0.319939
    19     1      0.205656      0.940614      0.485122
    20     1      0.957481      0.690334      0.485367
    21     1      0.909101      0.540665      0.652462
    22     1      0.159366      0.790271      0.652796
    23     1      0.320583      0.900717      0.821628
    24     1      0.070976      0.650172      0.821802
    25     1      0.545864      0.989893      0.986243
    26     1      0.793053      0.239407      0.986936
    27     1      0.776781      0.412441      0.151919
    28     1      0.527734      0.162314      0.151736
    29     1      0.470476      0.015800      0.319582
    30     1      0.721716      0.266250      0.319268
    31     1      0.706968      0.440983      0.485449
    32     1      0.457346      0.190425      0.484761
    33     1      0.406652      0.039813      0.652134
    34     1      0.656772      0.289874      0.652574
    35     1      0.817668      0.399665      0.822028
    36     1      0.568457      0.150179      0.821290
    37     1      0.545418      0.489985      0.986694
    38     1      0.795724      0.739778      0.987309
    39     1      0.776864      0.912314      0.152290
    40     1      0.526575      0.662405      0.152172
    41     1      0.469470      0.515213      0.320214
    42     1      0.720088      0.764881      0.320055
    43     1      0.707287      0.940081      0.484960
    44     1      0.457025      0.690899      0.484422
    45     1      0.406974      0.540245      0.652558
    46     1      0.658118      0.789758      0.652672
    47     1      0.821239      0.900257      0.821364
    48     1      0.571376      0.650971      0.822491
ITEM: TIMESTEP
64450
ITEM: NUMBER OF ATOMS
48
ITEM: BOX BOUNDS xy xz yz  pp  pp  pp
     -0.003081      2.203080      0.000000
     -0.005336      3.815850      0.000000
     -0.007546      5.396420      0.000000
ITEM: ATOMS id type xs ys zs
     1     1      0.044613      0.989835      0.986656
     2     1      0.295161      0.240118      0.986285
     3     1      0.277709      0.411143      0.151583
     4     1      0.027703      0.161863      0.151836
     5     1      0.969622      0.015373      0.319570
     6     1      0.221466      0.264940      0.319866
     7     1      0.205440      0.440180      0.485062
     8     1      0.956118      0.189824      0.484785
     9     1      0.907529      0.039742      0.651697
    10     1      0.158236      0.289433      0.652175
    11     1      0.318373      0.400541      0.820934
    12     1      0.068122      0.150409      0.821550
    13     1      0.044470      0.490005      0.986099
    14     1      0.294474      0.740309      0.986463
    15     1      0.278700      0.912069      0.151552
    16     1      0.027900      0.661924      0.152069
    17     1      0.969574      0.515915      0.320136
    18     1      0.220046      0.765924      0.319925
    19     1      0.206648      0.940425      0.484987
    20     1      0.955551      0.689810      0.484989
    21     1      0.909374      0.539186      0.652465
    22     1      0.158272      0.790590      0.652712
    23     1      0.321350      0.900495      0.821964
    24     1      0.072024      0.650776      0.822040
    25     1      0.547158      0.990966      0.986264
    26     1      0.794533      0.240075      0.986538
    27     1      0.777155      0.412610      0.151493
    28     1      0.527628      0.162433      0.151489
    29     1      0.470790      0.016342      0.320182
    30     1      0.722545      0.265313      0.319497
    31     1      0.707131      0.440829      0.485025
    32     1      0.457461      0.190534      0.484986
    33     1      0.406755      0.038972      0.651599
    34     1      0.657329      0.289652      0.652256
    35     1      0.818187      0.400413      0.821816
    36     1      0.568282      0.149917      0.821125
    37     1      0.544086      0.490154      0.986649
    38     1      0.794089      0.740434      0.987089
    39     1      0.777606      0.912418      0.151920
    40     1      0.526796      0.661955      0.152082
    41     1      0.470751      0.514739      0.319745
    42     1      0.719672      0.765718      0.319982
    43     1      0.707179      0.939833      0.484943
    44     1      0.455467      0.690685      0.484662
    45     1      0.407145      0.539921      0.651945
    46     1      0.658744      0.788157      0.652329
    47     1      0.818631      0.900413      0.821241
    48     1      0.571341      0.650546      0.822523
ITEM: TIMESTEP
64500
ITEM: NUMBER OF ATOMS
48
ITEM: BOX BOUNDS xy xz yz  pp  pp  pp
     -0.003081      2.203080      0.000000
     -0.005336      3.815850      0.000000
     -0.007546      5.396420      0.000000
ITEM: ATOMS id type xs ys zs
     1     1      0.044916      0.989433      0.986856
     2     1      0.295375      0.239428      0.986326
     3     1      0.277386      0.411970      0.151647
     4     1      0.027365      0.162302      0.151544
     5     1      0.970547      0.015122      0.319775
     6     1      0.220538      0.265158      0.319683
     7     1      0.206618      0.439977      0.484688
     8     1      0.956504      0.190456      0.484650
     9     1      0.906820      0.039205      0.651888
    10     1      0.159851      0.290180      0.651744
    11     1      0.317950      0.401635      0.821434
    12     1      0.067951      0.150766      0.821097
    13     1      0.044450      0.489596      0.986556
    14     1      0.295373      0.741526      0.986222
    15     1      0.278435      0.912589      0.151577
    16     1      0.028146      0.663585      0.151692
    17     1      0.970501      0.516513      0.320077