ITEM: TIMESTEP
64001
ITEM: NUMBER OF ATOMS
48
ITEM: BOX BOUNDS xy xz yz  pp  pp  pp
     -0.003081      2.203080      0.000000
     -0.005336      3.815850      0.000000
     -0.007546      5.396420      0.000000
ITEM: ATOMS id type xs ys zs
     1     1      0.049077      0.988199      0.986872
     2     1      0.293130      0.237279      0.986233
     3     1      0.272276      0.408620      0.151620
     4     1      0.022380      0.159383      0.150378
     5     1      0.967226      0.015411      0.319040
     6     1      0.220232      0.262769      0.318931
     7     1      0.211910      0.443239      0.485142
     8     1      0.958950      0.195856      0.485061
     9     1      0.907783      0.044462      0.651871
    10     1      0.153662      0.294569      0.653533
    11     1      0.322780      0.401191      0.822742
    12     1      0.073546      0.149402      0.821939
    13     1      0.039010      0.487113      0.987084
    14     1      0.292457      0.735985      0.986916
    15     1      0.277914      0.908725      0.151334
    16     1      0.026249      0.657951      0.152855
    17     1      0.971960      0.513436      0.320653
    18     1      0.219098      0.764711      0.319957
    19     1      0.208827      0.943772      0.484305
    20     1      0.963946      0.693018      0.485660
    21     1      0.904683      0.544252      0.652514
    22     1      0.157603      0.794970      0.653225
    23     1      0.329540      0.899238      0.821662
    24     1      0.073791      0.649309      0.821669
    25     1      0.549114      0.987199      0.986130
    26     1      0.791220      0.237992      0.985565
    27     1      0.772987      0.409953      0.153163
    28     1      0.523817      0.159630      0.151412
    29     1      0.467847      0.015846      0.319812
    30     1      0.720784      0.265104      0.320249
    31     1      0.709985      0.444939      0.484593
    32     1      0.459098      0.193545      0.484206
    33     1      0.409402      0.042828      0.650897
    34     1      0.651996      0.294783      0.651217
    35     1      0.823724      0.399338      0.820535
    36     1      0.572483      0.150236      0.820172
    37     1      0.541753      0.488382      0.987958
    38     1      0.794423      0.737917      0.989032
    39     1      0.776458      0.908945      0.152459
    40     1      0.525571      0.659996      0.152918
    41     1      0.469449      0.513582      0.319367
    42     1      0.720813      0.764007      0.320626
    43     1      0.712268      0.943409      0.483886
    44     1      0.462119      0.694510      0.485229
    45     1      0.404292      0.544294      0.653277
    46     1      0.658512      0.793754      0.653187
    47     1      0.829117      0.898921      0.822504
    48     1      0.575840      0.649158      0.822891
ITEM: TIMESTEP
64050
ITEM: NUMBER OF ATOMS
48
ITEM: BOX BOUNDS xy xz yz  pp  pp  pp
     -0.003081      2.203080      0.000000
     -0.005336      3.815850      0.000000
     -0.007546      5.396420      0.000000
ITEM: ATOMS id type xs ys zs
     1     1      0.048194      0.988374      0.987149
     2     1      0.293117      0.238468      0.986865
     3     1      0.273960      0.409348      0.151746
     4     1      0.024522      0.159863      0.150513
     5     1      0.968152      0.015666      0.319119
     6     1      0.219657      0.263267      0.319618
     7     1      0.211329      0.442623      0.485028
     8     1      0.958069      0.194695      0.484915
     9     1      0.906305      0.043590      0.652369
    10     1      0.153888      0.293583      0.653015
    11     1      0.323794      0.400787      0.822769
    12     1      0.073037      0.150074      0.821805
    13     1      0.040705      0.488008      0.987243
    14     1      0.294249      0.737135      0.987533
    15     1      0.276619      0.909107      0.151424
    16     1      0.025534      0.658599      0.152518
    17     1      0.971433      0.513448      0.321119
    18     1      0.219998      0.763987      0.320385
    19     1      0.209909      0.942978      0.483894
    20     1      0.961543      0.691722      0.485521
    21     1      0.905357      0.543494      0.652599
    22     1      0.157402      0.794523      0.652962
    23     1      0.328563      0.899427      0.822007
    24     1      0.073633      0.650303      0.822376
    25     1      0.548461      0.987807      0.986092
    26     1      0.792598      0.237925      0.986531
    27     1      0.774592      0.410538      0.152442
    28     1      0.524881      0.159837      0.151838
    29     1      0.468458      0.014689      0.319246
    30     1      0.721477      0.265635      0.319823
    31     1      0.710271      0.444590      0.484526
    32     1      0.459844      0.192567      0.483796
    33     1      0.408917      0.042345      0.650951
    34     1      0.652723      0.294346      0.651313
    35     1      0.823210      0.399479      0.820609
    36     1      0.572951      0.150755      0.820359
    37     1      0.543000      0.488760      0.987530
    38     1      0.795076      0.738254      0.988571
    39     1      0.776550      0.909063      0.152035
    40     1      0.526501      0.660615      0.153097
    41     1      0.469603      0.514821      0.319839
    42     1      0.721281      0.764542      0.320991
    43     1      0.711833      0.943357      0.484097
    44     1      0.460791      0.693042      0.485378
    45     1      0.404791      0.544010      0.653476
    46     1      0.658699      0.793027      0.653125
    47     1      0.828169      0.899826      0.822639
    48     1      0.574774      0.649673      0.823027
ITEM: TIMESTEP
64100
ITEM: NUMBER OF ATOMS
48
ITEM: BOX BOUNDS xy xz yz  pp  pp  pp
     -0.003081      2.203080      0.000000
     -0.005336      3.815850      0.000000
     -0.007546      5.396420      0.000000
ITEM: ATOMS id type xs ys zs
     1     1      0.047896      0.988989      0.986559
     2     1      0.294110      0.239239      0.986850
     3     1      0.274932      0.409417      0.151208
     4     1      0.026803      0.160155      0.151209
     5     1      0.968757      0.015438      0.319277
     6     1      0.221653      0.264566      0.319338
     7     1      0.210023      0.442097      0.484673
     8     1      0.958084      0.193290      0.484421
     9     1      0.906785      0.042020      0.652512
    10     1      0.155061      0.292828      0.652732
    11     1      0.322419      0.400624      0.822657
    12     1      0.073020      0.150855      0.821506
    13     1      0.042184      0.487989      0.987748
    14     1      0.294456      0.738071      0.987344
    15     1      0.276486      0.908814      0.151256
    16     1      0.025170      0.658940      0.152325
    17     1      0.970273      0.514902      0.320944
    18     1      0.221144      0.764336      0.320289
    19     1      0.208809      0.942319      0.484224
    20     1      0.960713      0.691371      0.485300
    21     1      0.906494      0.542815      0.652712
    22     1      0.157390      0.793419      0.652757
    23     1      0.326681      0.900474      0.821847
    24     1      0.074509      0.650083      0.822369
    25     1      0.548008      0.987483      0.986176
    26     1      0.793402      0.238001      0.986320
    27     1      0.774884      0.410053      0.152207
    28     1      0.526298      0.160107      0.151638
    29     1      0.469427      0.014768      0.319697
    30     1      0.721025      0.265453      0.319846
    31     1      0.708868      0.443133      0.484695
    32     1      0.459284      0.192218      0.484257
    33     1      0.408833      0.041994      0.651163
    34     1      0.654062      0.293763      0.651722
    35     1      0.822615      0.399568      0.821283
    36     1      0.574031      0.149392      0.820767
    37     1      0.543052      0.489057      0.987477
    38     1      0.796145      0.738498      0.988271
    39     1      0.776434      0.909772      0.151998
    40     1      0.526719      0.660740      0.153082
    41     1      0.469514      0.514289      0.320078
    42     1      0.721433      0.765051      0.320463
    43     1      0.709641      0.942781      0.484087
    44     1      0.461741      0.692586      0.485520
    45     1      0.404644      0.543838      0.653112
    46     1      0.658486      0.792597      0.652903
    47     1      0.827636      0.900193      0.822392
    48     1      0.576501      0.649762      0.822730
ITEM: TIMESTEP
64150
ITEM: NUMBER OF ATOMS
48
ITEM: BOX BOUNDS xy xz yz  pp  pp  pp
     -0.003081      2.203080      0.000000
     -0.005336      3.815850      0.000000
     -0.007546      5.396420      0.000000
ITEM: ATOMS id type xs ys zs
     1     1      0.048951      0.989101      0.987301
     2     1      0.294265      0.239440      0.987041
     3     1      0.276935      0.410499      0.151186
     4     1      0.026678      0.160312      0.151060
     5     1      0.968509      0.015469      0.319291
     6     1      0.220939      0.264325      0.318911
     7     1      0.208486      0.441135      0.484798
     8     1      0.958357      0.192664      0.485113
     9     1      0.907590      0.042035      0.652512
    10     1      0.154876      0.291875      0.652705
    11     1      0.322092      0.400436      0.822640
    12     1      0.073013      0.150047      0.821711
    13     1      0.042459      0.488199      0.986909
    14     1      0.295128      0.737806      0.987493
    15     1      0.276177      0.909346      0.151614
    16     1      0.026930      0.659551      0.152824
    17     1      0.968988      0.514405      0.320583
    18     1      0.219858      0.765147      0.320418
    19     1      0.207889      0.941987      0.484366
    20     1      0.960664      0.691434      0.485059
    21     1      0.905958      0.542206      0.653274
    22     1      0.157075      0.793013      0.652867
    23     1      0.326676      0.899696      0.822080
    24     1      0.074615      0.649958      0.822180
    25     1      0.548047      0.988312      0.986298
    26     1      0.794187      0.237890      0.986320
    27     1      0.776346      0.410410      0.151952
    28     1      0.527341      0.160505      0.151746
    29     1      0.468968      0.014533      0.319281
    30     1      0.720726      0.265484      0.319448
    31     1      0.709163      0.443065      0.485121
    32     1      0.459580      0.192135      0.483890
    33     1      0.408061      0.041463      0.650928
    34     1      0.654154      0.293710      0.652097
    35     1      0.821508      0.399507      0.821585
    36     1      0.573075      0.148984      0.820443
    37     1      0.543840      0.489255      0.987530
    38     1      0.796310      0.738561      0.987929
    39     1      0.776821      0.910766      0.151532
    40     1      0.528812      0.660558      0.152251
    41     1      0.469569      0.514767      0.319760
    42     1      0.721795      0.765334      0.319806
    43     1      0.708869      0.942267      0.484516
    44     1      0.460459      0.692265      0.485600
    45     1      0.404411      0.543079      0.653209
    46     1      0.658444      0.791696      0.653222
    47     1      0.825821      0.899048      0.822409
    48     1      0.574865      0.649899      0.822606
ITEM: TIMESTEP
64200
ITEM: NUMBER OF ATOMS
48
ITEM: BOX BOUNDS xy xz yz  pp  pp  pp
     -0.003081      2.203080      0.000000
     -0.005336      3.815850      0.000000
     -0.007546      5.396420      0.000000
ITEM: ATOMS id type xs ys zs
     1     1      0.048085      0.989452      0.986976
     2     1      0.295230      0.239039      0.986300
     3     1      0.278286      0.410375      0.151290
     4     1      0.028147      0.161090      0.151569
     5     1      0.969555      0.015349      0.319972
     6     1      0.220758      0.264402      0.318910
     7     1      0.207804      0.441002      0.484903
     8     1      0.958080      0.191921      0.485024
     9     1      0.908214      0.041748      0.652928
    10     1      0.154818      0.291732      0.652999
    11     1      0.322587      0.400118      0.822002
    12     1      0.071441      0.150248      0.822186
    13     1      0.043888      0.488838      0.987329
    14     1      0.294789      0.737506      0.987569
    15     1      0.277495      0.910140      0.151709
    16     1      0.027590      0.660362      0.152429
    17     1      0.970807      0.514816      0.320538
    18     1      0.221112      0.765129      0.320199
    19     1      0.208390      0.941940      0.484691
    20     1      0.958802      0.691277      0.485448
    21     1      0.907538      0.541747      0.653378
    22     1      0.156848      0.791980      0.652358
    23     1      0.324855      0.899392      0.821628
    24     1      0.075168      0.649720      0.822261
    25     1      0.547579      0.988527      0.986818
    26     1      0.794260      0.238646      0.986744
    27     1      0.779006      0.410944      0.151925
    28     1      0.527394      0.159667      0.151567
    29     1      0.470341      0.015342      0.319509
    30     1      0.721168      0.264948      0.319422
    31     1      0.708716      0.442351      0.485318
    32     1      0.459257      0.191487      0.484055
    33     1      0.408163      0.041520      0.651052
    34     1      0.654340      0.291979      0.652163
    35     1      0.821315      0.400040      0.822139
    36     1      0.573481      0.149076      0.820435
    37     1      0.545244      0.489065      0.987018
    38     1      0.796391      0.739583      0.987540
    39     1      0.778169      0.911111      0.151480
    40     1      0.530065      0.661114      0.152199
    41     1      0.471162      0.515822      0.320104
    42     1      0.722174      0.765786      0.319758
    43     1      0.709302      0.942128      0.485062
    44     1      0.459689      0.691692      0.485564
    45     1      0.405432      0.542852      0.653388
    46     1      0.658161      0.791354      0.652944
    47     1      0.824554      0.898600      0.822134
    48     1      0.572970      0.649666      0.822167
ITEM: TIMESTEP
64250
ITEM: NUMBER OF ATOMS
48
ITEM: BOX BOUNDS xy xz yz  pp  pp  pp
     -0.003081      2.203080      0.000000
     -0.005336      3.815850      0.000000
     -0.007546      5.396420      0.000000
ITEM: ATOMS id type xs ys zs
     1     1      0.048641      0.989837      0.986651
     2     1      0.296982      0.239780      0.986787
     3     1      0.280428      0.410845      0.151629
     4     1      0.028490      0.160329      0.151760
     5     1      0.968020      0.015160      0.320106
     6     1      0.221797      0.265237      0.318159
     7     1      0.208129      0.441363      0.485305
     8     1      0.956626      0.192177      0.484630
     9     1      0.915566      0.040780      0.653797
    10     1      0.154498      0.291181      0.652256
    11     1      0.323030      0.399322      0.821707
    12     1      0.083371      0.150412      0.822598
    13     1      0.045447      0.488134      0.987087
    14     1      0.293968      0.738646      0.987311
    15     1      0.276714      0.909281      0.151581
    16     1      0.028884      0.660350      0.152606
    17     1      0.971840      0.514734      0.320379
    18     1      0.221350      0.765098      0.320037
    19     1      0.197731      0.941931      0.484528
    20     1      0.958843      0.691552      0.485400
    21     1      0.905587      0.541639      0.653087
    22     1      0.156437      0.790718      0.652179
    23     1      0.324406      0.898908      0.822047
    24     1      0.074469      0.648689      0.822484
    25     1      0.547543      0.989035      0.986415
    26     1      0.794149      0.237519      0.986151
    27     1      0.779233      0.409882      0.152314
    28     1      0.527537      0.160778      0.151407
    29     1      0.470010      0.014254      0.320388
    30     1      0.722058      0.264733      0.319645
    31     1      0.709291      0.441857      0.485159
    32     1      0.449546      0.200418      0.483528
    33     1      0.392903      0.041687      0.651775
    34     1      0.655237      0.292777      0.651052
    35     1      0.822020      0.398867      0.822309
    36     1      0.623847      0.123134      0.801258
    37     1      0.547105      0.489668      0.986480
    38     1      0.796188      0.739100      0.988225
    39     1      0.777800      0.911286      0.152208
    40     1      0.529448      0.661992      0.151977
    41     1      0.471900      0.516071      0.320392
    42     1      0.722405      0.765795      0.320021
    43     1      0.663459      0.967191      0.505096
    44     1      0.459065      0.692395      0.485743
    45     1      0.406326      0.542746      0.653281
    46     1      0.657423      0.790580      0.653738
    47     1      0.834551      0.889948      0.823520
    48     1      0.572411      0.650046      0.822671
ITEM: TIMESTEP
64300
ITEM: NUMBER OF ATOMS
48
ITEM: BOX BOUNDS xy xz yz  pp  pp  pp
     -0.003081      2.203080      0.000000
     -0.005336      3.815850      0.000000
     -0.007546      5.396420      0.000000
ITEM: ATOMS id type xs ys zs
     1     1      0.048560      0.989967      0.987204
     2     1      0.297914      0.239785      0.986978
     3     1      0.280196      0.411727      0.151901
     4     1      0.028392      0.160371      0.151790
     5     1      0.966188      0.015275      0.320535
     6     1      0.222885      0.264981      0.319471
     7     1      0.204988      0.445615      0.485472
     8     1      0.945217      0.190699      0.481745
     9     1      0.914034      0.039710      0.655071
    10     1      0.165157      0.294004      0.655371
    11     1      0.325780      0.398549      0.821882
    12     1      0.091808      0.148794      0.822550
    13     1      0.044628      0.487811      0.987079
    14     1      0.295180      0.738616      0.987563
    15     1      0.278471      0.910057      0.152240
    16     1      0.027822      0.660683      0.152230
    17     1      0.976640      0.516270      0.317366
    18     1      0.220074      0.764985      0.320093
    19     1      0.192895      0.940049      0.484555
    20     1      0.957082      0.692764      0.485086
    21     1      0.905390      0.542972      0.652146
    22     1      0.156814      0.790075      0.652753
    23     1      0.326193      0.898056      0.822371
    24     1      0.076210      0.645838      0.822585
    25     1      0.547166      0.989370      0.985682
    26     1      0.793980      0.237910      0.985432
    27     1      0.779933      0.410606      0.151887
    28     1      0.526803      0.161350      0.152002
    29     1      0.470299      0.014875      0.320899
    30     1      0.719022      0.262772      0.318057
    31     1      0.710486      0.443270      0.462625
    32     1      0.406810      0.199359      0.500596
    33     1      0.394369      0.037290      0.653891
    34     1      0.702541      0.291865      0.632354
    35     1      0.821761      0.397810      0.819924
    36     1      0.611773      0.134572      0.808022
    37     1      0.546136      0.489919      0.986763
    38     1      0.795439      0.738848      0.988625
    39     1      0.778547      0.911300      0.151978
    40     1      0.525612      0.663745      0.171482
    41     1      0.463229      0.514561      0.319263
    42     1      0.725252      0.767934      0.323200
    43     1      0.675456      0.959345      0.496772
    44     1      0.459548      0.693357      0.485061
    45     1      0.406912      0.541846      0.652833
    46     1      0.656497      0.790576      0.653943
    47     1      0.835632      0.889423      0.823113
    48     1      0.574647      0.649505      0.822892
ITEM: TIMESTEP
64350
ITEM: NUMBER OF ATOMS
48
ITEM: BOX BOUNDS xy xz yz  pp  pp  pp
     -0.003081      2.203080      0.000000
     -0.005336      3.815850      0.000000
     -0.007546      5.396420      0.000000
ITEM: ATOMS id type xs ys zs
     1     1      0.047347      0.990640      0.986976
     2     1      0.296547      0.238804      0.986648
     3     1      0.279690      0.411632      0.151876
     4     1      0.027714      0.160590      0.151229
     5     1      0.958931      0.015308      0.320176
     6     1      0.164298      0.266646      0.320351
     7     1      0.205392      0.445932      0.485653
     8     1      0.942588      0.196501      0.483256
     9     1      0.903364      0.037923      0.651439
    10     1      0.169369      0.292675      0.653879
    11     1      0.325929      0.398691      0.822920
    12     1      0.101239      0.119529      0.804327
    13     1      0.045202      0.487401      0.986222
    14     1      0.296176      0.738236      0.988572
    15     1      0.278802      0.911303      0.151305
    16     1      0.028648      0.661418      0.151476
    17     1      0.974026      0.518211      0.316965
    18     1      0.219405      0.766026      0.320224
    19     1      0.195504      0.969824      0.504833
    20     1      0.957834      0.693261      0.485385
    21     1      0.906183      0.542582      0.650929
    22     1      0.154753      0.788977      0.653452
    23     1      0.330958      0.892785      0.822765
    24     1      0.075425      0.645694      0.822032
    25     1      0.547462      0.990365      0.985334
    26     1      0.794418      0.237749      0.984829
    27     1      0.778865      0.411015      0.151462
    28     1      0.527247      0.160499      0.151729
    29     1      0.485971      0.016107      0.322313
    30     1      0.705845      0.262960      0.317718
    31     1      0.710556      0.442460      0.473375
    32     1      0.426984      0.199659      0.493249
    33     1      0.407981      0.039095      0.658466
    34     1      0.689391      0.291856      0.639148
    35     1      0.823240      0.396732      0.818710
    36     1      0.607875      0.141263      0.811606
    37     1      0.546670      0.491299      0.987976
    38     1      0.794855      0.738952      0.989272
    39     1      0.779232      0.911129      0.151329
    40     1      0.525269      0.665173      0.161419
    41     1      0.461039      0.513453      0.319740
    42     1      0.724384      0.769445      0.323963
    43     1      0.719532      0.950317      0.490790
    44     1      0.458862      0.695282      0.485009
    45     1      0.409454      0.540905      0.651788
    46     1      0.655667      0.790962      0.653822
    47     1      0.832214      0.890575      0.823123
    48     1      0.574221      0.648332      0.822584
ITEM: TIMESTEP
64400
ITEM: NUMBER OF ATOMS
48
ITEM: BOX BOUNDS xy xz yz  pp  pp  pp
     -0.003081      2.203080      0.000000
     -0.005336      3.815850      0.000000
     -0.007546      5.396420      0.000000
ITEM: ATOMS id type xs ys zs
     1     1      0.049498      0.990038      0.986384
     2     1      0.295635      0.238158      0.985745
     3     1      0.279215      0.410972      0.151461
     4     1      0.027216      0.159805      0.150300
     5     1      0.966426      0.014884      0.321290
     6     1      0.187579      0.266283      0.320414
     7     1      0.203715      0.445513      0.485567
     8     1      0.939416      0.196942      0.484824
     9     1      0.904081      0.037931      0.651708
    10     1      0.169827      0.291245      0.652455
    11     1      0.324957      0.396685      0.822416
    12     1      0.104429      0.131764      0.813032
    13     1      0.045160      0.488544      0.986418
    14     1      0.296331      0.738319      0.988998
    15     1      0.279516      0.911492      0.152388
    16     1      0.028566      0.661410      0.151462
    17     1      0.968854      0.518307      0.317874
    18     1      0.221296      0.767649      0.320835
    19     1      0.196976      0.957958      0.495471
    20     1      0.959123      0.695427      0.486008
    21     1      0.907902      0.541679      0.650808
    22     1      0.157111      0.789445      0.653849
    23     1      0.334958      0.890148      0.822949
    24     1      0.075766      0.645454      0.821711
    25     1      0.548866      0.990109      0.985474
    26     1      0.795230      0.239457      0.984978
    27     1      0.778947      0.409918      0.151315
    28     1      0.527424      0.159901      0.150831
    29     1      0.472378      0.016501      0.322421
    30     1      0.698047      0.265057      0.319008
    31     1      0.707692      0.444333      0.477689
    32     1      0.435717      0.199308      0.489001
    33     1      0.410996      0.039281      0.657776
    34     1      0.679767      0.291515      0.643197
    35     1      0.826481      0.396581      0.818528
    36     1      0.605867      0.144387      0.815512
    37     1      0.546025      0.490916      0.987735
    38     1      0.794854      0.739026      0.989157
    39     1      0.779501      0.911255      0.151648
    40     1      0.526120      0.663612      0.157293
    41     1      0.460690      0.513528      0.319411
    42     1      0.721687      0.767582      0.322936
    43     1      0.705608      0.946295      0.487844
    44     1      0.456205      0.696511      0.486054
    45     1      0.410122      0.539949      0.652250
    46     1      0.655752      0.789624      0.653957
    47     1      0.831734      0.891038      0.822834
    48     1      0.574154      0.646059      0.822765
ITEM: TIMESTEP
64450
ITEM: NUMBER OF ATOMS
48
ITEM: BOX BOUNDS xy xz yz  pp  pp  pp
     -0.003081      2.203080      0.000000
     -0.005336      3.815850      0.000000
     -0.007546      5.396420      0.000000
ITEM: ATOMS id type xs ys zs
     1     1      0.048438      0.989519      0.985951
     2     1      0.296193      0.239006      0.985241
     3     1      0.278678      0.409889      0.151366
     4     1      0.026027      0.160207      0.150142
     5     1      0.967972      0.015304      0.321363
     6     1      0.195956      0.266901      0.320809
     7     1      0.202714      0.445897      0.484848
     8     1      0.939695      0.197052      0.485484
     9     1      0.905946      0.037624      0.652721
    10     1      0.168228      0.289950      0.651042
    11     1      0.326059      0.395829      0.821727
    12     1      0.103558      0.137123      0.815997
    13     1      0.043748      0.488004      0.987015
    14     1      0.295287      0.738913      0.988950
    15     1      0.278854      0.912154      0.153247
    16     1      0.028576      0.662043      0.151528
    17     1      0.966716      0.518758      0.318324
    18     1      0.220897      0.767596      0.321277
    19     1      0.196601      0.952389      0.492583
    20     1      0.957982      0.696533      0.486101
    21     1      0.909322      0.540574      0.650183
    22     1      0.157081      0.788527      0.654023
    23     1      0.335424      0.890323      0.822848
    24     1      0.076536      0.645173      0.822101
    25     1      0.546907      0.990164      0.985650
    26     1      0.795544      0.239376      0.984991
    27     1      0.778009      0.410253      0.151507
    28     1      0.526645      0.159806      0.150345
    29     1      0.468050      0.017035      0.322395
    30     1      0.698297      0.265836      0.319517
    31     1      0.705862      0.446206      0.480110
    32     1      0.439506      0.197778      0.487134
    33     1      0.410884      0.039341      0.656108
    34     1      0.674418      0.290803      0.645578
    35     1      0.827745      0.396769      0.818749
    36     1      0.604151      0.144857      0.816660
    37     1      0.545730      0.490816      0.987352
    38     1      0.795660      0.738921      0.988373
    39     1      0.779537      0.911034      0.152145
    40     1      0.528021      0.662727      0.155203
    41     1      0.461119      0.514831      0.319473
    42     1      0.721145      0.766818      0.322146
    43     1      0.700928      0.944656      0.487323
    44     1      0.455996      0.695632      0.486707
    45     1      0.410802      0.538913      0.652329
    46     1      0.657117      0.788964      0.654019
    47     1      0.833392      0.892037      0.822428
    48     1      0.575737      0.645196      0.822732
ITEM: TIMESTEP
64500
ITEM: NUMBER OF ATOMS
48
ITEM: BOX BOUNDS xy xz yz  pp  pp  pp
     -0.003081      2.203080      0.000000
     -0.005336      3.815850      0.000000
     -0.007546      5.396420      0.000000
ITEM: ATOMS id type xs ys zs
     1     1      0.049157      0.990320      0.986015
     2     1      0.295910      0.238476      0.985252
     3     1      0.278224      0.410124      0.150882
     4     1      0.027189      0.160886      0.150611
     5     1      0.966943      0.015899      0.321010
     6     1      0.200204      0.266922      0.320232
     7     1      0.202239      0.445422      0.484960
     8     1      0.942126      0.195787      0.485570
     9     1      0.907170      0.038128      0.652597
    10     1      0.166534      0.288633      0.651092
    11     1      0.328715      0.395826      0.821721
    12     1      0.099667      0.139598      0.817373
    13     1      0.044949      0.488483      0.987075
    14     1      0.294928      0.738604      0.988638
    15     1      0.278858      0.911904      0.152422
    16     1      0.028211      0.661991      0.152145
    17     1      0.965914      0.519023      0.318388