ITEM: TIMESTEP
64001
ITEM: NUMBER OF ATOMS
48
ITEM: BOX BOUNDS xy xz yz  pp  pp  pp
     -0.003081      2.203080      0.000000
     -0.005336      3.815850      0.000000
     -0.007546      5.396420      0.000000
ITEM: ATOMS id type xs ys zs
     1     1      0.048874      0.988183      0.986915
     2     1      0.292947      0.237357      0.986135
     3     1      0.272187      0.408631      0.151639
     4     1      0.021966      0.159400      0.150395
     5     1      0.967322      0.015429      0.318995
     6     1      0.220222      0.262769      0.318757
     7     1      0.212237      0.443184      0.485041
     8     1      0.959281      0.195859      0.485239
     9     1      0.907822      0.044638      0.651849
    10     1      0.153699      0.294613      0.653607
    11     1      0.322586      0.400922      0.822894
    12     1      0.073760      0.149414      0.821696
    13     1      0.039010      0.487281      0.987036
    14     1      0.292427      0.735773      0.986919
    15     1      0.277905      0.908783      0.151203
    16     1      0.026135      0.657956      0.152824
    17     1      0.971675      0.513418      0.320613
    18     1      0.219411      0.764629      0.319878
    19     1      0.208982      0.943837      0.484223
    20     1      0.963831      0.692959      0.485743
    21     1      0.904696      0.544225      0.652595
    22     1      0.157746      0.794988      0.653184
    23     1      0.329408      0.899327      0.821707
    24     1      0.073747      0.649163      0.821621
    25     1      0.548995      0.987308      0.986167
    26     1      0.791058      0.237929      0.985586
    27     1      0.772861      0.409872      0.153126
    28     1      0.523563      0.159811      0.151446
    29     1      0.467994      0.015921      0.319782
    30     1      0.720581      0.265017      0.320239
    31     1      0.709827      0.444684      0.484657
    32     1      0.459058      0.193591      0.484226
    33     1      0.409033      0.042804      0.651037
    34     1      0.651945      0.294882      0.651277
    35     1      0.823481      0.399291      0.820563
    36     1      0.572423      0.150237      0.820114
    37     1      0.541754      0.488393      0.987993
    38     1      0.794176      0.737843      0.988905
    39     1      0.776351      0.909061      0.152457
    40     1      0.525743      0.659909      0.152869
    41     1      0.469401      0.513596      0.319514
    42     1      0.720707      0.764032      0.320645
    43     1      0.712166      0.943320      0.483987
    44     1      0.462164      0.694546      0.485174
    45     1      0.404429      0.544742      0.653157
    46     1      0.658482      0.793758      0.653126
    47     1      0.829043      0.898781      0.822464
    48     1      0.575548      0.649333      0.822903
ITEM: TIMESTEP
64050
ITEM: NUMBER OF ATOMS
48
ITEM: BOX BOUNDS xy xz yz  pp  pp  pp
     -0.003081      2.203080      0.000000
     -0.005336      3.815850      0.000000
     -0.007546      5.396420      0.000000
ITEM: ATOMS id type xs ys zs
     1     1      0.049854      0.988197      0.986820
     2     1      0.293479      0.238848      0.986355
     3     1      0.274295      0.409422      0.151369
     4     1      0.023560      0.159847      0.150498
     5     1      0.970248      0.015767      0.319330
     6     1      0.219930      0.264315      0.319028
     7     1      0.210732      0.443425      0.485245
     8     1      0.957789      0.194696      0.485652
     9     1      0.906913      0.043785      0.652050
    10     1      0.152902      0.294928      0.653373
    11     1      0.322406      0.400506      0.822161
    12     1      0.072299      0.149261      0.821154
    13     1      0.039448      0.487972      0.986603
    14     1      0.294547      0.737138      0.986765
    15     1      0.277762      0.909168      0.151554
    16     1      0.026055      0.658773      0.152613
    17     1      0.971022      0.513607      0.320413
    18     1      0.219280      0.764665      0.319985
    19     1      0.207184      0.943431      0.484509
    20     1      0.960574      0.693055      0.485878
    21     1      0.904369      0.543890      0.652080
    22     1      0.157431      0.794106      0.652787
    23     1      0.326789      0.899466      0.821494
    24     1      0.073680      0.648721      0.821671
    25     1      0.548636      0.988567      0.986429
    26     1      0.791603      0.238645      0.985459
    27     1      0.773925      0.409736      0.152638
    28     1      0.525682      0.159980      0.151195
    29     1      0.469238      0.014973      0.319768
    30     1      0.720035      0.264779      0.320063
    31     1      0.708772      0.443719      0.484446
    32     1      0.458479      0.193472      0.483930
    33     1      0.408727      0.043106      0.651068
    34     1      0.653515      0.294068      0.651099
    35     1      0.822659      0.399001      0.821454
    36     1      0.571357      0.150596      0.820304
    37     1      0.542301      0.488953      0.987613
    38     1      0.793065      0.738848      0.988424
    39     1      0.776525      0.909488      0.152378
    40     1      0.525851      0.659557      0.152907
    41     1      0.469771      0.513889      0.319848
    42     1      0.720506      0.764269      0.321004
    43     1      0.710780      0.942839      0.484451
    44     1      0.458828      0.693735      0.485447
    45     1      0.405427      0.544773      0.653350
    46     1      0.659142      0.793866      0.653226
    47     1      0.828898      0.898909      0.822707
    48     1      0.574405      0.649272      0.822906
ITEM: TIMESTEP
64100
ITEM: NUMBER OF ATOMS
48
ITEM: BOX BOUNDS xy xz yz  pp  pp  pp
     -0.003081      2.203080      0.000000
     -0.005336      3.815850      0.000000
     -0.007546      5.396420      0.000000
ITEM: ATOMS id type xs ys zs
     1     1      0.049390      0.988533      0.986869
     2     1      0.292890      0.239666      0.986482
     3     1      0.275145      0.410159      0.151641
     4     1      0.024816      0.159897      0.151033
     5     1      0.970368      0.015343      0.320157
     6     1      0.219562      0.264810      0.318913
     7     1      0.209081      0.442939      0.485276
     8     1      0.957828      0.194330      0.485377
     9     1      0.905733      0.042755      0.651986
    10     1      0.154377      0.293690      0.652877
    11     1      0.323157      0.400773      0.822233
    12     1      0.073466      0.149596      0.821010
    13     1      0.040298      0.488569      0.986971
    14     1      0.295613      0.737820      0.986551
    15     1      0.277991      0.909030      0.151475
    16     1      0.026147      0.659717      0.152430
    17     1      0.969715      0.515121      0.320023
    18     1      0.221177      0.764892      0.320371
    19     1      0.206464      0.943525      0.484633
    20     1      0.959861      0.692354      0.486086
    21     1      0.905516      0.543123      0.652369
    22     1      0.157859      0.792777      0.652904
    23     1      0.326892      0.900130      0.821566
    24     1      0.074794      0.649167      0.821437
    25     1      0.548449      0.989476      0.986707
    26     1      0.793223      0.238419      0.986046
    27     1      0.774145      0.409492      0.152702
    28     1      0.526302      0.160475      0.151558
    29     1      0.470605      0.014269      0.319806
    30     1      0.719959      0.264431      0.319834
    31     1      0.707815      0.443963      0.484807
    32     1      0.456000      0.193089      0.484394
    33     1      0.407581      0.042298      0.651765
    34     1      0.654248      0.293567      0.651515
    35     1      0.821886      0.399278      0.820670
    36     1      0.572351      0.150530      0.820499
    37     1      0.542204      0.489175      0.987717
    38     1      0.793192      0.738834      0.987892
    39     1      0.776569      0.910548      0.152290
    40     1      0.526334      0.660063      0.152432
    41     1      0.469867      0.513784      0.319833
    42     1      0.720981      0.763985      0.320755
    43     1      0.708718      0.942559      0.485078
    44     1      0.458696      0.693435      0.485367
    45     1      0.405256      0.543966      0.653496
    46     1      0.658050      0.793279      0.653041
    47     1      0.826930      0.899782      0.821961
    48     1      0.573755      0.650256      0.822624
ITEM: TIMESTEP
64150
ITEM: NUMBER OF ATOMS
48
ITEM: BOX BOUNDS xy xz yz  pp  pp  pp
     -0.003081      2.203080      0.000000
     -0.005336      3.815850      0.000000
     -0.007546      5.396420      0.000000
ITEM: ATOMS id type xs ys zs
     1     1      0.047427      0.988867      0.986327
     2     1      0.292136      0.239383      0.986122
     3     1      0.275994      0.410328      0.151646
     4     1      0.026238      0.160559      0.151268
     5     1      0.969886      0.014849      0.319252
     6     1      0.220807      0.263825      0.319117
     7     1      0.209184      0.441855      0.485135
     8     1      0.956175      0.193691      0.484866
     9     1      0.905929      0.042026      0.652524
    10     1      0.154460      0.292100      0.652582
    11     1      0.322368      0.400381      0.822037
    12     1      0.073751      0.150809      0.820834
    13     1      0.040893      0.489450      0.987160
    14     1      0.295384      0.738739      0.986866
    15     1      0.278083      0.910251      0.151439
    16     1      0.027476      0.660303      0.151877
    17     1      0.970939      0.514898      0.320416
    18     1      0.221302      0.765277      0.320020
    19     1      0.205450      0.942740      0.484265
    20     1      0.959032      0.692262      0.485699
    21     1      0.905325      0.542066      0.652092
    22     1      0.158279      0.792433      0.652733
    23     1      0.326400      0.900156      0.821900
    24     1      0.072010      0.650091      0.821666
    25     1      0.548600      0.989551      0.986782
    26     1      0.793440      0.238666      0.986197
    27     1      0.776259      0.409535      0.152253
    28     1      0.525975      0.160406      0.151491
    29     1      0.472012      0.014014      0.319566
    30     1      0.719977      0.264965      0.319606
    31     1      0.707660      0.443223      0.485091
    32     1      0.457157      0.191774      0.484593
    33     1      0.405966      0.041645      0.651619
    34     1      0.654481      0.292552      0.651926
    35     1      0.821686      0.400053      0.821260
    36     1      0.571554      0.150146      0.820653
    37     1      0.543013      0.489103      0.987571
    38     1      0.794337      0.739465      0.987827
    39     1      0.776573      0.910470      0.152274
    40     1      0.527097      0.659332      0.151970
    41     1      0.468515      0.514112      0.320082
    42     1      0.721466      0.764045      0.320652
    43     1      0.708274      0.942015      0.484833
    44     1      0.458686      0.692035      0.485049
    45     1      0.405635      0.542283      0.653325
    46     1      0.656889      0.792399      0.652742
    47     1      0.826644      0.899657      0.821428
    48     1      0.572618      0.650882      0.822524
ITEM: TIMESTEP
64200
ITEM: NUMBER OF ATOMS
48
ITEM: BOX BOUNDS xy xz yz  pp  pp  pp
     -0.003081      2.203080      0.000000
     -0.005336      3.815850      0.000000
     -0.007546      5.396420      0.000000
ITEM: ATOMS id type xs ys zs
     1     1      0.046281      0.989700      0.986310
     2     1      0.292644      0.239718      0.986460
     3     1      0.276545      0.410078      0.151718
     4     1      0.027078      0.159486      0.151116
     5     1      0.969555      0.015601      0.319180
     6     1      0.219886      0.264667      0.319833
     7     1      0.210221      0.442114      0.484957
     8     1      0.956980      0.193566      0.484634
     9     1      0.906581      0.041766      0.652501
    10     1      0.155176      0.291338      0.652191
    11     1      0.321194      0.400900      0.821944
    12     1      0.073529      0.150795      0.821565
    13     1      0.041498      0.489412      0.986795
    14     1      0.295117      0.739651      0.986865
    15     1      0.278466      0.910212      0.151539
    16     1      0.028296      0.659962      0.151934
    17     1      0.971039      0.515560      0.320504
    18     1      0.221570      0.765166      0.319924
    19     1      0.205062      0.942745      0.485027
    20     1      0.960347      0.691651      0.485703
    21     1      0.906514      0.540954      0.651717
    22     1      0.157000      0.791370      0.653021
    23     1      0.325421      0.900195      0.822478
    24     1      0.071705      0.649792      0.822225
    25     1      0.547440      0.990893      0.987530
    26     1      0.795208      0.239620      0.986702
    27     1      0.776695      0.410872      0.152619
    28     1      0.526672      0.161543      0.151399
    29     1      0.471051      0.014522      0.319758
    30     1      0.719705      0.264515      0.319876
    31     1      0.708148      0.442400      0.484573
    32     1      0.456145      0.191837      0.484551
    33     1      0.406958      0.040136      0.652136
    34     1      0.655764      0.292019      0.651751
    35     1      0.821205      0.400327      0.820964
    36     1      0.571988      0.150496      0.821227
    37     1      0.543343      0.490110      0.986992
    38     1      0.794852      0.740781      0.987612
    39     1      0.778191      0.910079      0.152026
    40     1      0.527609      0.660023      0.151662
    41     1      0.470178      0.515135      0.319759
    42     1      0.721520      0.763748      0.319642
    43     1      0.708240      0.941510      0.485066
    44     1      0.459636      0.692619      0.485182
    45     1      0.406007      0.542169      0.653360
    46     1      0.657842      0.791599      0.652728
    47     1      0.825188      0.900028      0.821516
    48     1      0.573490      0.651130      0.822281
ITEM: TIMESTEP
64250
ITEM: NUMBER OF ATOMS
48
ITEM: BOX BOUNDS xy xz yz  pp  pp  pp
     -0.003081      2.203080      0.000000
     -0.005336      3.815850      0.000000
     -0.007546      5.396420      0.000000
ITEM: ATOMS id type xs ys zs
     1     1      0.047058      0.989729      0.986717
     2     1      0.294330      0.240729      0.986792
     3     1      0.275952      0.410586      0.151246
     4     1      0.027406      0.159810      0.151531
     5     1      0.970347      0.015177      0.319554
     6     1      0.220236      0.264952      0.319799
     7     1      0.209463      0.442284      0.484884
     8     1      0.955705      0.192708      0.485249
     9     1      0.905771      0.041781      0.652208
    10     1      0.155945      0.290874      0.652348
    11     1      0.320609      0.400454      0.821786
    12     1      0.072696      0.151238      0.821896
    13     1      0.041941      0.490182      0.986811
    14     1      0.295520      0.739479      0.987183
    15     1      0.277947      0.911032      0.151891
    16     1      0.029735      0.660274      0.151762
    17     1      0.969219      0.514736      0.320526
    18     1      0.220842      0.765685      0.319586
    19     1      0.206099      0.941885      0.484704
    20     1      0.958819      0.691724      0.485376
    21     1      0.906342      0.540903      0.651467
    22     1      0.158017      0.791224      0.652801
    23     1      0.325608      0.900326      0.823076
    24     1      0.071178      0.650622      0.821690
    25     1      0.547889      0.991346      0.986818
    26     1      0.793598      0.239750      0.986895
    27     1      0.776913      0.411160      0.152186
    28     1      0.526314      0.161677      0.151843
    29     1      0.472265      0.015290      0.319906
    30     1      0.719719      0.265532      0.319875
    31     1      0.707025      0.441975      0.484393
    32     1      0.456835      0.191461      0.484612
    33     1      0.407521      0.039732      0.651883
    34     1      0.656334      0.292183      0.651881
    35     1      0.820838      0.401031      0.820970
    36     1      0.572329      0.150703      0.821163
    37     1      0.543489      0.489321      0.986876
    38     1      0.795553      0.740467      0.987179
    39     1      0.777073      0.910776      0.152713
    40     1      0.527887      0.660237      0.151685
    41     1      0.469365      0.514461      0.319428
    42     1      0.722011      0.764294      0.320073
    43     1      0.707340      0.941328      0.484695
    44     1      0.457820      0.692489      0.485082
    45     1      0.406079      0.541810      0.653252
    46     1      0.657907      0.791186      0.652723
    47     1      0.824328      0.900601      0.821899
    48     1      0.572050      0.650843      0.821781
ITEM: TIMESTEP
64300
ITEM: NUMBER OF ATOMS
48
ITEM: BOX BOUNDS xy xz yz  pp  pp  pp
     -0.003081      2.203080      0.000000
     -0.005336      3.815850      0.000000
     -0.007546      5.396420      0.000000
ITEM: ATOMS id type xs ys zs
     1     1      0.046542      0.989787      0.987197
     2     1      0.294285      0.240294      0.987008
     3     1      0.275946      0.411631      0.151700
     4     1      0.027076      0.161352      0.151912
     5     1      0.970655      0.015403      0.319792
     6     1      0.219046      0.265042      0.319466
     7     1      0.208652      0.441542      0.484837
     8     1      0.956475      0.191367      0.484902
     9     1      0.906625      0.041691      0.651869
    10     1      0.156639      0.291366      0.652388
    11     1      0.319736      0.401124      0.821570
    12     1      0.071038      0.150988      0.822133
    13     1      0.043366      0.490111      0.986578
    14     1      0.295211      0.738939      0.986614
    15     1      0.277707      0.911403      0.151985
    16     1      0.029784      0.661099      0.151958
    17     1      0.969499      0.514439      0.320588
    18     1      0.220127      0.765741      0.320196
    19     1      0.206755      0.940755      0.484284
    20     1      0.958828      0.691136      0.484838
    21     1      0.907809      0.541597      0.651411
    22     1      0.157199      0.790939      0.652330
    23     1      0.323579      0.900331      0.822699
    24     1      0.072520      0.650524      0.821603
    25     1      0.546396      0.990989      0.986866
    26     1      0.794317      0.240476      0.986711
    27     1      0.776827      0.411488      0.151798
    28     1      0.528079      0.161831      0.151279
    29     1      0.471731      0.016147      0.320012
    30     1      0.720645      0.265226      0.319645
    31     1      0.706018      0.441116      0.484814
    32     1      0.456012      0.191096      0.485289
    33     1      0.407225      0.038930      0.652552
    34     1      0.656439      0.291088      0.652099
    35     1      0.820725      0.401528      0.820930
    36     1      0.571894      0.150843      0.821585
    37     1      0.544347      0.489577      0.987037
    38     1      0.796364      0.739756      0.987225
    39     1      0.777761      0.910751      0.152006
    40     1      0.527218      0.660728      0.151352
    41     1      0.469879      0.515040      0.319789
    42     1      0.719438      0.764604      0.319487
    43     1      0.707118      0.941118      0.484996
    44     1      0.457412      0.691724      0.485252
    45     1      0.406671      0.542015      0.652899
    46     1      0.658254      0.790924      0.652275
    47     1      0.823120      0.900842      0.821651
    48     1      0.572285      0.650216      0.822266
ITEM: TIMESTEP
64350
ITEM: NUMBER OF ATOMS
48
ITEM: BOX BOUNDS xy xz yz  pp  pp  pp
     -0.003081      2.203080      0.000000
     -0.005336      3.815850      0.000000
     -0.007546      5.396420      0.000000
ITEM: ATOMS id type xs ys zs
     1     1      0.046246      0.990026      0.986677
     2     1      0.295103      0.240163      0.987036
     3     1      0.275940      0.412076      0.151736
     4     1      0.029386      0.162193      0.151661
     5     1      0.970753      0.015363      0.319606
     6     1      0.220560      0.264624      0.319886
     7     1      0.206813      0.441978      0.484918
     8     1      0.957064      0.191722      0.485108
     9     1      0.906707      0.040679      0.652378
    10     1      0.157116      0.291004      0.652335
    11     1      0.318768      0.401977      0.821699
    12     1      0.071469      0.150775      0.822103
    13     1      0.044414      0.489759      0.986157
    14     1      0.296197      0.739375      0.986344
    15     1      0.276374      0.912102      0.151744
    16     1      0.029300      0.661467      0.152347
    17     1      0.970553      0.514840      0.320128
    18     1      0.218546      0.766483      0.320525
    19     1      0.206605      0.940747      0.484867
    20     1      0.959337      0.690808      0.484488
    21     1      0.907474      0.540854      0.651219
    22     1      0.159042      0.790341      0.652442
    23     1      0.322659      0.900788      0.821894
    24     1      0.070830      0.650552      0.821171
    25     1      0.546125      0.990178      0.987161
    26     1      0.794571      0.239786      0.986617
    27     1      0.777800      0.410660      0.151660
    28     1      0.528962      0.161830      0.151638
    29     1      0.470861      0.016008      0.320010
    30     1      0.721534      0.265482      0.319953
    31     1      0.705506      0.440970      0.484802
    32     1      0.456975      0.191194      0.484883
    33     1      0.405901      0.039014      0.651947
    34     1      0.655991      0.291136      0.651443
    35     1      0.819141      0.400925      0.821080
    36     1      0.571824      0.150720      0.821233
    37     1      0.545583      0.490030      0.986686
    38     1      0.796886      0.740419      0.986723
    39     1      0.777313      0.910824      0.151686
    40     1      0.529256      0.661483      0.151339
    41     1      0.470546      0.515421      0.319317
    42     1      0.721616      0.765275      0.319687
    43     1      0.706760      0.940965      0.485336
    44     1      0.457192      0.691608      0.485230
    45     1      0.407364      0.541381      0.652613
    46     1      0.659506      0.790161      0.652432
    47     1      0.821279      0.901073      0.821461
    48     1      0.570745      0.651197      0.822334
ITEM: TIMESTEP
64400
ITEM: NUMBER OF ATOMS
48
ITEM: BOX BOUNDS xy xz yz  pp  pp  pp
     -0.003081      2.203080      0.000000
     -0.005336      3.815850      0.000000
     -0.007546      5.396420      0.000000
ITEM: ATOMS id type xs ys zs
     1     1      0.046341      0.990241      0.987015
     2     1      0.295641      0.240477      0.986739
     3     1      0.275047      0.412528      0.151018
     4     1      0.028533      0.161346      0.151481
     5     1      0.969628      0.015795      0.319843
     6     1      0.221965      0.265565      0.319760
     7     1      0.208061      0.441659      0.485066
     8     1      0.956777      0.190940      0.484503
     9     1      0.908698      0.040624      0.652626
    10     1      0.158104      0.290174      0.651619
    11     1      0.317437      0.401727      0.821562
    12     1      0.070706      0.151218      0.822051
    13     1      0.046552      0.490690      0.986210
    14     1      0.295998      0.739819      0.986734
    15     1      0.276777      0.911506      0.152006
    16     1      0.027270      0.661973      0.152512
    17     1      0.970964      0.514911      0.320373
    18     1      0.220316      0.766051      0.320347
    19     1      0.207911      0.940506      0.484949
    20     1      0.959089      0.691121      0.484641
    21     1      0.908708      0.539706      0.651397
    22     1      0.161072      0.789661      0.652112
    23     1      0.320209      0.901082      0.822315
    24     1      0.070026      0.651413      0.821390
    25     1      0.545452      0.989995      0.986890
    26     1      0.796101      0.239910      0.986383
    27     1      0.777428      0.411718      0.152041
    28     1      0.528901      0.162191      0.151857
    29     1      0.471843      0.015631      0.319624
    30     1      0.721614      0.266412      0.319965
    31     1      0.706058      0.440055      0.484185
    32     1      0.455985      0.190774      0.485249
    33     1      0.407349      0.039829      0.651550
    34     1      0.657116      0.290143      0.651457
    35     1      0.817503      0.401190      0.821655
    36     1      0.570234      0.151292      0.821391
    37     1      0.545936      0.490232      0.986453
    38     1      0.796875      0.740969      0.987275
    39     1      0.776344      0.912538      0.151559
    40     1      0.528465      0.661394      0.151358
    41     1      0.469615      0.515567      0.319217
    42     1      0.720340      0.765217      0.319451
    43     1      0.707399      0.941542      0.484909
    44     1      0.459546      0.691323      0.485007
    45     1      0.408382      0.540868      0.652472
    46     1      0.660509      0.789703      0.652242
    47     1      0.819843      0.901281      0.822112
    48     1      0.570249      0.651252      0.822419
ITEM: TIMESTEP
64450
ITEM: NUMBER OF ATOMS
48
ITEM: BOX BOUNDS xy xz yz  pp  pp  pp
     -0.003081      2.203080      0.000000
     -0.005336      3.815850      0.000000
     -0.007546      5.396420      0.000000
ITEM: ATOMS id type xs ys zs
     1     1      0.046813      0.990846      0.986893
     2     1      0.296191      0.240927      0.986877
     3     1      0.276660      0.412472      0.151203
     4     1      0.029389      0.162232      0.151473
     5     1      0.969732      0.015065      0.319928
     6     1      0.221342      0.265428      0.319639
     7     1      0.206856      0.441142      0.485491
     8     1      0.956608      0.190579      0.484775
     9     1      0.909605      0.039969      0.652478
    10     1      0.158898      0.290148      0.652045
    11     1      0.317464      0.401405      0.821935
    12     1      0.068923      0.151328      0.822039
    13     1      0.044518      0.491795      0.986088
    14     1      0.296620      0.739552      0.986427
    15     1      0.277802      0.911844      0.152101
    16     1      0.027823      0.662164      0.152549
    17     1      0.971782      0.515548      0.319803
    18     1      0.220157      0.765047      0.320413
    19     1      0.208106      0.940003      0.484880
    20     1      0.958248      0.690418      0.484677
    21     1      0.908776      0.539503      0.651678
    22     1      0.159930      0.789705      0.651708
    23     1      0.320704      0.901265      0.821617
    24     1      0.069924      0.651818      0.821570
    25     1      0.545041      0.991010      0.986602
    26     1      0.797140      0.240794      0.986718
    27     1      0.775923      0.411783      0.151682
    28     1      0.528099      0.162345      0.151668
    29     1      0.470807      0.015962      0.319178
    30     1      0.720524      0.265629      0.319541
    31     1      0.706136      0.440180      0.484015
    32     1      0.456576      0.190838      0.485403
    33     1      0.409709      0.039300      0.652596
    34     1      0.658005      0.289235      0.651727
    35     1      0.816881      0.402315      0.822009
    36     1      0.569640      0.152431      0.821664
    37     1      0.546342      0.490433      0.986281
    38     1      0.796808      0.741482      0.987177
    39     1      0.777266      0.912458      0.151723
    40     1      0.528599      0.661830      0.151385
    41     1      0.471210      0.515317      0.319323
    42     1      0.721271      0.765198      0.319572
    43     1      0.707572      0.940332      0.484908
    44     1      0.459619      0.690786      0.484798
    45     1      0.409987      0.538981      0.653200
    46     1      0.661132      0.789263      0.652159
    47     1      0.820122      0.900909      0.822163
    48     1      0.569622      0.651091      0.822407
ITEM: TIMESTEP
64500
ITEM: NUMBER OF ATOMS
48
ITEM: BOX BOUNDS xy xz yz  pp  pp  pp
     -0.003081      2.203080      0.000000
     -0.005336      3.815850      0.000000
     -0.007546      5.396420      0.000000
ITEM: ATOMS id type xs ys zs
     1     1      0.048036      0.990480      0.987045
     2     1      0.295698      0.240188      0.986796
     3     1      0.277216      0.412052      0.151253
     4     1      0.028722      0.162779      0.151390
     5     1      0.970462      0.015577      0.320168
     6     1      0.221873      0.265420      0.319515
     7     1      0.207415      0.440454      0.485393
     8     1      0.957178      0.190821      0.485650
     9     1      0.910027      0.038155      0.652378
    10     1      0.160109      0.288561      0.652649
    11     1      0.317235      0.401665      0.822347
    12     1      0.067055      0.151487      0.821876
    13     1      0.045028      0.491559      0.986533
    14     1      0.295959      0.740590      0.986724
    15     1      0.278229      0.912647      0.152338
    16     1      0.028737      0.662156      0.152540
    17     1      0.971830      0.515283      0.319979