ITEM: TIMESTEP
64001
ITEM: NUMBER OF ATOMS
48
ITEM: BOX BOUNDS xy xz yz  pp  pp  pp
     -0.003081      2.203080      0.000000
     -0.005336      3.815850      0.000000
     -0.007546      5.396420      0.000000
ITEM: ATOMS id type xs ys zs
     1     1      0.048740      0.988120      0.986880
     2     1      0.293045      0.237315      0.986079
     3     1      0.272393      0.408599      0.151590
     4     1      0.022318      0.159222      0.150323
     5     1      0.967309      0.015452      0.319095
     6     1      0.220297      0.262900      0.318774
     7     1      0.211954      0.443075      0.485035
     8     1      0.958867      0.195840      0.485148
     9     1      0.907811      0.044517      0.651755
    10     1      0.153758      0.294629      0.653493
    11     1      0.322690      0.400921      0.822857
    12     1      0.073534      0.149416      0.821711
    13     1      0.038701      0.487309      0.987026
    14     1      0.292272      0.735871      0.986853
    15     1      0.277973      0.908750      0.151292
    16     1      0.026230      0.657835      0.152774
    17     1      0.972073      0.513630      0.320702
    18     1      0.219167      0.764720      0.319840
    19     1      0.208519      0.943901      0.484093
    20     1      0.963542      0.692832      0.485596
    21     1      0.904687      0.544494      0.652427
    22     1      0.158049      0.794779      0.653218
    23     1      0.329329      0.899393      0.821655
    24     1      0.073597      0.649183      0.821639
    25     1      0.549215      0.987264      0.986141
    26     1      0.791411      0.238059      0.985474
    27     1      0.773088      0.409912      0.153080
    28     1      0.523922      0.159771      0.151484
    29     1      0.467902      0.016001      0.319946
    30     1      0.720723      0.264936      0.320180
    31     1      0.709909      0.444769      0.484535
    32     1      0.459061      0.193475      0.484155
    33     1      0.409093      0.042902      0.650933
    34     1      0.652134      0.294773      0.651224
    35     1      0.823529      0.399301      0.820429
    36     1      0.572339      0.150179      0.820125
    37     1      0.541824      0.488448      0.987973
    38     1      0.793803      0.737984      0.988901
    39     1      0.776406      0.909127      0.152500
    40     1      0.525725      0.659825      0.152878
    41     1      0.469514      0.513507      0.319461
    42     1      0.720971      0.764099      0.320590
    43     1      0.712280      0.943249      0.483984
    44     1      0.462325      0.694506      0.485146
    45     1      0.404319      0.544626      0.653326
    46     1      0.658451      0.793791      0.653104
    47     1      0.828886      0.898991      0.822421
    48     1      0.575615      0.649262      0.822892
ITEM: TIMESTEP
64050
ITEM: NUMBER OF ATOMS
48
ITEM: BOX BOUNDS xy xz yz  pp  pp  pp
     -0.003081      2.203080      0.000000
     -0.005336      3.815850      0.000000
     -0.007546      5.396420      0.000000
ITEM: ATOMS id type xs ys zs
     1     1      0.048003      0.987796      0.986433
     2     1      0.292151      0.237713      0.986109
     3     1      0.273174      0.409704      0.151830
     4     1      0.023709      0.159952      0.150558
     5     1      0.968022      0.015814      0.319568
     6     1      0.219354      0.263308      0.319314
     7     1      0.211151      0.442095      0.484650
     8     1      0.958478      0.194818      0.485204
     9     1      0.907223      0.043982      0.652295
    10     1      0.155443      0.293648      0.653212
    11     1      0.321903      0.400904      0.822662
    12     1      0.074039      0.149236      0.821554
    13     1      0.040919      0.487477      0.986846
    14     1      0.294350      0.736699      0.986661
    15     1      0.279382      0.910352      0.151213
    16     1      0.026307      0.658697      0.152319
    17     1      0.970978      0.513928      0.321064
    18     1      0.219298      0.765134      0.319652
    19     1      0.208580      0.943192      0.484157
    20     1      0.961318      0.692742      0.485383
    21     1      0.905566      0.543186      0.652558
    22     1      0.158327      0.794267      0.652582
    23     1      0.326971      0.899435      0.821694
    24     1      0.073616      0.649757      0.821276
    25     1      0.548561      0.988514      0.986307
    26     1      0.792664      0.237842      0.985784
    27     1      0.772872      0.410459      0.152910
    28     1      0.525023      0.159868      0.151295
    29     1      0.467180      0.015258      0.320029
    30     1      0.718206      0.265363      0.319820
    31     1      0.708985      0.444302      0.484895
    32     1      0.457865      0.192422      0.484322
    33     1      0.408003      0.042174      0.650967
    34     1      0.652171      0.294630      0.651285
    35     1      0.822931      0.399076      0.820917
    36     1      0.572161      0.149814      0.820255
    37     1      0.542436      0.488425      0.988161
    38     1      0.793150      0.738356      0.988614
    39     1      0.777613      0.910006      0.152030
    40     1      0.525638      0.660418      0.152838
    41     1      0.469757      0.514256      0.319314
    42     1      0.721611      0.765635      0.320333
    43     1      0.712603      0.943448      0.484369
    44     1      0.460990      0.694293      0.485159
    45     1      0.403574      0.543521      0.652879
    46     1      0.659414      0.792926      0.652836
    47     1      0.827478      0.900170      0.822282
    48     1      0.574375      0.649553      0.822669
ITEM: TIMESTEP
64100
ITEM: NUMBER OF ATOMS
48
ITEM: BOX BOUNDS xy xz yz  pp  pp  pp
     -0.003081      2.203080      0.000000
     -0.005336      3.815850      0.000000
     -0.007546      5.396420      0.000000
ITEM: ATOMS id type xs ys zs
     1     1      0.047477      0.987573      0.986014
     2     1      0.293937      0.237780      0.986202
     3     1      0.273063      0.409540      0.151533
     4     1      0.025367      0.160495      0.150150
     5     1      0.967911      0.015332      0.319857
     6     1      0.219534      0.263116      0.318894
     7     1      0.210296      0.441784      0.484684
     8     1      0.957630      0.193399      0.485470
     9     1      0.906360      0.043209      0.652288
    10     1      0.154699      0.293137      0.653122
    11     1      0.320883      0.401096      0.822215
    12     1      0.074194      0.149877      0.821515
    13     1      0.041331      0.488430      0.986597
    14     1      0.293849      0.738376      0.986737
    15     1      0.278601      0.910221      0.151034
    16     1      0.027291      0.659256      0.151956
    17     1      0.971556      0.514220      0.320662
    18     1      0.219912      0.764512      0.319649
    19     1      0.208130      0.942916      0.484690
    20     1      0.961858      0.692366      0.485103
    21     1      0.906005      0.542465      0.652279
    22     1      0.158811      0.793742      0.652654
    23     1      0.326708      0.900368      0.822155
    24     1      0.072218      0.649075      0.821333
    25     1      0.547902      0.989132      0.986452
    26     1      0.793092      0.238910      0.985728
    27     1      0.773645      0.410238      0.152636
    28     1      0.524647      0.159396      0.151316
    29     1      0.469982      0.015236      0.319589
    30     1      0.719231      0.264799      0.319641
    31     1      0.708609      0.443405      0.485079
    32     1      0.458229      0.192565      0.483983
    33     1      0.408979      0.042425      0.651676
    34     1      0.654151      0.293289      0.651364
    35     1      0.821817      0.399472      0.820883
    36     1      0.572980      0.150547      0.820175
    37     1      0.543102      0.488145      0.987602
    38     1      0.794368      0.738743      0.987360
    39     1      0.778341      0.909746      0.151869
    40     1      0.526652      0.660060      0.151832
    41     1      0.469482      0.513838      0.319337
    42     1      0.722617      0.764704      0.319659
    43     1      0.710118      0.942580      0.484953
    44     1      0.461112      0.693284      0.484822
    45     1      0.404389      0.543689      0.653443
    46     1      0.659096      0.791724      0.653309
    47     1      0.826883      0.899875      0.822313
    48     1      0.573233      0.649181      0.822730
ITEM: TIMESTEP
64150
ITEM: NUMBER OF ATOMS
48
ITEM: BOX BOUNDS xy xz yz  pp  pp  pp
     -0.003081      2.203080      0.000000
     -0.005336      3.815850      0.000000
     -0.007546      5.396420      0.000000
ITEM: ATOMS id type xs ys zs
     1     1      0.048243      0.988741      0.986017
     2     1      0.294699      0.238335      0.985965
     3     1      0.272744      0.409984      0.151422
     4     1      0.024864      0.160250      0.150645
     5     1      0.969508      0.014804      0.319813
     6     1      0.219881      0.263489      0.318450
     7     1      0.210963      0.441529      0.485140
     8     1      0.958016      0.192900      0.484801
     9     1      0.907471      0.042402      0.652340
    10     1      0.155590      0.293150      0.653021
    11     1      0.320633      0.401198      0.822035
    12     1      0.073561      0.150393      0.821778
    13     1      0.041992      0.489042      0.986816
    14     1      0.295404      0.738762      0.986827
    15     1      0.278667      0.910568      0.151361
    16     1      0.026349      0.659752      0.152131
    17     1      0.971903      0.513781      0.320726
    18     1      0.220388      0.764159      0.319063
    19     1      0.206659      0.942997      0.484485
    20     1      0.961224      0.691369      0.485401
    21     1      0.905283      0.542981      0.652850
    22     1      0.157831      0.793004      0.652698
    23     1      0.326921      0.899453      0.821953
    24     1      0.071898      0.649164      0.821499
    25     1      0.547927      0.990019      0.986788
    26     1      0.793829      0.238773      0.986035
    27     1      0.774374      0.410652      0.152094
    28     1      0.526050      0.160188      0.151540
    29     1      0.469460      0.014809      0.319809
    30     1      0.720827      0.265714      0.320169
    31     1      0.709681      0.442824      0.485083
    32     1      0.457074      0.192176      0.483943
    33     1      0.409031      0.041958      0.651361
    34     1      0.655264      0.293023      0.651587
    35     1      0.822135      0.399368      0.821254
    36     1      0.572567      0.149871      0.820659
    37     1      0.543006      0.488153      0.987459
    38     1      0.794319      0.738717      0.987351
    39     1      0.780804      0.909975      0.151593
    40     1      0.525295      0.660938      0.152202
    41     1      0.470746      0.514222      0.319425
    42     1      0.722064      0.764248      0.319499
    43     1      0.708617      0.942273      0.484807
    44     1      0.459449      0.692358      0.485078
    45     1      0.404708      0.543078      0.652810
    46     1      0.658474      0.791997      0.653016
    47     1      0.824729      0.898962      0.821895
    48     1      0.573618      0.649463      0.822841
ITEM: TIMESTEP
64200
ITEM: NUMBER OF ATOMS
48
ITEM: BOX BOUNDS xy xz yz  pp  pp  pp
     -0.003081      2.203080      0.000000
     -0.005336      3.815850      0.000000
     -0.007546      5.396420      0.000000
ITEM: ATOMS id type xs ys zs
     1     1      0.047142      0.989773      0.986148
     2     1      0.296187      0.239853      0.986359
     3     1      0.274144      0.409732      0.151460
     4     1      0.026917      0.160267      0.150714
     5     1      0.970213      0.015095      0.319479
     6     1      0.219529      0.263440      0.318440
     7     1      0.210293      0.441396      0.485219
     8     1      0.958060      0.192844      0.485065
     9     1      0.908424      0.041101      0.652175
    10     1      0.155840      0.292487      0.652598
    11     1      0.321837      0.400742      0.821986
    12     1      0.072506      0.150845      0.821637
    13     1      0.044142      0.489784      0.986613
    14     1      0.295801      0.738751      0.986684
    15     1      0.277778      0.910715      0.151098
    16     1      0.028101      0.660245      0.151876
    17     1      0.971963      0.513844      0.320678
    18     1      0.221847      0.764319      0.319814
    19     1      0.207061      0.941355      0.483992
    20     1      0.959628      0.691231      0.485403
    21     1      0.905199      0.542016      0.652311
    22     1      0.158075      0.792422      0.652716
    23     1      0.326297      0.899375      0.821635
    24     1      0.071826      0.649328      0.821992
    25     1      0.547392      0.989741      0.986660
    26     1      0.793478      0.239315      0.986141
    27     1      0.775628      0.411128      0.152013
    28     1      0.527489      0.161028      0.152575
    29     1      0.470225      0.014265      0.319983
    30     1      0.719508      0.265017      0.320124
    31     1      0.709548      0.441530      0.484832
    32     1      0.457329      0.191836      0.484741
    33     1      0.409928      0.041995      0.651739
    34     1      0.654451      0.292104      0.651574
    35     1      0.821057      0.399888      0.821432
    36     1      0.572905      0.150608      0.820928
    37     1      0.543558      0.488954      0.987288
    38     1      0.794816      0.739578      0.986888
    39     1      0.779869      0.910115      0.151327
    40     1      0.527735      0.660904      0.152255
    41     1      0.470956      0.513786      0.319389
    42     1      0.723271      0.764937      0.319804
    43     1      0.707034      0.941987      0.484473
    44     1      0.458571      0.691891      0.485132
    45     1      0.405280      0.543202      0.652638
    46     1      0.657940      0.791862      0.652529
    47     1      0.825988      0.898721      0.821523
    48     1      0.573103      0.650335      0.822412
ITEM: TIMESTEP
64250
ITEM: NUMBER OF ATOMS
48
ITEM: BOX BOUNDS xy xz yz  pp  pp  pp
     -0.003081      2.203080      0.000000
     -0.005336      3.815850      0.000000
     -0.007546      5.396420      0.000000
ITEM: ATOMS id type xs ys zs
     1     1      0.045926      0.990246      0.986197
     2     1      0.296470      0.239837      0.986701
     3     1      0.276272      0.410761      0.151971
     4     1      0.027974      0.161334      0.150398
     5     1      0.970349      0.015108      0.318770
     6     1      0.220578      0.263564      0.319294
     7     1      0.209322      0.441357      0.484487
     8     1      0.958630      0.191368      0.484637
     9     1      0.908450      0.041702      0.651775
    10     1      0.155920      0.292095      0.652348
    11     1      0.321743      0.400510      0.822120
    12     1      0.074350      0.150517      0.821880
    13     1      0.043807      0.489791      0.986766
    14     1      0.294504      0.739874      0.986670
    15     1      0.278212      0.911629      0.151581
    16     1      0.027674      0.660545      0.151984
    17     1      0.971813      0.514414      0.319972
    18     1      0.222665      0.764555      0.319768
    19     1      0.205474      0.941477      0.484127
    20     1      0.959407      0.691535      0.484834
    21     1      0.906127      0.541566      0.652771
    22     1      0.158413      0.791689      0.652573
    23     1      0.324954      0.899648      0.821417
    24     1      0.072144      0.650093      0.821701
    25     1      0.546736      0.990255      0.986810
    26     1      0.794419      0.239733      0.986324
    27     1      0.776060      0.412158      0.151297
    28     1      0.528674      0.161198      0.151746
    29     1      0.470228      0.014758      0.319669
    30     1      0.719608      0.264740      0.319832
    31     1      0.710008      0.441421      0.485189
    32     1      0.458143      0.190998      0.484638
    33     1      0.408341      0.041671      0.652213
    34     1      0.655887      0.291495      0.651777
    35     1      0.820347      0.400570      0.821540
    36     1      0.573786      0.149857      0.821437
    37     1      0.543479      0.490478      0.986891
    38     1      0.794238      0.740128      0.987122
    39     1      0.778874      0.910132      0.151675
    40     1      0.526952      0.661893      0.152361
    41     1      0.472482      0.514194      0.319360
    42     1      0.723711      0.764569      0.319910
    43     1      0.706580      0.941235      0.484852
    44     1      0.457916      0.691225      0.484983
    45     1      0.405771      0.542899      0.652315
    46     1      0.657839      0.791636      0.652364
    47     1      0.824858      0.899754      0.821565
    48     1      0.571438      0.650056      0.821554
ITEM: TIMESTEP
64300
ITEM: NUMBER OF ATOMS
48
ITEM: BOX BOUNDS xy xz yz  pp  pp  pp
     -0.003081      2.203080      0.000000
     -0.005336      3.815850      0.000000
     -0.007546      5.396420      0.000000
ITEM: ATOMS id type xs ys zs
     1     1      0.044670      0.989162      0.986769
     2     1      0.295629      0.240343      0.986736
     3     1      0.276355      0.410894      0.151674
     4     1      0.027685      0.161605      0.151237
     5     1      0.970548      0.015239      0.318567
     6     1      0.221910      0.263833      0.319061
     7     1      0.209351      0.441354      0.485243
     8     1      0.958554      0.191253      0.484472
     9     1      0.909117      0.041694      0.651749
    10     1      0.155726      0.291545      0.651889
    11     1      0.319868      0.400034      0.822121
    12     1      0.072398      0.149857      0.821837
    13     1      0.044105      0.490636      0.986590
    14     1      0.294852      0.739870      0.986973
    15     1      0.278174      0.912037      0.151636
    16     1      0.028192      0.660877      0.151515
    17     1      0.973093      0.514863      0.319735
    18     1      0.223325      0.765251      0.319388
    19     1      0.206364      0.941443      0.484176
    20     1      0.959173      0.690901      0.484829
    21     1      0.905958      0.541939      0.652538
    22     1      0.158243      0.791614      0.652285
    23     1      0.323755      0.899311      0.821614
    24     1      0.071468      0.650801      0.821681
    25     1      0.546330      0.990239      0.986643
    26     1      0.794389      0.239750      0.986564
    27     1      0.776144      0.412205      0.151994
    28     1      0.529288      0.161674      0.151639
    29     1      0.471198      0.014039      0.319522
    30     1      0.721449      0.265097      0.319873
    31     1      0.709226      0.441330      0.484920
    32     1      0.458005      0.190956      0.484932
    33     1      0.408362      0.040872      0.651912
    34     1      0.656194      0.291001      0.652664
    35     1      0.820599      0.401127      0.821613
    36     1      0.572775      0.148870      0.821900
    37     1      0.544007      0.489899      0.986834
    38     1      0.794559      0.740152      0.986903
    39     1      0.778113      0.910806      0.150944
    40     1      0.528019      0.662514      0.151593
    41     1      0.472426      0.514865      0.319447
    42     1      0.723350      0.764691      0.319908
    43     1      0.707053      0.941361      0.484578
    44     1      0.458702      0.690578      0.485174
    45     1      0.406925      0.540975      0.652394
    46     1      0.658427      0.790802      0.652425
    47     1      0.825032      0.899340      0.821236
    48     1      0.570708      0.649371      0.821673
ITEM: TIMESTEP
64350
ITEM: NUMBER OF ATOMS
48
ITEM: BOX BOUNDS xy xz yz  pp  pp  pp
     -0.003081      2.203080      0.000000
     -0.005336      3.815850      0.000000
     -0.007546      5.396420      0.000000
ITEM: ATOMS id type xs ys zs
     1     1      0.044802      0.990175      0.986775
     2     1      0.295306      0.239829      0.987120
     3     1      0.276662      0.411389      0.151647
     4     1      0.028491      0.162482      0.151134
     5     1      0.970564      0.015635      0.319038
     6     1      0.221215      0.264772      0.319791
     7     1      0.207237      0.441767      0.485298
     8     1      0.957404      0.190829      0.484259
     9     1      0.907492      0.040571      0.651383
    10     1      0.155287      0.291019      0.652363
    11     1      0.320136      0.400226      0.822338
    12     1      0.072715      0.149394      0.821670
    13     1      0.045900      0.490998      0.986842
    14     1      0.295117      0.739395      0.987395
    15     1      0.279449      0.913410      0.151706
    16     1      0.027419      0.662487      0.151386
    17     1      0.973545      0.515302      0.319478
    18     1      0.223452      0.765227      0.319523
    19     1      0.207230      0.940671      0.484316
    20     1      0.959458      0.690630      0.484916
    21     1      0.907076      0.540242      0.652551
    22     1      0.158135      0.791071      0.652044
    23     1      0.323175      0.899308      0.822025
    24     1      0.071188      0.651177      0.821717
    25     1      0.546225      0.990265      0.986531
    26     1      0.795543      0.240457      0.986415
    27     1      0.776459      0.412885      0.151767
    28     1      0.530261      0.162100      0.151794
    29     1      0.472558      0.014610      0.319582
    30     1      0.721107      0.265554      0.319606
    31     1      0.707534      0.440928      0.485012
    32     1      0.457806      0.191008      0.484790
    33     1      0.408667      0.040664      0.651783
    34     1      0.655796      0.290973      0.652563
    35     1      0.820578      0.400477      0.821741
    36     1      0.571853      0.149657      0.821627
    37     1      0.545434      0.490236      0.986973
    38     1      0.795274      0.739855      0.986027
    39     1      0.779137      0.911148      0.151377
    40     1      0.528798      0.662220      0.152030
    41     1      0.471878      0.514980      0.319788
    42     1      0.725371      0.764780      0.319968
    43     1      0.707509      0.940312      0.484731
    44     1      0.457314      0.691088      0.485235
    45     1      0.407986      0.540189      0.652474
    46     1      0.657584      0.790358      0.652634
    47     1      0.823759      0.899974      0.821375
    48     1      0.569785      0.650422      0.822386
ITEM: TIMESTEP
64400
ITEM: NUMBER OF ATOMS
48
ITEM: BOX BOUNDS xy xz yz  pp  pp  pp
     -0.003081      2.203080      0.000000
     -0.005336      3.815850      0.000000
     -0.007546      5.396420      0.000000
ITEM: ATOMS id type xs ys zs
     1     1      0.045026      0.989914      0.986491
     2     1      0.295455      0.239677      0.986442
     3     1      0.277867      0.411946      0.151062
     4     1      0.027827      0.162793      0.151458
     5     1      0.973318      0.015424      0.319060
     6     1      0.219893      0.266015      0.319756
     7     1      0.207552      0.441372      0.485450
     8     1      0.957718      0.190546      0.484592
     9     1      0.908552      0.039867      0.651622
    10     1      0.155816      0.290987      0.652634
    11     1      0.320760      0.400665      0.821716
    12     1      0.071445      0.149394      0.821307
    13     1      0.045675      0.490933      0.986836
    14     1      0.294560      0.740020      0.987004
    15     1      0.278407      0.912814      0.151705
    16     1      0.028134      0.662488      0.151569
    17     1      0.973763      0.514734      0.319330
    18     1      0.223845      0.764594      0.319305
    19     1      0.205739      0.940847      0.484314
    20     1      0.957755      0.690356      0.484831
    21     1      0.907262      0.539740      0.652532
    22     1      0.158930      0.790631      0.652206
    23     1      0.322313      0.900002      0.822334
    24     1      0.069408      0.651562      0.821115
    25     1      0.546850      0.989896      0.986380
    26     1      0.795975      0.240797      0.986893
    27     1      0.777721      0.412705      0.151773
    28     1      0.528027      0.161855      0.151257
    29     1      0.471994      0.014470      0.319451
    30     1      0.722095      0.265251      0.319720
    31     1      0.707468      0.439977      0.484859
    32     1      0.456461      0.190617      0.484595
    33     1      0.406935      0.040120      0.652246
    34     1      0.655175      0.289327      0.652596
    35     1      0.820465      0.400302      0.822205
    36     1      0.572515      0.149869      0.821935
    37     1      0.545762      0.489969      0.987002
    38     1      0.795410      0.740030      0.986239
    39     1      0.778365      0.911653      0.151381
    40     1      0.527068      0.662239      0.151875
    41     1      0.472342      0.515266      0.319830
    42     1      0.725673      0.764127      0.319879
    43     1      0.707103      0.940286      0.484470
    44     1      0.457797      0.690534      0.485382
    45     1      0.408481      0.540012      0.652604
    46     1      0.658737      0.789953      0.652686
    47     1      0.822366      0.900383      0.821594
    48     1      0.568510      0.650664      0.822334
ITEM: TIMESTEP
64450
ITEM: NUMBER OF ATOMS
48
ITEM: BOX BOUNDS xy xz yz  pp  pp  pp
     -0.003081      2.203080      0.000000
     -0.005336      3.815850      0.000000
     -0.007546      5.396420      0.000000
ITEM: ATOMS id type xs ys zs
     1     1      0.045243      0.990702      0.986786
     2     1      0.295735      0.240383      0.986938
     3     1      0.277530      0.412414      0.151314
     4     1      0.028586      0.162573      0.150955
     5     1      0.972313      0.015919      0.318834
     6     1      0.220085      0.265371      0.319332
     7     1      0.206962      0.441413      0.485678
     8     1      0.957609      0.191144      0.484836
     9     1      0.908188      0.040085      0.651807
    10     1      0.156503      0.290046      0.652347
    11     1      0.320634      0.400838      0.822469
    12     1      0.071872      0.150519      0.821229
    13     1      0.045264      0.490778      0.986333
    14     1      0.293656      0.740229      0.986587
    15     1      0.277544      0.912430      0.151318
    16     1      0.028473      0.662752      0.151601
    17     1      0.973073      0.515308      0.319484
    18     1      0.224651      0.764777      0.319783
    19     1      0.205412      0.940306      0.483920
    20     1      0.957943      0.690724      0.485017
    21     1      0.907653      0.540032      0.652237
    22     1      0.158580      0.790220      0.651981
    23     1      0.320575      0.901239      0.822419
    24     1      0.069525      0.651168      0.821277
    25     1      0.545713      0.989434      0.986721
    26     1      0.795763      0.241078      0.986564
    27     1      0.778427      0.412948      0.151875
    28     1      0.529316      0.162490      0.151502
    29     1      0.472960      0.014950      0.319720
    30     1      0.721182      0.264995      0.319585
    31     1      0.706042      0.440502      0.484835
    32     1      0.457164      0.190258      0.484511
    33     1      0.407196      0.039716      0.651997
    34     1      0.657626      0.289914      0.652629
    35     1      0.821053      0.400349      0.821810
    36     1      0.572786      0.149457      0.821558
    37     1      0.545633      0.490493      0.987120
    38     1      0.794177      0.740552      0.986135
    39     1      0.777114      0.912212      0.151476
    40     1      0.528031      0.662502      0.151231
    41     1      0.472313      0.515483      0.319220
    42     1      0.723658      0.764788      0.319943
    43     1      0.707161      0.940318      0.484438
    44     1      0.458285      0.690224      0.485327
    45     1      0.408762      0.540112      0.652624
    46     1      0.659180      0.790883      0.652955
    47     1      0.822266      0.900920      0.821450
    48     1      0.567656      0.651607      0.821600
ITEM: TIMESTEP
64500
ITEM: NUMBER OF ATOMS
48
ITEM: BOX BOUNDS xy xz yz  pp  pp  pp
     -0.003081      2.203080      0.000000
     -0.005336      3.815850      0.000000
     -0.007546      5.396420      0.000000
ITEM: ATOMS id type xs ys zs
     1     1      0.046557      0.991403      0.986442
     2     1      0.296809      0.240163      0.986726
     3     1      0.277417      0.413841      0.151544
     4     1      0.028678      0.162105      0.150700
     5     1      0.972892      0.015502      0.319069
     6     1      0.220657      0.265454      0.319173
     7     1      0.207006      0.440472      0.485307
     8     1      0.956062      0.190154      0.485060
     9     1      0.908305      0.039262      0.651926
    10     1      0.156457      0.289813      0.652678
    11     1      0.321274      0.400031      0.821883
    12     1      0.072511      0.150623      0.820984
    13     1      0.046085      0.491229      0.986086
    14     1      0.295317      0.740603      0.986659
    15     1      0.277880      0.912299      0.151744
    16     1      0.028200      0.663094      0.151511
    17     1      0.973156      0.515191      0.319368