ITEM: TIMESTEP
64001
ITEM: NUMBER OF ATOMS
48
ITEM: BOX BOUNDS xy xz yz  pp  pp  pp
     -0.003081      2.203080      0.000000
     -0.005336      3.815850      0.000000
     -0.007546      5.396420      0.000000
ITEM: ATOMS id type xs ys zs
     1     1      0.048817      0.988067      0.986894
     2     1      0.293047      0.237439      0.986279
     3     1      0.272298      0.408482      0.151595
     4     1      0.022264      0.159303      0.150384
     5     1      0.967256      0.015562      0.319125
     6     1      0.220212      0.262799      0.318870
     7     1      0.212168      0.443271      0.485077
     8     1      0.959032      0.195848      0.485246
     9     1      0.907603      0.044729      0.651940
    10     1      0.153868      0.294590      0.653508
    11     1      0.322665      0.400884      0.822840
    12     1      0.073876      0.149493      0.821727
    13     1      0.039153      0.487137      0.986975
    14     1      0.292252      0.736090      0.986962
    15     1      0.277794      0.908871      0.151341
    16     1      0.026242      0.657967      0.152769
    17     1      0.971911      0.513470      0.320670
    18     1      0.219043      0.764817      0.319747
    19     1      0.208841      0.943858      0.484287
    20     1      0.963796      0.692976      0.485597
    21     1      0.904741      0.544402      0.652549
    22     1      0.157896      0.794917      0.653284
    23     1      0.329355      0.899268      0.821679
    24     1      0.073917      0.649175      0.821699
    25     1      0.549061      0.987005      0.986281
    26     1      0.791492      0.238038      0.985472
    27     1      0.772838      0.409895      0.153167
    28     1      0.523686      0.159641      0.151562
    29     1      0.467645      0.015886      0.319823
    30     1      0.720680      0.264939      0.320174
    31     1      0.709951      0.444675      0.484560
    32     1      0.459021      0.193431      0.484157
    33     1      0.409090      0.042729      0.650901
    34     1      0.651797      0.294901      0.651296
    35     1      0.823706      0.399226      0.820445
    36     1      0.572631      0.150176      0.820166
    37     1      0.541669      0.488254      0.988076
    38     1      0.793932      0.737945      0.988987
    39     1      0.776579      0.909001      0.152266
    40     1      0.525641      0.659817      0.152895
    41     1      0.469507      0.513621      0.319449
    42     1      0.720931      0.764088      0.320630
    43     1      0.712342      0.943350      0.483968
    44     1      0.462126      0.694759      0.485118
    45     1      0.404506      0.544554      0.653196
    46     1      0.658327      0.793799      0.653110
    47     1      0.829058      0.898859      0.822342
    48     1      0.575600      0.649243      0.822958
ITEM: TIMESTEP
64050
ITEM: NUMBER OF ATOMS
48
ITEM: BOX BOUNDS xy xz yz  pp  pp  pp
     -0.003081      2.203080      0.000000
     -0.005336      3.815850      0.000000
     -0.007546      5.396420      0.000000
ITEM: ATOMS id type xs ys zs
     1     1      0.048393      0.987450      0.987113
     2     1      0.294034      0.237819      0.986682
     3     1      0.273621      0.409546      0.151826
     4     1      0.023506      0.159363      0.150364
     5     1      0.968479      0.015512      0.319529
     6     1      0.219432      0.263135      0.318757
     7     1      0.211473      0.441252      0.485201
     8     1      0.960029      0.194658      0.485004
     9     1      0.906599      0.043343      0.651740
    10     1      0.153022      0.293584      0.653522
    11     1      0.321777      0.400452      0.822353
    12     1      0.072900      0.149832      0.821942
    13     1      0.041129      0.487661      0.986688
    14     1      0.292689      0.737495      0.987307
    15     1      0.277945      0.909132      0.151766
    16     1      0.025887      0.658846      0.152303
    17     1      0.970792      0.513205      0.320620
    18     1      0.219903      0.764570      0.319555
    19     1      0.209034      0.943251      0.483675
    20     1      0.962426      0.692627      0.485549
    21     1      0.906357      0.543979      0.652459
    22     1      0.159768      0.793620      0.653121
    23     1      0.328384      0.899656      0.822247
    24     1      0.072902      0.650205      0.821923
    25     1      0.547561      0.987698      0.986056
    26     1      0.794221      0.238038      0.985851
    27     1      0.774040      0.409328      0.152285
    28     1      0.525112      0.159455      0.151588
    29     1      0.468741      0.015081      0.319875
    30     1      0.720665      0.264556      0.319772
    31     1      0.710734      0.443813      0.484169
    32     1      0.458659      0.192330      0.483574
    33     1      0.408194      0.042475      0.651027
    34     1      0.651547      0.293136      0.651643
    35     1      0.822931      0.399209      0.820829
    36     1      0.572084      0.149866      0.820584
    37     1      0.542593      0.488360      0.987952
    38     1      0.792894      0.737923      0.988190
    39     1      0.777366      0.909113      0.151869
    40     1      0.525325      0.659618      0.152781
    41     1      0.469649      0.513830      0.319933
    42     1      0.720496      0.763715      0.320047
    43     1      0.710495      0.942933      0.484228
    44     1      0.461013      0.693279      0.484694
    45     1      0.403999      0.544714      0.653324
    46     1      0.658358      0.793220      0.653564
    47     1      0.827950      0.899619      0.822355
    48     1      0.573674      0.650370      0.822720
ITEM: TIMESTEP
64100
ITEM: NUMBER OF ATOMS
48
ITEM: BOX BOUNDS xy xz yz  pp  pp  pp
     -0.003081      2.203080      0.000000
     -0.005336      3.815850      0.000000
     -0.007546      5.396420      0.000000
ITEM: ATOMS id type xs ys zs
     1     1      0.047427      0.987981      0.987285
     2     1      0.294564      0.238996      0.986257
     3     1      0.274466      0.409828      0.151765
     4     1      0.025090      0.159783      0.151081
     5     1      0.968592      0.015226      0.319554
     6     1      0.220139      0.263477      0.318943
     7     1      0.209586      0.441270      0.485454
     8     1      0.958881      0.193080      0.485453
     9     1      0.907609      0.042327      0.652169
    10     1      0.153125      0.293057      0.653505
    11     1      0.321944      0.400696      0.821747
    12     1      0.072648      0.149401      0.821892
    13     1      0.040856      0.488219      0.986570
    14     1      0.295166      0.737484      0.986859
    15     1      0.277450      0.909044      0.151676
    16     1      0.026993      0.659212      0.152158
    17     1      0.971280      0.513680      0.320437
    18     1      0.220097      0.764995      0.320429
    19     1      0.207676      0.942654      0.484391
    20     1      0.961062      0.691882      0.485320
    21     1      0.906161      0.542868      0.652986
    22     1      0.159417      0.793367      0.652445
    23     1      0.327517      0.900343      0.822549
    24     1      0.072479      0.650153      0.821980
    25     1      0.548184      0.988347      0.986407
    26     1      0.793459      0.238854      0.986218
    27     1      0.775460      0.409706      0.152228
    28     1      0.526613      0.159909      0.151630
    29     1      0.469522      0.014661      0.319809
    30     1      0.718919      0.264709      0.319846
    31     1      0.709153      0.442534      0.485137
    32     1      0.459248      0.191627      0.484586
    33     1      0.407024      0.041925      0.651625
    34     1      0.653787      0.291849      0.651288
    35     1      0.821543      0.399137      0.821021
    36     1      0.572021      0.150515      0.820671
    37     1      0.542115      0.488922      0.988049
    38     1      0.794821      0.739072      0.987912
    39     1      0.777717      0.909964      0.152163
    40     1      0.525460      0.660055      0.152722
    41     1      0.470342      0.514619      0.319894
    42     1      0.721049      0.764101      0.319933
    43     1      0.709385      0.942120      0.484879
    44     1      0.459924      0.692459      0.484802
    45     1      0.406555      0.543134      0.652805
    46     1      0.656758      0.792712      0.653772
    47     1      0.826039      0.900321      0.821787
    48     1      0.572666      0.650152      0.822579
ITEM: TIMESTEP
64150
ITEM: NUMBER OF ATOMS
48
ITEM: BOX BOUNDS xy xz yz  pp  pp  pp
     -0.003081      2.203080      0.000000
     -0.005336      3.815850      0.000000
     -0.007546      5.396420      0.000000
ITEM: ATOMS id type xs ys zs
     1     1      0.046446      0.988691      0.986773
     2     1      0.294770      0.238345      0.986883
     3     1      0.275877      0.410475      0.151811
     4     1      0.027862      0.159977      0.150709
     5     1      0.969911      0.014987      0.319416
     6     1      0.220522      0.264171      0.318942
     7     1      0.209130      0.441471      0.485317
     8     1      0.958091      0.192460      0.484938
     9     1      0.907907      0.042172      0.652312
    10     1      0.154280      0.291924      0.653110
    11     1      0.321297      0.400819      0.822437
    12     1      0.072362      0.149435      0.822054
    13     1      0.042314      0.488712      0.986466
    14     1      0.295256      0.738125      0.986967
    15     1      0.277495      0.909626      0.151637
    16     1      0.026648      0.659137      0.152364
    17     1      0.969957      0.514367      0.320359
    18     1      0.220065      0.764826      0.319769
    19     1      0.207560      0.942098      0.484632
    20     1      0.959453      0.691793      0.485241
    21     1      0.906117      0.541492      0.653397
    22     1      0.158154      0.792594      0.652184
    23     1      0.325635      0.900406      0.822342
    24     1      0.072258      0.650417      0.821962
    25     1      0.547849      0.988925      0.986646
    26     1      0.794045      0.239071      0.986533
    27     1      0.775823      0.410069      0.152446
    28     1      0.528274      0.159899      0.151599
    29     1      0.469671      0.014611      0.319799
    30     1      0.720220      0.264548      0.320444
    31     1      0.709833      0.441501      0.485560
    32     1      0.458652      0.191926      0.484335
    33     1      0.407157      0.041635      0.651919
    34     1      0.654031      0.291633      0.651776
    35     1      0.820469      0.398813      0.821083
    36     1      0.571967      0.150638      0.821118
    37     1      0.543083      0.488773      0.987681
    38     1      0.795490      0.738956      0.987407
    39     1      0.777617      0.909576      0.151597
    40     1      0.525577      0.660781      0.152762
    41     1      0.469720      0.514815      0.320020
    42     1      0.720969      0.763341      0.320851
    43     1      0.709354      0.941772      0.484938
    44     1      0.459463      0.691765      0.484486
    45     1      0.406186      0.542914      0.652963
    46     1      0.655314      0.792231      0.653183
    47     1      0.824985      0.900142      0.821473
    48     1      0.572845      0.649799      0.822449
ITEM: TIMESTEP
64200
ITEM: NUMBER OF ATOMS
48
ITEM: BOX BOUNDS xy xz yz  pp  pp  pp
     -0.003081      2.203080      0.000000
     -0.005336      3.815850      0.000000
     -0.007546      5.396420      0.000000
ITEM: ATOMS id type xs ys zs
     1     1      0.046737      0.989026      0.987042
     2     1      0.295518      0.238747      0.987227
     3     1      0.275271      0.410088      0.151679
     4     1      0.026929      0.159807      0.150858
     5     1      0.970624      0.014046      0.319329
     6     1      0.220583      0.264377      0.319296
     7     1      0.209829      0.440891      0.485353
     8     1      0.956996      0.191926      0.485294
     9     1      0.907936      0.041771      0.652587
    10     1      0.154517      0.291954      0.653343
    11     1      0.321076      0.401113      0.822090
    12     1      0.071747      0.149943      0.822123
    13     1      0.042765      0.488882      0.986558
    14     1      0.295716      0.738779      0.987189
    15     1      0.277658      0.910681      0.152233
    16     1      0.028661      0.658897      0.151814
    17     1      0.969765      0.513813      0.320155
    18     1      0.219868      0.764380      0.319864
    19     1      0.207439      0.941895      0.485027
    20     1      0.958804      0.691030      0.484993
    21     1      0.907987      0.540886      0.652659
    22     1      0.157232      0.791463      0.652757
    23     1      0.325105      0.899908      0.821845
    24     1      0.072063      0.650412      0.822217
    25     1      0.547534      0.989525      0.986851
    26     1      0.794854      0.239295      0.986715
    27     1      0.774998      0.410302      0.152607
    28     1      0.527750      0.160254      0.151661
    29     1      0.470412      0.014951      0.319602
    30     1      0.719903      0.265107      0.320900
    31     1      0.709280      0.441523      0.485438
    32     1      0.456498      0.191198      0.484483
    33     1      0.407564      0.041654      0.651648
    34     1      0.653112      0.291322      0.651853
    35     1      0.822029      0.400089      0.821164
    36     1      0.570669      0.150564      0.821393
    37     1      0.543980      0.489166      0.987791
    38     1      0.794987      0.739774      0.987013
    39     1      0.777912      0.909906      0.152076
    40     1      0.527704      0.661163      0.152355
    41     1      0.469941      0.514134      0.319783
    42     1      0.719951      0.764306      0.320445
    43     1      0.708554      0.941871      0.484937
    44     1      0.460281      0.691612      0.485224
    45     1      0.408200      0.541663      0.652122
    46     1      0.656510      0.791701      0.652655
    47     1      0.824383      0.899421      0.821693
    48     1      0.571625      0.649605      0.822819
ITEM: TIMESTEP
64250
ITEM: NUMBER OF ATOMS
48
ITEM: BOX BOUNDS xy xz yz  pp  pp  pp
     -0.003081      2.203080      0.000000
     -0.005336      3.815850      0.000000
     -0.007546      5.396420      0.000000
ITEM: ATOMS id type xs ys zs
     1     1      0.047133      0.989570      0.987204
     2     1      0.295204      0.238759      0.987548
     3     1      0.275843      0.410353      0.151919
     4     1      0.026443      0.160732      0.151450
     5     1      0.971257      0.013852      0.320268
     6     1      0.219619      0.264167      0.319198
     7     1      0.209579      0.441183      0.485481
     8     1      0.957514      0.191515      0.485333
     9     1      0.908002      0.040687      0.651897
    10     1      0.155997      0.290412      0.653000
    11     1      0.321569      0.400549      0.822498
    12     1      0.072079      0.149266      0.822172
    13     1      0.044186      0.488667      0.986685
    14     1      0.296261      0.738827      0.987066
    15     1      0.278085      0.910625      0.151730
    16     1      0.029149      0.658863      0.151468
    17     1      0.970674      0.514463      0.320687
    18     1      0.220470      0.764255      0.320003
    19     1      0.208422      0.940931      0.484766
    20     1      0.959771      0.690779      0.485153
    21     1      0.908419      0.540812      0.652782
    22     1      0.156744      0.790230      0.652878
    23     1      0.323466      0.900601      0.822174
    24     1      0.072699      0.650334      0.822048
    25     1      0.547500      0.989623      0.986546
    26     1      0.794723      0.239532      0.986465
    27     1      0.774637      0.410543      0.152310
    28     1      0.528051      0.161133      0.151897
    29     1      0.471133      0.014846      0.320090
    30     1      0.718977      0.265158      0.320550
    31     1      0.708736      0.441461      0.484991
    32     1      0.456056      0.191892      0.484405
    33     1      0.407301      0.040609      0.651971
    34     1      0.654781      0.290950      0.652456
    35     1      0.821892      0.399211      0.821073
    36     1      0.571527      0.150328      0.822373
    37     1      0.545699      0.489675      0.987224
    38     1      0.795295      0.739480      0.986968
    39     1      0.777827      0.910606      0.151529
    40     1      0.528112      0.661545      0.152582
    41     1      0.469821      0.513608      0.320138
    42     1      0.720123      0.764425      0.319859
    43     1      0.709306      0.941622      0.485064
    44     1      0.459829      0.690823      0.485386
    45     1      0.407977      0.541416      0.652702
    46     1      0.655236      0.790960      0.653251
    47     1      0.823858      0.899355      0.821960
    48     1      0.571552      0.649613      0.822649
ITEM: TIMESTEP
64300
ITEM: NUMBER OF ATOMS
48
ITEM: BOX BOUNDS xy xz yz  pp  pp  pp
     -0.003081      2.203080      0.000000
     -0.005336      3.815850      0.000000
     -0.007546      5.396420      0.000000
ITEM: ATOMS id type xs ys zs
     1     1      0.046660      0.989681      0.986993
     2     1      0.295386      0.239474      0.987302
     3     1      0.277381      0.411070      0.151892
     4     1      0.025511      0.160787      0.152036
     5     1      0.971769      0.014434      0.319985
     6     1      0.220049      0.263746      0.319350
     7     1      0.209135      0.440694      0.485325
     8     1      0.957287      0.190361      0.485034
     9     1      0.908065      0.040005      0.652605
    10     1      0.156545      0.290387      0.653265
    11     1      0.320599      0.401085      0.822585
    12     1      0.069654      0.149612      0.822012
    13     1      0.042879      0.489303      0.986773
    14     1      0.295568      0.738583      0.987161
    15     1      0.277123      0.910449      0.151811
    16     1      0.028079      0.659779      0.152067
    17     1      0.970503      0.514895      0.320427
    18     1      0.220802      0.764766      0.320150
    19     1      0.208731      0.940796      0.484778
    20     1      0.959917      0.690864      0.484930
    21     1      0.908647      0.541308      0.652673
    22     1      0.157720      0.790877      0.652642
    23     1      0.323328      0.900169      0.822023
    24     1      0.072709      0.650692      0.822136
    25     1      0.545853      0.989713      0.986899
    26     1      0.795357      0.239961      0.986860
    27     1      0.776183      0.411345      0.152363
    28     1      0.527085      0.161339      0.151777
    29     1      0.472421      0.014480      0.319678
    30     1      0.719383      0.265682      0.320720
    31     1      0.709871      0.440963      0.485309
    32     1      0.457101      0.191284      0.484442
    33     1      0.407256      0.040497      0.651903
    34     1      0.656712      0.289655      0.651964
    35     1      0.820128      0.400139      0.821328
    36     1      0.570755      0.150915      0.821723
    37     1      0.545166      0.489934      0.987426
    38     1      0.796266      0.738947      0.987377
    39     1      0.777284      0.910781      0.151353
    40     1      0.527923      0.661122      0.151723
    41     1      0.469769      0.514245      0.320187
    42     1      0.720734      0.764698      0.320026
    43     1      0.708777      0.941031      0.485470
    44     1      0.458362      0.690742      0.484645
    45     1      0.408153      0.540744      0.652556
    46     1      0.656225      0.789831      0.652700
    47     1      0.821323      0.899926      0.822416
    48     1      0.571943      0.650551      0.822484
ITEM: TIMESTEP
64350
ITEM: NUMBER OF ATOMS
48
ITEM: BOX BOUNDS xy xz yz  pp  pp  pp
     -0.003081      2.203080      0.000000
     -0.005336      3.815850      0.000000
     -0.007546      5.396420      0.000000
ITEM: ATOMS id type xs ys zs
     1     1      0.045676      0.989011      0.987096
     2     1      0.294301      0.239684      0.987240
     3     1      0.276024      0.411020      0.151695
     4     1      0.025443      0.161208      0.151946
     5     1      0.971537      0.014725      0.319771
     6     1      0.220502      0.263218      0.319530
     7     1      0.208087      0.439944      0.484768
     8     1      0.957271      0.190341      0.485138
     9     1      0.908176      0.039816      0.653084
    10     1      0.157919      0.290137      0.652841
    11     1      0.320253      0.400478      0.822216
    12     1      0.070498      0.150250      0.822014
    13     1      0.044149      0.488710      0.987002
    14     1      0.295809      0.739277      0.987191
    15     1      0.277893      0.911154      0.151849
    16     1      0.026799      0.660407      0.152390
    17     1      0.971565      0.514928      0.319990
    18     1      0.218880      0.765026      0.319866
    19     1      0.207876      0.940687      0.484837
    20     1      0.958073      0.690653      0.484923
    21     1      0.908677      0.540755      0.652729
    22     1      0.158200      0.790288      0.652837
    23     1      0.320768      0.900499      0.821899
    24     1      0.070346      0.650338      0.822534
    25     1      0.546691      0.989928      0.986482
    26     1      0.793505      0.238796      0.986923
    27     1      0.777895      0.411285      0.152087
    28     1      0.527538      0.160958      0.151432
    29     1      0.472111      0.014166      0.319394
    30     1      0.720612      0.265298      0.320471
    31     1      0.709179      0.440303      0.485404
    32     1      0.459220      0.190971      0.485174
    33     1      0.408229      0.039955      0.652351
    34     1      0.658051      0.290204      0.651985
    35     1      0.819723      0.400105      0.821876
    36     1      0.569603      0.150306      0.821601
    37     1      0.544384      0.489258      0.987366
    38     1      0.794196      0.739567      0.987662
    39     1      0.778351      0.910477      0.151025
    40     1      0.526994      0.660644      0.152253
    41     1      0.469995      0.514220      0.320459
    42     1      0.721020      0.764882      0.319395
    43     1      0.708787      0.940542      0.485166
    44     1      0.459101      0.690553      0.484281
    45     1      0.406866      0.540598      0.652396
    46     1      0.658480      0.789372      0.652738
    47     1      0.820486      0.900461      0.822524
    48     1      0.571201      0.650585      0.822079
ITEM: TIMESTEP
64400
ITEM: NUMBER OF ATOMS
48
ITEM: BOX BOUNDS xy xz yz  pp  pp  pp
     -0.003081      2.203080      0.000000
     -0.005336      3.815850      0.000000
     -0.007546      5.396420      0.000000
ITEM: ATOMS id type xs ys zs
     1     1      0.045511      0.989698      0.987565
     2     1      0.293678      0.240317      0.986993
     3     1      0.277416      0.410824      0.151519
     4     1      0.026733      0.160610      0.151666
     5     1      0.971815      0.014627      0.319622
     6     1      0.220551      0.263404      0.319599
     7     1      0.207659      0.439918      0.485097
     8     1      0.957504      0.189595      0.485117
     9     1      0.908603      0.039300      0.653158
    10     1      0.158817      0.289872      0.652668
    11     1      0.319205      0.399768      0.822304
    12     1      0.069265      0.150374      0.822683
    13     1      0.044262      0.489740      0.986766
    14     1      0.296683      0.739400      0.987306
    15     1      0.279017      0.911062      0.152101
    16     1      0.027130      0.660744      0.151877
    17     1      0.971238      0.514607      0.320091
    18     1      0.219733      0.764205      0.319988
    19     1      0.208957      0.941138      0.485148
    20     1      0.959156      0.690851      0.484854
    21     1      0.907781      0.540352      0.653146
    22     1      0.158354      0.789661      0.652727
    23     1      0.320166      0.901064      0.822045
    24     1      0.069695      0.651198      0.822233
    25     1      0.545831      0.989635      0.986393
    26     1      0.792290      0.240189      0.986816
    27     1      0.777643      0.411698      0.151906
    28     1      0.526736      0.160957      0.151496
    29     1      0.472436      0.014633      0.319516
    30     1      0.720093      0.265276      0.319667
    31     1      0.709459      0.441511      0.484811
    32     1      0.459479      0.189797      0.484928
    33     1      0.408195      0.039934      0.651841
    34     1      0.658674      0.289060      0.651683
    35     1      0.817855      0.400015      0.822174
    36     1      0.568717      0.150205      0.821612
    37     1      0.544285      0.490011      0.986874
    38     1      0.794461      0.739891      0.987190
    39     1      0.779458      0.910622      0.151534
    40     1      0.528282      0.660859      0.152100
    41     1      0.469291      0.514843      0.320219
    42     1      0.720515      0.765041      0.319439
    43     1      0.708092      0.940031      0.484527
    44     1      0.456871      0.689571      0.484557
    45     1      0.407782      0.540276      0.652554
    46     1      0.658277      0.789342      0.652475
    47     1      0.820538      0.900213      0.822404
    48     1      0.570092      0.649826      0.822092
ITEM: TIMESTEP
64450
ITEM: NUMBER OF ATOMS
48
ITEM: BOX BOUNDS xy xz yz  pp  pp  pp
     -0.003081      2.203080      0.000000
     -0.005336      3.815850      0.000000
     -0.007546      5.396420      0.000000
ITEM: ATOMS id type xs ys zs
     1     1      0.045240      0.989987      0.987439
     2     1      0.293159      0.240531      0.986812
     3     1      0.277184      0.411343      0.151726
     4     1      0.027127      0.160686      0.151781
     5     1      0.971790      0.014239      0.319544
     6     1      0.221462      0.264306      0.319416
     7     1      0.208061      0.439779      0.484993
     8     1      0.956865      0.189624      0.484964
     9     1      0.909006      0.038727      0.653068
    10     1      0.158304      0.288778      0.652753
    11     1      0.319205      0.401052      0.822089
    12     1      0.067765      0.150393      0.822240
    13     1      0.044044      0.490703      0.986596
    14     1      0.296086      0.739925      0.986861
    15     1      0.279297      0.911568      0.152316
    16     1      0.027727      0.660996      0.152419
    17     1      0.969846      0.514904      0.320818
    18     1      0.220246      0.764210      0.319729
    19     1      0.208731      0.939899      0.485170
    20     1      0.958110      0.689993      0.484929
    21     1      0.908034      0.540312      0.652237
    22     1      0.157413      0.789456      0.652230
    23     1      0.319827      0.901004      0.821386
    24     1      0.070202      0.650784      0.822074
    25     1      0.545367      0.990076      0.986230
    26     1      0.793023      0.240222      0.987127
    27     1      0.776783      0.411244      0.151860
    28     1      0.526963      0.161177      0.151371
    29     1      0.472315      0.015015      0.320225
    30     1      0.721003      0.265176      0.319548
    31     1      0.708196      0.440696      0.484739
    32     1      0.456904      0.189537      0.484789
    33     1      0.409181      0.038821      0.651992
    34     1      0.659511      0.289647      0.651994
    35     1      0.817793      0.401145      0.821982
    36     1      0.568491      0.150862      0.821651
    37     1      0.543665      0.490326      0.987542
    38     1      0.795017      0.739774      0.987419
    39     1      0.779129      0.911124      0.151978
    40     1      0.526325      0.661419      0.152427
    41     1      0.469662      0.514210      0.320189
    42     1      0.721084      0.765087      0.319708
    43     1      0.707801      0.939631      0.484711
    44     1      0.458392      0.690003      0.484528
    45     1      0.407418      0.539772      0.652622
    46     1      0.658195      0.788999      0.651833
    47     1      0.820859      0.899681      0.821975
    48     1      0.568927      0.650903      0.822356
ITEM: TIMESTEP
64500
ITEM: NUMBER OF ATOMS
48
ITEM: BOX BOUNDS xy xz yz  pp  pp  pp
     -0.003081      2.203080      0.000000
     -0.005336      3.815850      0.000000
     -0.007546      5.396420      0.000000
ITEM: ATOMS id type xs ys zs
     1     1      0.044690      0.990585      0.987639
     2     1      0.293577      0.240968      0.986756
     3     1      0.275421      0.410923      0.151293
     4     1      0.028600      0.160865      0.151508
     5     1      0.972663      0.015474      0.319654
     6     1      0.220632      0.263670      0.319645
     7     1      0.207242      0.439499      0.485024
     8     1      0.956068      0.189674      0.485390
     9     1      0.908811      0.038638      0.652776
    10     1      0.159919      0.288123      0.652335
    11     1      0.317258      0.400746      0.822333
    12     1      0.066006      0.151145      0.822856
    13     1      0.043619      0.490347      0.986739
    14     1      0.296622      0.740534      0.986503
    15     1      0.278733      0.911330      0.152029
    16     1      0.028622      0.661274      0.152380
    17     1      0.971385      0.515389      0.320399