ITEM: TIMESTEP
64001
ITEM: NUMBER OF ATOMS
48
ITEM: BOX BOUNDS xy xz yz  pp  pp  pp
     -0.003081      2.203080      0.000000
     -0.005336      3.815850      0.000000
     -0.007546      5.396420      0.000000
ITEM: ATOMS id type xs ys zs
     1     1      0.048847      0.988295      0.986928
     2     1      0.293101      0.237373      0.986204
     3     1      0.272248      0.408574      0.151658
     4     1      0.022268      0.159424      0.150451
     5     1      0.966963      0.015411      0.319136
     6     1      0.220423      0.262910      0.318696
     7     1      0.211879      0.443166      0.485021
     8     1      0.958997      0.195815      0.485181
     9     1      0.907999      0.044512      0.651825
    10     1      0.153724      0.294573      0.653637
    11     1      0.322575      0.400997      0.822804
    12     1      0.073468      0.149546      0.821813
    13     1      0.039078      0.487096      0.986877
    14     1      0.292139      0.736088      0.986832
    15     1      0.277961      0.908746      0.151332
    16     1      0.026482      0.657936      0.152675
    17     1      0.972191      0.513655      0.320656
    18     1      0.219275      0.764784      0.319835
    19     1      0.208778      0.943800      0.484215
    20     1      0.963794      0.692994      0.485714
    21     1      0.904636      0.544342      0.652449
    22     1      0.157582      0.794899      0.653300
    23     1      0.329300      0.899335      0.821635
    24     1      0.073842      0.649265      0.821739
    25     1      0.549047      0.987305      0.986184
    26     1      0.791430      0.238261      0.985487
    27     1      0.772944      0.409937      0.153058
    28     1      0.523843      0.159690      0.151514
    29     1      0.467892      0.016079      0.319759
    30     1      0.720495      0.265109      0.320130
    31     1      0.709930      0.444846      0.484581
    32     1      0.459284      0.193521      0.484146
    33     1      0.409359      0.042710      0.650836
    34     1      0.651614      0.294855      0.651377
    35     1      0.823738      0.399375      0.820450
    36     1      0.572404      0.150283      0.820173
    37     1      0.541830      0.488408      0.987943
    38     1      0.793980      0.737853      0.988912
    39     1      0.776439      0.909058      0.152435
    40     1      0.525730      0.659847      0.152909
    41     1      0.469331      0.513536      0.319451
    42     1      0.720792      0.764075      0.320611
    43     1      0.712301      0.943241      0.483895
    44     1      0.462136      0.694420      0.485211
    45     1      0.404217      0.544541      0.653290
    46     1      0.658661      0.793749      0.653079
    47     1      0.829102      0.898808      0.822483
    48     1      0.575859      0.649133      0.822892
ITEM: TIMESTEP
64050
ITEM: NUMBER OF ATOMS
48
ITEM: BOX BOUNDS xy xz yz  pp  pp  pp
     -0.003081      2.203080      0.000000
     -0.005336      3.815850      0.000000
     -0.007546      5.396420      0.000000
ITEM: ATOMS id type xs ys zs
     1     1      0.048445      0.989345      0.987174
     2     1      0.293366      0.238920      0.986415
     3     1      0.272646      0.409793      0.151602
     4     1      0.024112      0.159403      0.150663
     5     1      0.965755      0.015371      0.319190
     6     1      0.220023      0.263531      0.319346
     7     1      0.211243      0.442507      0.484712
     8     1      0.960004      0.194012      0.484920
     9     1      0.907212      0.043394      0.651768
    10     1      0.153387      0.293432      0.653380
    11     1      0.322076      0.400835      0.822070
    12     1      0.073225      0.149147      0.821665
    13     1      0.039417      0.488072      0.986553
    14     1      0.293243      0.736859      0.986903
    15     1      0.276807      0.909532      0.151307
    16     1      0.027949      0.658555      0.152420
    17     1      0.970574      0.513266      0.320501
    18     1      0.218750      0.764761      0.319927
    19     1      0.209264      0.943340      0.484468
    20     1      0.964057      0.693001      0.485279
    21     1      0.904550      0.544140      0.652178
    22     1      0.156067      0.794284      0.653196
    23     1      0.327183      0.899402      0.822226
    24     1      0.073018      0.649174      0.821342
    25     1      0.547072      0.988236      0.986210
    26     1      0.793020      0.238582      0.986154
    27     1      0.772208      0.409574      0.152615
    28     1      0.523838      0.160004      0.151970
    29     1      0.469082      0.014952      0.319939
    30     1      0.720096      0.264545      0.320714
    31     1      0.711044      0.443923      0.484420
    32     1      0.458966      0.193273      0.484309
    33     1      0.409591      0.042546      0.651282
    34     1      0.651846      0.294960      0.651232
    35     1      0.822532      0.399175      0.820705
    36     1      0.571891      0.149889      0.820212
    37     1      0.543330      0.488361      0.987962
    38     1      0.792838      0.738315      0.987939
    39     1      0.776471      0.909696      0.152341
    40     1      0.526888      0.660195      0.152445
    41     1      0.469501      0.514343      0.319372
    42     1      0.720426      0.763950      0.321214
    43     1      0.710505      0.942159      0.484373
    44     1      0.461374      0.693636      0.485539
    45     1      0.404332      0.544158      0.652701
    46     1      0.658492      0.793110      0.653110
    47     1      0.827528      0.899793      0.821848
    48     1      0.573428      0.648710      0.822942
ITEM: TIMESTEP
64100
ITEM: NUMBER OF ATOMS
48
ITEM: BOX BOUNDS xy xz yz  pp  pp  pp
     -0.003081      2.203080      0.000000
     -0.005336      3.815850      0.000000
     -0.007546      5.396420      0.000000
ITEM: ATOMS id type xs ys zs
     1     1      0.047851      0.989345      0.986781
     2     1      0.293877      0.238425      0.986880
     3     1      0.273123      0.410168      0.151300
     4     1      0.024862      0.159747      0.150760
     5     1      0.967311      0.015504      0.320772
     6     1      0.218321      0.263627      0.319408
     7     1      0.210805      0.441161      0.485077
     8     1      0.954922      0.194685      0.497694
     9     1      0.905836      0.039614      0.655599
    10     1      0.157526      0.295166      0.656672
    11     1      0.323410      0.400648      0.822910
    12     1      0.073244      0.149274      0.822448
    13     1      0.039013      0.487557      0.985146
    14     1      0.293356      0.737652      0.986929
    15     1      0.276824      0.910195      0.151377
    16     1      0.026726      0.658834      0.151183
    17     1      0.970155      0.513793      0.319989
    18     1      0.220514      0.764599      0.319396
    19     1      0.208549      0.942862      0.484414
    20     1      0.962673      0.693041      0.484160
    21     1      0.906844      0.546539      0.648664
    22     1      0.155527      0.793567      0.652662
    23     1      0.326237      0.899506      0.821438
    24     1      0.072946      0.649133      0.821216
    25     1      0.546444      0.988917      0.986390
    26     1      0.792864      0.240532      0.985126
    27     1      0.772891      0.410249      0.152724
    28     1      0.526102      0.160619      0.151548
    29     1      0.469140      0.014324      0.319693
    30     1      0.721214      0.263629      0.322497
    31     1      0.710896      0.443056      0.483676
    32     1      0.456062      0.192041      0.483436
    33     1      0.408125      0.042063      0.651180
    34     1      0.648051      0.291152      0.647756
    35     1      0.825259      0.399388      0.807474
    36     1      0.573149      0.150199      0.820486
    37     1      0.544603      0.488702      0.987146
    38     1      0.792657      0.739089      0.987390
    39     1      0.776466      0.909457      0.151793
    40     1      0.527123      0.660587      0.152162
    41     1      0.469531      0.514399      0.319449
    42     1      0.719632      0.764368      0.320224
    43     1      0.710839      0.942720      0.485479
    44     1      0.461206      0.693326      0.484940
    45     1      0.406319      0.543677      0.652350
    46     1      0.657551      0.792406      0.653320
    47     1      0.825969      0.900040      0.822703
    48     1      0.571824      0.649049      0.822495
ITEM: TIMESTEP
64150
ITEM: NUMBER OF ATOMS
48
ITEM: BOX BOUNDS xy xz yz  pp  pp  pp
     -0.003081      2.203080      0.000000
     -0.005336      3.815850      0.000000
     -0.007546      5.396420      0.000000
ITEM: ATOMS id type xs ys zs
     1     1      0.048202      0.989140      0.986979
     2     1      0.294811      0.239535      0.987396
     3     1      0.271723      0.411131      0.151212
     4     1      0.024062      0.161168      0.151189
     5     1      0.967072      0.016206      0.320748
     6     1      0.216121      0.263554      0.319605
     7     1      0.210966      0.441239      0.485538
     8     1      0.953423      0.194404      0.492222
     9     1      0.906593      0.039707      0.655535
    10     1      0.154941      0.294325      0.656089
    11     1      0.323828      0.400752      0.822694
    12     1      0.073700      0.149082      0.823137
    13     1      0.039334      0.488385      0.984831
    14     1      0.294649      0.737611      0.986652
    15     1      0.276237      0.910728      0.151681
    16     1      0.026803      0.660049      0.151365
    17     1      0.971518      0.514481      0.320184
    18     1      0.219950      0.765294      0.319496
    19     1      0.206291      0.942559      0.484820
    20     1      0.962650      0.693361      0.483888
    21     1      0.908693      0.545136      0.649224
    22     1      0.156770      0.791787      0.653123
    23     1      0.325254      0.899162      0.820727
    24     1      0.072286      0.649691      0.821434
    25     1      0.546303      0.989492      0.985928
    26     1      0.793686      0.240306      0.984505
    27     1      0.772521      0.410000      0.152740
    28     1      0.525343      0.160826      0.151626
    29     1      0.469304      0.012929      0.319735
    30     1      0.720150      0.264370      0.321932
    31     1      0.709731      0.443092      0.483838
    32     1      0.455656      0.190491      0.483371
    33     1      0.406765      0.042119      0.650963
    34     1      0.650505      0.290749      0.648102
    35     1      0.825753      0.398660      0.812886
    36     1      0.571297      0.150413      0.819973
    37     1      0.543205      0.489477      0.987821
    38     1      0.792881      0.739113      0.986979
    39     1      0.775912      0.910213      0.150914
    40     1      0.525600      0.661080      0.152235
    41     1      0.470032      0.514088      0.319143
    42     1      0.719883      0.763750      0.320129
    43     1      0.708497      0.942854      0.485546
    44     1      0.461022      0.692648      0.485061
    45     1      0.406106      0.542994      0.652383
    46     1      0.656637      0.791629      0.653960
    47     1      0.824493      0.899863      0.823359
    48     1      0.573636      0.649041      0.821559
ITEM: TIMESTEP
64200
ITEM: NUMBER OF ATOMS
48
ITEM: BOX BOUNDS xy xz yz  pp  pp  pp
     -0.003081      2.203080      0.000000
     -0.005336      3.815850      0.000000
     -0.007546      5.396420      0.000000
ITEM: ATOMS id type xs ys zs
     1     1      0.047288      0.989814      0.987246
     2     1      0.294277      0.240174      0.987475
     3     1      0.271642      0.411620      0.151415
     4     1      0.023870      0.161084      0.151627
     5     1      0.967583      0.015118      0.320903
     6     1      0.216769      0.264744      0.320038
     7     1      0.211058      0.440926      0.485306
     8     1      0.954828      0.192713      0.490102
     9     1      0.907226      0.040202      0.655878
    10     1      0.155067      0.293026      0.655306
    11     1      0.322751      0.400824      0.823243
    12     1      0.073389      0.150439      0.823507
    13     1      0.041271      0.488835      0.985043
    14     1      0.294216      0.738443      0.986388
    15     1      0.277890      0.910924      0.151150
    16     1      0.026110      0.660301      0.152028
    17     1      0.971286      0.513785      0.319781
    18     1      0.220331      0.765223      0.319620
    19     1      0.206954      0.942306      0.485047
    20     1      0.961280      0.693076      0.483544
    21     1      0.908945      0.543599      0.649344
    22     1      0.158041      0.791568      0.651958
    23     1      0.323904      0.899978      0.820950
    24     1      0.072790      0.649579      0.820985
    25     1      0.546345      0.990395      0.985668
    26     1      0.793162      0.240630      0.985249
    27     1      0.773037      0.410434      0.152991
    28     1      0.526661      0.161327      0.151691
    29     1      0.468912      0.013694      0.319490
    30     1      0.718907      0.264462      0.321332
    31     1      0.709404      0.442984      0.483166
    32     1      0.455907      0.190712      0.483535
    33     1      0.406308      0.041084      0.651080
    34     1      0.652519      0.290831      0.648273
    35     1      0.823625      0.399566      0.815849
    36     1      0.571806      0.150799      0.819224
    37     1      0.543712      0.489273      0.987498
    38     1      0.793531      0.739465      0.987218
    39     1      0.776762      0.910652      0.151702
    40     1      0.525592      0.661697      0.151743
    41     1      0.469129      0.514441      0.318608
    42     1      0.721109      0.763353      0.320327
    43     1      0.706615      0.941751      0.485753
    44     1      0.459922      0.691806      0.485381
    45     1      0.407366      0.542244      0.653024
    46     1      0.656184      0.791765      0.653501
    47     1      0.823396      0.900113      0.823309
    48     1      0.572606      0.649680      0.821767
ITEM: TIMESTEP
64250
ITEM: NUMBER OF ATOMS
48
ITEM: BOX BOUNDS xy xz yz  pp  pp  pp
     -0.003081      2.203080      0.000000
     -0.005336      3.815850      0.000000
     -0.007546      5.396420      0.000000
ITEM: ATOMS id type xs ys zs
     1     1      0.046586      0.990463      0.987336
     2     1      0.294838      0.239701      0.987557
     3     1      0.270810      0.411680      0.151556
     4     1      0.025919      0.161305      0.151542
     5     1      0.967472      0.015382      0.320383
     6     1      0.216654      0.265358      0.320017
     7     1      0.211193      0.441286      0.485124
     8     1      0.956763      0.191922      0.488334
     9     1      0.907313      0.040277      0.654641
    10     1      0.154082      0.291974      0.654869
    11     1      0.323544      0.400554      0.822851
    12     1      0.071770      0.150259      0.823426
    13     1      0.041818      0.489230      0.985601
    14     1      0.293683      0.739288      0.986680
    15     1      0.276591      0.910921      0.151332
    16     1      0.025180      0.660994      0.151607
    17     1      0.971695      0.515072      0.319523
    18     1      0.221441      0.765149      0.319500
    19     1      0.204374      0.941554      0.484858
    20     1      0.959969      0.691814      0.483474
    21     1      0.909516      0.542533      0.649348
    22     1      0.157439      0.791508      0.651841
    23     1      0.321859      0.900360      0.821666
    24     1      0.073575      0.649625      0.820537
    25     1      0.547059      0.989486      0.985976
    26     1      0.793476      0.240921      0.986140
    27     1      0.773393      0.410959      0.152571
    28     1      0.525861      0.160950      0.152402
    29     1      0.468602      0.013723      0.319679
    30     1      0.720150      0.264337      0.321004
    31     1      0.709460      0.442611      0.483262
    32     1      0.455425      0.189619      0.483182
    33     1      0.406385      0.040607      0.651101
    34     1      0.653611      0.290477      0.648923
    35     1      0.822236      0.400399      0.817380
    36     1      0.572235      0.150290      0.819701
    37     1      0.544655      0.490417      0.987554
    38     1      0.795811      0.739497      0.987097
    39     1      0.777286      0.911390      0.151981
    40     1      0.525408      0.661468      0.152052
    41     1      0.469223      0.514260      0.318746
    42     1      0.720934      0.764640      0.319565
    43     1      0.706378      0.941522      0.485793
    44     1      0.459361      0.691871      0.484989
    45     1      0.407745      0.541496      0.652836
    46     1      0.656691      0.791430      0.653406
    47     1      0.822422      0.900436      0.823095
    48     1      0.572944      0.650014      0.822315
ITEM: TIMESTEP
64300
ITEM: NUMBER OF ATOMS
48
ITEM: BOX BOUNDS xy xz yz  pp  pp  pp
     -0.003081      2.203080      0.000000
     -0.005336      3.815850      0.000000
     -0.007546      5.396420      0.000000
ITEM: ATOMS id type xs ys zs
     1     1      0.046687      0.991125      0.987745
     2     1      0.294371      0.239447      0.987265
     3     1      0.272981      0.412333      0.151475
     4     1      0.025603      0.161623      0.151820
     5     1      0.967515      0.015495      0.320473
     6     1      0.216636      0.264974      0.319432
     7     1      0.209958      0.441224      0.485152
     8     1      0.955843      0.191883      0.486874
     9     1      0.907040      0.040285      0.653886
    10     1      0.154504      0.291357      0.653901
    11     1      0.322270      0.400905      0.823112
    12     1      0.072495      0.151009      0.822975
    13     1      0.042373      0.489315      0.985406
    14     1      0.293824      0.739404      0.986462
    15     1      0.278140      0.911812      0.151015
    16     1      0.025762      0.660952      0.151653
    17     1      0.971553      0.515317      0.319543
    18     1      0.221486      0.764955      0.319169
    19     1      0.204917      0.940464      0.484477
    20     1      0.959104      0.691640      0.483585
    21     1      0.908335      0.541192      0.649929
    22     1      0.157440      0.790404      0.651593
    23     1      0.322314      0.900857      0.821025
    24     1      0.071968      0.650697      0.820680
    25     1      0.546397      0.990199      0.986120
    26     1      0.794830      0.240948      0.986291
    27     1      0.774666      0.410995      0.152347
    28     1      0.526824      0.161054      0.152094
    29     1      0.466976      0.014290      0.319453
    30     1      0.718217      0.264312      0.320225
    31     1      0.709050      0.441530      0.483499
    32     1      0.455021      0.189775      0.482764
    33     1      0.406458      0.040486      0.651000
    34     1      0.653212      0.290754      0.649098
    35     1      0.822258      0.400509      0.818393
    36     1      0.570290      0.151069      0.820014
    37     1      0.543872      0.490251      0.987408
    38     1      0.796705      0.740290      0.987128
    39     1      0.778564      0.911643      0.151538
    40     1      0.525534      0.662118      0.152418
    41     1      0.470722      0.514330      0.319139
    42     1      0.721515      0.764061      0.319736
    43     1      0.704216      0.942020      0.486085
    44     1      0.460418      0.691460      0.485247
    45     1      0.408784      0.540482      0.652536
    46     1      0.658777      0.790550      0.653646
    47     1      0.823552      0.900314      0.822597
    48     1      0.570236      0.650519      0.822498
ITEM: TIMESTEP
64350
ITEM: NUMBER OF ATOMS
48
ITEM: BOX BOUNDS xy xz yz  pp  pp  pp
     -0.003081      2.203080      0.000000
     -0.005336      3.815850      0.000000
     -0.007546      5.396420      0.000000
ITEM: ATOMS id type xs ys zs
     1     1      0.047060      0.991151      0.987380
     2     1      0.295759      0.240423      0.987383
     3     1      0.274412      0.412387      0.151129
     4     1      0.025819      0.161697      0.151847
     5     1      0.966463      0.015487      0.319970
     6     1      0.216618      0.265456      0.318924
     7     1      0.209444      0.441105      0.485511
     8     1      0.955972      0.191217      0.486142
     9     1      0.905967      0.039857      0.653755
    10     1      0.155388      0.290192      0.653329
    11     1      0.321671      0.400715      0.822713
    12     1      0.071113      0.150848      0.822387
    13     1      0.041340      0.490130      0.986213
    14     1      0.293325      0.739552      0.986418
    15     1      0.278248      0.911685      0.150963
    16     1      0.026034      0.660884      0.152327
    17     1      0.971594      0.515751      0.319964
    18     1      0.220846      0.766003      0.319574
    19     1      0.205113      0.940152      0.484598
    20     1      0.958319      0.691686      0.483908
    21     1      0.908932      0.541497      0.650346
    22     1      0.157239      0.790741      0.651712
    23     1      0.321821      0.900984      0.821133
    24     1      0.069216      0.650526      0.821279
    25     1      0.547398      0.989752      0.986284
    26     1      0.794765      0.241422      0.986016
    27     1      0.773956      0.410909      0.152543
    28     1      0.526504      0.160620      0.152029
    29     1      0.467540      0.014204      0.319591
    30     1      0.718938      0.264826      0.320619
    31     1      0.708139      0.440153      0.483703
    32     1      0.454147      0.190453      0.483276
    33     1      0.406437      0.040316      0.651089
    34     1      0.654441      0.290207      0.649962
    35     1      0.820948      0.400797      0.818892
    36     1      0.570599      0.150967      0.820153
    37     1      0.544206      0.490407      0.987330
    38     1      0.795401      0.740301      0.987128
    39     1      0.777853      0.911749      0.151316
    40     1      0.526699      0.662846      0.152073
    41     1      0.470970      0.515530      0.319334
    42     1      0.721394      0.765532      0.319692
    43     1      0.704895      0.941722      0.485905
    44     1      0.460481      0.691376      0.485279
    45     1      0.408489      0.540255      0.652625
    46     1      0.657717      0.790594      0.652896
    47     1      0.821621      0.900677      0.822411
    48     1      0.569050      0.650647      0.822108
ITEM: TIMESTEP
64400
ITEM: NUMBER OF ATOMS
48
ITEM: BOX BOUNDS xy xz yz  pp  pp  pp
     -0.003081      2.203080      0.000000
     -0.005336      3.815850      0.000000
     -0.007546      5.396420      0.000000
ITEM: ATOMS id type xs ys zs
     1     1      0.046597      0.991086      0.986529
     2     1      0.297206      0.241191      0.986863
     3     1      0.274901      0.412175      0.151234
     4     1      0.025518      0.162418      0.152140
     5     1      0.967093      0.015371      0.319933
     6     1      0.217062      0.265235      0.318848
     7     1      0.209963      0.439687      0.485047
     8     1      0.955821      0.191259      0.485707
     9     1      0.905825      0.040063      0.653490
    10     1      0.156197      0.290139      0.653164
    11     1      0.321304      0.400453      0.822945
    12     1      0.071062      0.150641      0.822304
    13     1      0.042026      0.490191      0.986588
    14     1      0.294148      0.739937      0.986506
    15     1      0.276769      0.911912      0.151143
    16     1      0.024892      0.661242      0.152504
    17     1      0.971375      0.515550      0.319720
    18     1      0.221392      0.765164      0.319693
    19     1      0.204957      0.940772      0.483709
    20     1      0.958429      0.690405      0.483784
    21     1      0.907734      0.540837      0.650508
    22     1      0.157455      0.789742      0.651805
    23     1      0.321950      0.900616      0.821210
    24     1      0.067590      0.650916      0.821384
    25     1      0.547022      0.990288      0.985823
    26     1      0.796447      0.241068      0.985714
    27     1      0.773789      0.411513      0.152359
    28     1      0.527608      0.161891      0.152326
    29     1      0.468080      0.014179      0.319296
    30     1      0.719286      0.264619      0.320320
    31     1      0.708214      0.440789      0.483916
    32     1      0.454630      0.190475      0.483803
    33     1      0.404765      0.039557      0.651754
    34     1      0.655290      0.290070      0.650396
    35     1      0.820821      0.400469      0.819616
    36     1      0.570580      0.151471      0.820886
    37     1      0.545124      0.490130      0.987442
    38     1      0.795711      0.740488      0.987169
    39     1      0.777626      0.911986      0.151178
    40     1      0.526939      0.663293      0.152102
    41     1      0.471491      0.514715      0.319298
    42     1      0.720634      0.765331      0.319688
    43     1      0.703759      0.941663      0.485489
    44     1      0.459028      0.690975      0.484711
    45     1      0.408988      0.539370      0.652632
    46     1      0.656518      0.790474      0.653206
    47     1      0.821179      0.900592      0.822531
    48     1      0.567232      0.650646      0.822376
ITEM: TIMESTEP
64450
ITEM: NUMBER OF ATOMS
48
ITEM: BOX BOUNDS xy xz yz  pp  pp  pp
     -0.003081      2.203080      0.000000
     -0.005336      3.815850      0.000000
     -0.007546      5.396420      0.000000
ITEM: ATOMS id type xs ys zs
     1     1      0.046385      0.990952      0.987057
     2     1      0.297375      0.241286      0.987152
     3     1      0.275661      0.413014      0.151335
     4     1      0.027007      0.162476      0.151654
     5     1      0.968134      0.015569      0.319416
     6     1      0.219301      0.265555      0.319679
     7     1      0.209106      0.440405      0.484954
     8     1      0.955953      0.191030      0.485674
     9     1      0.906395      0.040175      0.653240
    10     1      0.156473      0.289685      0.652632
    11     1      0.320830      0.401295      0.823004
    12     1      0.070934      0.149970      0.822332
    13     1      0.042756      0.491060      0.986198
    14     1      0.295132      0.739242      0.986534
    15     1      0.277741      0.912014      0.151398
    16     1      0.023482      0.662286      0.152096
    17     1      0.971305      0.514598      0.319648
    18     1      0.220722      0.764854      0.319352
    19     1      0.205543      0.940388      0.483569
    20     1      0.959815      0.690654      0.483988
    21     1      0.908294      0.539898      0.650905
    22     1      0.159335      0.789757      0.651727
    23     1      0.320305      0.900778      0.821266
    24     1      0.068529      0.651250      0.820901
    25     1      0.547050      0.990224      0.986007
    26     1      0.795678      0.240589      0.985696
    27     1      0.774539      0.411480      0.152735
    28     1      0.528456      0.161664      0.151780
    29     1      0.469283      0.014464      0.319075
    30     1      0.719947      0.264791      0.320115
    31     1      0.708541      0.440914      0.483944
    32     1      0.455297      0.190178      0.483651
    33     1      0.406161      0.040564      0.651248
    34     1      0.656371      0.289695      0.650268
    35     1      0.820510      0.400186      0.820006
    36     1      0.570472      0.151559      0.820528
    37     1      0.544896      0.491119      0.987380
    38     1      0.795790      0.740986      0.986738
    39     1      0.777769      0.912564      0.151525
    40     1      0.526006      0.663010      0.151955
    41     1      0.471169      0.515250      0.319383
    42     1      0.720560      0.765216      0.319457
    43     1      0.704354      0.941114      0.485557
    44     1      0.458349      0.690896      0.485045
    45     1      0.407558      0.539037      0.652737
    46     1      0.657685      0.789972      0.653282
    47     1      0.819830      0.900387      0.822299
    48     1      0.567416      0.650772      0.822106
ITEM: TIMESTEP
64500
ITEM: NUMBER OF ATOMS
48
ITEM: BOX BOUNDS xy xz yz  pp  pp  pp
     -0.003081      2.203080      0.000000
     -0.005336      3.815850      0.000000
     -0.007546      5.396420      0.000000
ITEM: ATOMS id type xs ys zs
     1     1      0.046650      0.990818      0.986861
     2     1      0.296871      0.241155      0.987493
     3     1      0.275189      0.413700      0.151502
     4     1      0.026626      0.162461      0.151639
     5     1      0.968654      0.015875      0.319824
     6     1      0.220187      0.265559      0.319695
     7     1      0.207756      0.440312      0.484754
     8     1      0.956059      0.190274      0.485452
     9     1      0.907300      0.039517      0.652915
    10     1      0.155581      0.289538      0.652785
    11     1      0.320324      0.400180      0.821991
    12     1      0.070851      0.150399      0.822395
    13     1      0.043059      0.491080      0.986436
    14     1      0.294634      0.739820      0.986192
    15     1      0.278049      0.912849      0.151461
    16     1      0.025552      0.662214      0.151947
    17     1      0.971415      0.514504      0.319224