ITEM: TIMESTEP
64001
ITEM: NUMBER OF ATOMS
48
ITEM: BOX BOUNDS xy xz yz  pp  pp  pp
     -0.003081      2.203080      0.000000
     -0.005336      3.815850      0.000000
     -0.007546      5.396420      0.000000
ITEM: ATOMS id type xs ys zs
     1     1      0.048858      0.988307      0.986870
     2     1      0.293131      0.237406      0.986114
     3     1      0.272304      0.408578      0.151525
     4     1      0.022352      0.159384      0.150388
     5     1      0.966888      0.015455      0.319081
     6     1      0.220379      0.263015      0.318796
     7     1      0.212451      0.443150      0.485080
     8     1      0.959119      0.195693      0.485289
     9     1      0.907706      0.044668      0.651807
    10     1      0.153648      0.294562      0.653511
    11     1      0.322834      0.401032      0.822779
    12     1      0.073916      0.149429      0.821760
    13     1      0.039041      0.487144      0.986968
    14     1      0.292176      0.735799      0.986930
    15     1      0.277972      0.908778      0.151294
    16     1      0.026071      0.657811      0.152763
    17     1      0.971956      0.513384      0.320754
    18     1      0.219137      0.764675      0.319913
    19     1      0.209055      0.943840      0.484275
    20     1      0.963600      0.692935      0.485584
    21     1      0.904613      0.544155      0.652529
    22     1      0.157632      0.794864      0.653242
    23     1      0.329409      0.899309      0.821537
    24     1      0.073887      0.649137      0.821604
    25     1      0.548973      0.987133      0.986186
    26     1      0.791356      0.237999      0.985530
    27     1      0.772727      0.409876      0.153130
    28     1      0.523594      0.159640      0.151448
    29     1      0.467784      0.016032      0.319841
    30     1      0.720300      0.264886      0.320244
    31     1      0.709745      0.444879      0.484673
    32     1      0.459160      0.193572      0.484192
    33     1      0.409320      0.042664      0.650999
    34     1      0.651986      0.294776      0.651229
    35     1      0.823641      0.399426      0.820470
    36     1      0.572447      0.150319      0.820136
    37     1      0.541728      0.488394      0.987997
    38     1      0.793906      0.737919      0.988816
    39     1      0.776961      0.909091      0.152330
    40     1      0.525718      0.659834      0.152771
    41     1      0.469610      0.513513      0.319426
    42     1      0.720827      0.764168      0.320542
    43     1      0.712117      0.943302      0.483929
    44     1      0.462022      0.694532      0.485231
    45     1      0.404313      0.544664      0.653201
    46     1      0.658599      0.793762      0.653179
    47     1      0.828976      0.898822      0.822368
    48     1      0.575895      0.649162      0.823001
ITEM: TIMESTEP
64050
ITEM: NUMBER OF ATOMS
48
ITEM: BOX BOUNDS xy xz yz  pp  pp  pp
     -0.003081      2.203080      0.000000
     -0.005336      3.815850      0.000000
     -0.007546      5.396420      0.000000
ITEM: ATOMS id type xs ys zs
     1     1      0.048587      0.988383      0.986764
     2     1      0.293236      0.237851      0.986822
     3     1      0.273667      0.409015      0.151326
     4     1      0.025469      0.159772      0.150899
     5     1      0.967981      0.014820      0.319983
     6     1      0.217907      0.262572      0.318492
     7     1      0.212779      0.442041      0.485232
     8     1      0.959013      0.194469      0.484841
     9     1      0.907524      0.042975      0.652135
    10     1      0.153043      0.293179      0.653399
    11     1      0.323291      0.399886      0.822312
    12     1      0.074788      0.149526      0.821764
    13     1      0.040609      0.487826      0.987260
    14     1      0.294378      0.737354      0.987135
    15     1      0.278550      0.909357      0.152013
    16     1      0.026608      0.658506      0.152519
    17     1      0.971032      0.513734      0.320692
    18     1      0.220073      0.764281      0.320211
    19     1      0.207883      0.943167      0.485033
    20     1      0.962285      0.692464      0.485127
    21     1      0.903794      0.543272      0.652405
    22     1      0.157800      0.794521      0.653106
    23     1      0.327565      0.898533      0.821318
    24     1      0.071918      0.650068      0.821508
    25     1      0.547242      0.987220      0.986464
    26     1      0.793277      0.238155      0.986165
    27     1      0.773223      0.410422      0.153343
    28     1      0.525130      0.159342      0.151549
    29     1      0.468759      0.015258      0.320314
    30     1      0.718998      0.264212      0.319652
    31     1      0.708186      0.443864      0.484444
    32     1      0.459398      0.193032      0.484017
    33     1      0.409208      0.042093      0.651023
    34     1      0.653021      0.294055      0.651549
    35     1      0.823525      0.399499      0.820914
    36     1      0.572625      0.149285      0.820419
    37     1      0.542850      0.488479      0.987806
    38     1      0.793666      0.738853      0.988244
    39     1      0.776434      0.909885      0.152259
    40     1      0.525513      0.659952      0.152698
    41     1      0.471236      0.513354      0.319641
    42     1      0.719843      0.763822      0.320064
    43     1      0.710891      0.943169      0.484260
    44     1      0.461936      0.693857      0.485773
    45     1      0.404336      0.544071      0.653624
    46     1      0.658350      0.793405      0.652930
    47     1      0.828775      0.899479      0.821793
    48     1      0.575193      0.649920      0.822582
ITEM: TIMESTEP
64100
ITEM: NUMBER OF ATOMS
48
ITEM: BOX BOUNDS xy xz yz  pp  pp  pp
     -0.003081      2.203080      0.000000
     -0.005336      3.815850      0.000000
     -0.007546      5.396420      0.000000
ITEM: ATOMS id type xs ys zs
     1     1      0.047467      0.987723      0.986825
     2     1      0.293594      0.237864      0.987144
     3     1      0.274890      0.410038      0.151762
     4     1      0.024678      0.159459      0.150678
     5     1      0.968097      0.014452      0.319932
     6     1      0.218303      0.263233      0.318761
     7     1      0.211911      0.441931      0.485515
     8     1      0.957902      0.194219      0.485478
     9     1      0.907861      0.043490      0.652590
    10     1      0.152563      0.292409      0.653380
    11     1      0.323214      0.399700      0.822283
    12     1      0.073520      0.148911      0.821585
    13     1      0.040499      0.487717      0.987622
    14     1      0.294865      0.737958      0.987257
    15     1      0.277220      0.909227      0.152513
    16     1      0.026090      0.659498      0.152858
    17     1      0.970332      0.514558      0.320859
    18     1      0.220542      0.764605      0.320263
    19     1      0.208689      0.943339      0.484707
    20     1      0.961609      0.691961      0.485130
    21     1      0.903522      0.542655      0.652460
    22     1      0.157423      0.793465      0.653322
    23     1      0.327342      0.899113      0.821828
    24     1      0.072225      0.650275      0.821647
    25     1      0.547551      0.988515      0.986350
    26     1      0.793908      0.237969      0.986718
    27     1      0.774369      0.410159      0.153104
    28     1      0.524906      0.159551      0.151573
    29     1      0.469520      0.014251      0.319979
    30     1      0.717900      0.263984      0.319854
    31     1      0.708880      0.443517      0.484495
    32     1      0.458384      0.193039      0.484476
    33     1      0.409582      0.042478      0.651707
    34     1      0.652216      0.293791      0.652029
    35     1      0.824118      0.399947      0.820725
    36     1      0.573007      0.149071      0.820653
    37     1      0.543153      0.488287      0.987608
    38     1      0.793522      0.738803      0.988109
    39     1      0.777069      0.909727      0.152336
    40     1      0.526882      0.660984      0.153210
    41     1      0.470615      0.513669      0.319527
    42     1      0.720488      0.764851      0.320824
    43     1      0.709619      0.943723      0.484938
    44     1      0.461098      0.692987      0.485332
    45     1      0.404076      0.543436      0.653181
    46     1      0.658472      0.792931      0.652686
    47     1      0.827300      0.900211      0.821607
    48     1      0.572874      0.650055      0.822511
ITEM: TIMESTEP
64150
ITEM: NUMBER OF ATOMS
48
ITEM: BOX BOUNDS xy xz yz  pp  pp  pp
     -0.003081      2.203080      0.000000
     -0.005336      3.815850      0.000000
     -0.007546      5.396420      0.000000
ITEM: ATOMS id type xs ys zs
     1     1      0.046096      0.988556      0.986710
     2     1      0.293477      0.238221      0.986533
     3     1      0.275422      0.409436      0.151743
     4     1      0.025469      0.160156      0.151280
     5     1      0.968052      0.014973      0.320050
     6     1      0.217778      0.263992      0.319487
     7     1      0.209149      0.441445      0.485530
     8     1      0.957771      0.193374      0.484416
     9     1      0.908854      0.042525      0.652096
    10     1      0.154226      0.292270      0.652767
    11     1      0.322823      0.399629      0.821864
    12     1      0.073387      0.149966      0.821276
    13     1      0.042472      0.488748      0.987219
    14     1      0.293879      0.737677      0.987552
    15     1      0.275853      0.910129      0.151991
    16     1      0.025814      0.659325      0.152169
    17     1      0.972475      0.513669      0.320647
    18     1      0.220702      0.764368      0.319851
    19     1      0.207562      0.943380      0.484957
    20     1      0.961033      0.691570      0.484755
    21     1      0.905071      0.541993      0.652566
    22     1      0.156866      0.792555      0.652860
    23     1      0.325382      0.898946      0.822302
    24     1      0.071474      0.650322      0.822071
    25     1      0.547715      0.988799      0.986769
    26     1      0.793591      0.238389      0.986528
    27     1      0.777094      0.410685      0.152650
    28     1      0.525714      0.159135      0.151821
    29     1      0.469360      0.014024      0.319679
    30     1      0.719414      0.264510      0.319927
    31     1      0.709627      0.443198      0.484921
    32     1      0.457491      0.192654      0.484799
    33     1      0.410166      0.041381      0.652142
    34     1      0.652928      0.293162      0.651962
    35     1      0.825160      0.399947      0.820823
    36     1      0.573344      0.148720      0.820752
    37     1      0.543526      0.487824      0.987904
    38     1      0.791944      0.739038      0.988116
    39     1      0.777170      0.909864      0.152109
    40     1      0.525826      0.660652      0.153011
    41     1      0.470403      0.513539      0.319935
    42     1      0.720597      0.764982      0.320293
    43     1      0.708712      0.943529      0.485240
    44     1      0.460311      0.692638      0.484977
    45     1      0.404309      0.542822      0.653087
    46     1      0.658599      0.792015      0.652993
    47     1      0.826699      0.899746      0.821739
    48     1      0.572392      0.649450      0.822519
ITEM: TIMESTEP
64200
ITEM: NUMBER OF ATOMS
48
ITEM: BOX BOUNDS xy xz yz  pp  pp  pp
     -0.003081      2.203080      0.000000
     -0.005336      3.815850      0.000000
     -0.007546      5.396420      0.000000
ITEM: ATOMS id type xs ys zs
     1     1      0.047335      0.987944      0.987344
     2     1      0.294645      0.238696      0.987167
     3     1      0.276336      0.410608      0.151726
     4     1      0.025938      0.160406      0.151393
     5     1      0.969182      0.014835      0.319240
     6     1      0.219841      0.264841      0.319572
     7     1      0.208081      0.440983      0.485170
     8     1      0.957768      0.192891      0.484132
     9     1      0.910165      0.042443      0.651972
    10     1      0.155205      0.291926      0.652521
    11     1      0.324165      0.399978      0.822097
    12     1      0.073681      0.149468      0.822161
    13     1      0.042213      0.489308      0.987190
    14     1      0.293866      0.738131      0.987603
    15     1      0.276533      0.910011      0.151891
    16     1      0.025766      0.660487      0.152651
    17     1      0.971285      0.514305      0.320626
    18     1      0.221027      0.764268      0.319989
    19     1      0.208029      0.942352      0.484709
    20     1      0.960350      0.691555      0.484994
    21     1      0.904586      0.542626      0.652684
    22     1      0.157984      0.792427      0.652769
    23     1      0.324925      0.899311      0.822378
    24     1      0.072761      0.649913      0.822093
    25     1      0.547110      0.989089      0.987580
    26     1      0.794946      0.238388      0.986853
    27     1      0.777907      0.410833      0.152665
    28     1      0.524966      0.159735      0.151795
    29     1      0.468181      0.013991      0.320075
    30     1      0.718494      0.264350      0.320088
    31     1      0.706612      0.442531      0.484716
    32     1      0.456760      0.192666      0.485232
    33     1      0.409499      0.041898      0.651891
    34     1      0.654549      0.292528      0.652143
    35     1      0.823740      0.399744      0.821549
    36     1      0.573923      0.149584      0.821493
    37     1      0.545444      0.489104      0.988100
    38     1      0.792854      0.739344      0.987665
    39     1      0.776941      0.910336      0.152495
    40     1      0.525953      0.660701      0.152665
    41     1      0.470964      0.514580      0.319968
    42     1      0.721324      0.765051      0.320557
    43     1      0.709079      0.942568      0.485451
    44     1      0.459614      0.692043      0.485276
    45     1      0.404483      0.542414      0.652774
    46     1      0.657782      0.792042      0.652859
    47     1      0.823867      0.899109      0.821884
    48     1      0.572424      0.648982      0.822264
ITEM: TIMESTEP
64250
ITEM: NUMBER OF ATOMS
48
ITEM: BOX BOUNDS xy xz yz  pp  pp  pp
     -0.003081      2.203080      0.000000
     -0.005336      3.815850      0.000000
     -0.007546      5.396420      0.000000
ITEM: ATOMS id type xs ys zs
     1     1      0.048088      0.988432      0.987183
     2     1      0.294113      0.238741      0.986748
     3     1      0.277323      0.411030      0.151538
     4     1      0.025761      0.159638      0.151055
     5     1      0.969493      0.015223      0.319670
     6     1      0.219685      0.265186      0.319796
     7     1      0.206848      0.440216      0.485272
     8     1      0.957686      0.191761      0.484575
     9     1      0.910395      0.042343      0.652219
    10     1      0.156348      0.291130      0.652398
    11     1      0.323219      0.399898      0.822281
    12     1      0.074678      0.149754      0.822263
    13     1      0.043403      0.489455      0.987250
    14     1      0.294990      0.738398      0.987229
    15     1      0.278508      0.910091      0.151988
    16     1      0.027034      0.660856      0.152559
    17     1      0.970045      0.514593      0.320381
    18     1      0.219972      0.764197      0.319745
    19     1      0.208853      0.941796      0.484443
    20     1      0.958552      0.691760      0.485121
    21     1      0.904815      0.542095      0.652619
    22     1      0.158729      0.792402      0.652489
    23     1      0.324569      0.898475      0.822065
    24     1      0.071535      0.650545      0.822090
    25     1      0.547004      0.989492      0.987292
    26     1      0.794869      0.239022      0.986993
    27     1      0.779157      0.411115      0.152654
    28     1      0.525475      0.160614      0.151837
    29     1      0.469034      0.014349      0.319855
    30     1      0.716658      0.265239      0.319950
    31     1      0.707227      0.442267      0.484725
    32     1      0.455955      0.192257      0.485110
    33     1      0.408466      0.041107      0.651814
    34     1      0.655373      0.292897      0.652960
    35     1      0.822576      0.399738      0.821642
    36     1      0.573641      0.149172      0.821396
    37     1      0.546363      0.489123      0.988332
    38     1      0.792284      0.739233      0.986981
    39     1      0.777561      0.910733      0.152235
    40     1      0.527377      0.661183      0.152802
    41     1      0.469101      0.514255      0.319964
    42     1      0.721793      0.764922      0.320647
    43     1      0.708351      0.942412      0.485466
    44     1      0.457804      0.692296      0.484932
    45     1      0.405301      0.541876      0.652606
    46     1      0.656915      0.792604      0.653215
    47     1      0.824184      0.899368      0.822018
    48     1      0.572873      0.648836      0.822383
ITEM: TIMESTEP
64300
ITEM: NUMBER OF ATOMS
48
ITEM: BOX BOUNDS xy xz yz  pp  pp  pp
     -0.003081      2.203080      0.000000
     -0.005336      3.815850      0.000000
     -0.007546      5.396420      0.000000
ITEM: ATOMS id type xs ys zs
     1     1      0.047546      0.988390      0.987018
     2     1      0.294907      0.239498      0.987437
     3     1      0.276902      0.410500      0.151737
     4     1      0.025899      0.160293      0.151612
     5     1      0.970407      0.014846      0.320319
     6     1      0.219676      0.264476      0.320101
     7     1      0.205911      0.440649      0.485450
     8     1      0.958246      0.192008      0.485017
     9     1      0.910441      0.041875      0.652511
    10     1      0.157995      0.290496      0.652676
    11     1      0.322705      0.400033      0.822335
    12     1      0.074032      0.150010      0.822670
    13     1      0.044028      0.490301      0.987250
    14     1      0.294703      0.738797      0.987328
    15     1      0.277712      0.910242      0.151919
    16     1      0.026343      0.661673      0.152490
    17     1      0.969274      0.514221      0.320276
    18     1      0.221899      0.764770      0.319427
    19     1      0.208471      0.941199      0.484884
    20     1      0.958064      0.692070      0.485379
    21     1      0.906443      0.541687      0.652945
    22     1      0.157366      0.792309      0.652204
    23     1      0.323860      0.898760      0.821857
    24     1      0.071632      0.649832      0.822114
    25     1      0.547277      0.989897      0.986857
    26     1      0.794702      0.239460      0.986957
    27     1      0.778409      0.410466      0.152307
    28     1      0.525337      0.161382      0.152166
    29     1      0.469480      0.014717      0.320296
    30     1      0.718397      0.265519      0.320154
    31     1      0.707052      0.442012      0.484799
    32     1      0.456739      0.192097      0.485198
    33     1      0.409881      0.040920      0.652371
    34     1      0.656592      0.291518      0.653002
    35     1      0.822760      0.400179      0.821850
    36     1      0.573119      0.149726      0.821727
    37     1      0.545699      0.489302      0.987712
    38     1      0.794377      0.739416      0.987347
    39     1      0.778324      0.910634      0.151832
    40     1      0.527783      0.661437      0.152452
    41     1      0.468638      0.514354      0.319980
    42     1      0.722314      0.765077      0.320456
    43     1      0.706993      0.941312      0.485250
    44     1      0.457857      0.691647      0.485323
    45     1      0.405670      0.541323      0.652432
    46     1      0.656791      0.792223      0.653205
    47     1      0.824129      0.899438      0.821988
    48     1      0.572980      0.649590      0.822024
ITEM: TIMESTEP
64350
ITEM: NUMBER OF ATOMS
48
ITEM: BOX BOUNDS xy xz yz  pp  pp  pp
     -0.003081      2.203080      0.000000
     -0.005336      3.815850      0.000000
     -0.007546      5.396420      0.000000
ITEM: ATOMS id type xs ys zs
     1     1      0.047768      0.988257      0.986388
     2     1      0.295459      0.239437      0.987272
     3     1      0.277326      0.411242      0.151457
     4     1      0.025890      0.160560      0.151776
     5     1      0.970161      0.014746      0.320107
     6     1      0.219175      0.265233      0.319882
     7     1      0.204607      0.441459      0.485860
     8     1      0.957348      0.191292      0.484848
     9     1      0.910134      0.041497      0.653194
    10     1      0.158770      0.290599      0.652318
    11     1      0.321643      0.400279      0.822551
    12     1      0.072867      0.149844      0.822972
    13     1      0.044671      0.490453      0.987379
    14     1      0.296452      0.739066      0.987545
    15     1      0.278450      0.911023      0.151788
    16     1      0.027264      0.662085      0.152196
    17     1      0.969372      0.514715      0.320110
    18     1      0.221477      0.764430      0.319849
    19     1      0.208574      0.940974      0.485448
    20     1      0.959041      0.692579      0.485687
    21     1      0.907444      0.541386      0.653055
    22     1      0.156889      0.791324      0.652719
    23     1      0.324339      0.899547      0.822060
    24     1      0.070655      0.650038      0.822532
    25     1      0.546542      0.989568      0.987335
    26     1      0.795920      0.239974      0.987062
    27     1      0.778103      0.411132      0.151972
    28     1      0.525614      0.160908      0.151435
    29     1      0.470170      0.014648      0.320020
    30     1      0.718355      0.266139      0.319688
    31     1      0.708791      0.441144      0.485029
    32     1      0.455791      0.191797      0.484714
    33     1      0.410121      0.040947      0.651942
    34     1      0.659107      0.291575      0.653007
    35     1      0.821483      0.400485      0.822103
    36     1      0.573311      0.149646      0.821996
    37     1      0.544604      0.489652      0.987526
    38     1      0.795191      0.739229      0.986563
    39     1      0.778628      0.911344      0.151821
    40     1      0.527846      0.661800      0.152855
    41     1      0.468522      0.514110      0.320678
    42     1      0.723408      0.765109      0.320797
    43     1      0.708434      0.941153      0.485921
    44     1      0.458711      0.690754      0.484893
    45     1      0.406616      0.540110      0.652535
    46     1      0.658189      0.791352      0.652914
    47     1      0.822987      0.899816      0.821990
    48     1      0.573425      0.648928      0.822215
ITEM: TIMESTEP
64400
ITEM: NUMBER OF ATOMS
48
ITEM: BOX BOUNDS xy xz yz  pp  pp  pp
     -0.003081      2.203080      0.000000
     -0.005336      3.815850      0.000000
     -0.007546      5.396420      0.000000
ITEM: ATOMS id type xs ys zs
     1     1      0.046771      0.988790      0.987237
     2     1      0.296047      0.239210      0.986901
     3     1      0.277502      0.411329      0.152217
     4     1      0.027410      0.160864      0.151906
     5     1      0.969558      0.015424      0.320403
     6     1      0.218195      0.264703      0.320035
     7     1      0.206448      0.441445      0.485676
     8     1      0.956273      0.191053      0.484966
     9     1      0.908786      0.040762      0.653011
    10     1      0.158344      0.289812      0.652556
    11     1      0.320787      0.400040      0.822344
    12     1      0.071344      0.150155      0.822686
    13     1      0.046928      0.490273      0.987112
    14     1      0.295453      0.738590      0.987617
    15     1      0.277946      0.911140      0.151978
    16     1      0.028052      0.661739      0.152411
    17     1      0.969001      0.514788      0.320453
    18     1      0.220354      0.764552      0.319979
    19     1      0.208051      0.940705      0.485173
    20     1      0.957869      0.692156      0.485798
    21     1      0.909220      0.541595      0.652840
    22     1      0.159357      0.790580      0.652669
    23     1      0.322882      0.899416      0.822541
    24     1      0.071057      0.650759      0.822535
    25     1      0.546444      0.990326      0.987187
    26     1      0.796640      0.239687      0.987184
    27     1      0.777122      0.410738      0.151946
    28     1      0.526301      0.161318      0.151837
    29     1      0.470026      0.015110      0.320451
    30     1      0.718400      0.265469      0.319486
    31     1      0.707007      0.441247      0.485560
    32     1      0.456619      0.191676      0.485094
    33     1      0.409929      0.040279      0.652385
    34     1      0.658991      0.291226      0.652879
    35     1      0.822423      0.401197      0.822329
    36     1      0.572455      0.149760      0.822027
    37     1      0.544509      0.489692      0.987576
    38     1      0.796098      0.739893      0.987248
    39     1      0.779111      0.911722      0.152409
    40     1      0.527870      0.662228      0.152908
    41     1      0.468101      0.515008      0.320884
    42     1      0.721320      0.765357      0.321187
    43     1      0.706912      0.940124      0.485460
    44     1      0.457909      0.691040      0.484842
    45     1      0.408350      0.540257      0.653178
    46     1      0.658134      0.790544      0.652847
    47     1      0.822195      0.899738      0.822575
    48     1      0.572180      0.649937      0.821750
ITEM: TIMESTEP
64450
ITEM: NUMBER OF ATOMS
48
ITEM: BOX BOUNDS xy xz yz  pp  pp  pp
     -0.003081      2.203080      0.000000
     -0.005336      3.815850      0.000000
     -0.007546      5.396420      0.000000
ITEM: ATOMS id type xs ys zs
     1     1      0.046759      0.989417      0.987077
     2     1      0.295139      0.239181      0.986881
     3     1      0.277257      0.411407      0.151883
     4     1      0.027042      0.161313      0.151571
     5     1      0.970594      0.015192      0.320006
     6     1      0.218143      0.265731      0.319826
     7     1      0.206127      0.441563      0.485538
     8     1      0.956087      0.190592      0.484712
     9     1      0.909357      0.039821      0.652492
    10     1      0.158361      0.289864      0.653039
    11     1      0.319294      0.400450      0.822433
    12     1      0.070302      0.151126      0.822850
    13     1      0.045440      0.490593      0.987110
    14     1      0.297991      0.739357      0.986947
    15     1      0.278485      0.912028      0.151985
    16     1      0.027633      0.660763      0.152330
    17     1      0.968448      0.514762      0.320516
    18     1      0.221166      0.765177      0.319585
    19     1      0.208510      0.940309      0.485197
    20     1      0.957066      0.691553      0.486049
    21     1      0.909492      0.539882      0.652952
    22     1      0.159918      0.790978      0.652998
    23     1      0.322530      0.900121      0.822724
    24     1      0.073087      0.650523      0.822140
    25     1      0.545671      0.991187      0.987414
    26     1      0.796181      0.239833      0.986751
    27     1      0.778349      0.411434      0.152005
    28     1      0.528118      0.161273      0.151640
    29     1      0.470785      0.015604      0.320489
    30     1      0.717286      0.265601      0.319751
    31     1      0.706492      0.441360      0.485487
    32     1      0.455546      0.191507      0.485383
    33     1      0.409083      0.039518      0.652235
    34     1      0.659009      0.290568      0.652796
    35     1      0.820286      0.400974      0.822134
    36     1      0.571662      0.149612      0.822379
    37     1      0.544907      0.489746      0.986746
    38     1      0.795606      0.740230      0.988004
    39     1      0.779212      0.911507      0.152265
    40     1      0.528142      0.661687      0.152404
    41     1      0.469540      0.514837      0.320239
    42     1      0.721296      0.765411      0.320829
    43     1      0.707174      0.940237      0.485143
    44     1      0.457796      0.691298      0.485249
    45     1      0.409128      0.540263      0.653146
    46     1      0.660181      0.790593      0.652695
    47     1      0.822248      0.900048      0.822032
    48     1      0.572620      0.650400      0.822589
ITEM: TIMESTEP
64500
ITEM: NUMBER OF ATOMS
48
ITEM: BOX BOUNDS xy xz yz  pp  pp  pp
     -0.003081      2.203080      0.000000
     -0.005336      3.815850      0.000000
     -0.007546      5.396420      0.000000
ITEM: ATOMS id type xs ys zs
     1     1      0.047215      0.989740      0.986805
     2     1      0.294475      0.240087      0.986980
     3     1      0.277827      0.411251      0.151864
     4     1      0.027494      0.161057      0.152070
     5     1      0.969848      0.015110      0.320350
     6     1      0.217489      0.265921      0.320367
     7     1      0.206755      0.441532      0.485549
     8     1      0.956171      0.190688      0.485244
     9     1      0.909419      0.038786      0.652183
    10     1      0.159161      0.289281      0.653096
    11     1      0.318764      0.400397      0.822641
    12     1      0.069349      0.151143      0.822808
    13     1      0.045445      0.490148      0.987252
    14     1      0.299297      0.740781      0.987438
    15     1      0.280307      0.911953      0.151781
    16     1      0.029974      0.661132      0.152338
    17     1      0.969593      0.515470      0.320231