ITEM: TIMESTEP
64001
ITEM: NUMBER OF ATOMS
48
ITEM: BOX BOUNDS xy xz yz  pp  pp  pp
     -0.003081      2.203080      0.000000
     -0.005336      3.815850      0.000000
     -0.007546      5.396420      0.000000
ITEM: ATOMS id type xs ys zs
     1     1      0.048783      0.988096      0.987113
     2     1      0.293117      0.237293      0.986165
     3     1      0.272520      0.408586      0.151625
     4     1      0.022468      0.159288      0.150341
     5     1      0.967207      0.015361      0.319070
     6     1      0.220331      0.262866      0.318768
     7     1      0.211855      0.443223      0.485061
     8     1      0.959123      0.195733      0.485262
     9     1      0.907645      0.044546      0.651779
    10     1      0.153583      0.294654      0.653536
    11     1      0.322625      0.400938      0.822809
    12     1      0.073762      0.149380      0.821752
    13     1      0.039000      0.487161      0.987086
    14     1      0.292219      0.735800      0.987016
    15     1      0.277898      0.908689      0.151349
    16     1      0.026164      0.657957      0.152852
    17     1      0.972035      0.513400      0.320653
    18     1      0.219233      0.764636      0.319872
    19     1      0.208936      0.943749      0.484220
    20     1      0.963624      0.692845      0.485613
    21     1      0.904780      0.544315      0.652452
    22     1      0.157643      0.794933      0.653281
    23     1      0.329498      0.899328      0.821722
    24     1      0.073645      0.649143      0.821665
    25     1      0.549092      0.987172      0.986217
    26     1      0.791658      0.237989      0.985604
    27     1      0.772426      0.409860      0.153154
    28     1      0.523882      0.159601      0.151529
    29     1      0.467987      0.016033      0.319724
    30     1      0.720549      0.265043      0.320114
    31     1      0.709789      0.444853      0.484634
    32     1      0.458968      0.193608      0.484137
    33     1      0.408899      0.042820      0.650917
    34     1      0.651679      0.294864      0.651355
    35     1      0.823782      0.399426      0.820421
    36     1      0.572570      0.150210      0.820207
    37     1      0.542016      0.488361      0.987901
    38     1      0.794269      0.737850      0.988830
    39     1      0.776545      0.909099      0.152390
    40     1      0.526100      0.659896      0.152805
    41     1      0.469685      0.513442      0.319495
    42     1      0.720832      0.764138      0.320509
    43     1      0.712111      0.943394      0.483962
    44     1      0.462354      0.694754      0.485258
    45     1      0.404421      0.544654      0.653275
    46     1      0.658740      0.793760      0.653007
    47     1      0.828789      0.898946      0.822493
    48     1      0.575716      0.649154      0.822919
ITEM: TIMESTEP
64050
ITEM: NUMBER OF ATOMS
48
ITEM: BOX BOUNDS xy xz yz  pp  pp  pp
     -0.003081      2.203080      0.000000
     -0.005336      3.815850      0.000000
     -0.007546      5.396420      0.000000
ITEM: ATOMS id type xs ys zs
     1     1      0.048214      0.988135      0.987098
     2     1      0.294044      0.238715      0.986806
     3     1      0.274583      0.408207      0.152133
     4     1      0.024577      0.159198      0.151354
     5     1      0.967561      0.016196      0.319860
     6     1      0.269882      0.293367      0.338768
     7     1      0.199322      0.438391      0.489962
     8     1      0.957369      0.194088      0.485006
     9     1      0.907049      0.044115      0.652353
    10     1      0.153891      0.293309      0.653626
    11     1      0.322785      0.400638      0.822797
    12     1      0.072497      0.149750      0.821761
    13     1      0.040680      0.488281      0.986769
    14     1      0.293911      0.738741      0.986431
    15     1      0.276798      0.909374      0.151553
    16     1      0.026074      0.658381      0.152410
    17     1      0.971375      0.513913      0.320556
    18     1      0.219812      0.766068      0.319333
    19     1      0.209075      0.943566      0.483849
    20     1      0.951665      0.692645      0.485064
    21     1      0.904717      0.544073      0.652485
    22     1      0.152446      0.791436      0.648723
    23     1      0.332922      0.899196      0.807729
    24     1      0.072946      0.650049      0.821899
    25     1      0.547523      0.987260      0.984698
    26     1      0.792479      0.238514      0.986265
    27     1      0.773802      0.410095      0.152603
    28     1      0.525597      0.160005      0.151546
    29     1      0.468041      0.016224      0.319590
    30     1      0.727556      0.264653      0.319840
    31     1      0.707916      0.443504      0.484290
    32     1      0.463758      0.190935      0.487620
    33     1      0.410012      0.045440      0.648141
    34     1      0.653596      0.294730      0.651711
    35     1      0.823975      0.399971      0.820856
    36     1      0.571899      0.150035      0.820253
    37     1      0.541964      0.489073      0.987865
    38     1      0.793995      0.738626      0.988363
    39     1      0.776878      0.909381      0.152381
    40     1      0.525196      0.660265      0.152363
    41     1      0.478119      0.520724      0.318052
    42     1      0.719514      0.764206      0.321125
    43     1      0.709021      0.941436      0.484411
    44     1      0.408475      0.666038      0.476824
    45     1      0.402935      0.541099      0.655654
    46     1      0.661610      0.794845      0.655502
    47     1      0.828368      0.899626      0.822979
    48     1      0.574347      0.649053      0.823076
ITEM: TIMESTEP
64100
ITEM: NUMBER OF ATOMS
48
ITEM: BOX BOUNDS xy xz yz  pp  pp  pp
     -0.003081      2.203080      0.000000
     -0.005336      3.815850      0.000000
     -0.007546      5.396420      0.000000
ITEM: ATOMS id type xs ys zs
     1     1      0.047270      0.988588      0.986529
     2     1      0.293988      0.239678      0.987298
     3     1      0.273640      0.408934      0.152588
     4     1      0.025880      0.160911      0.152444
     5     1      0.968736      0.016187      0.320022
     6     1      0.246814      0.280425      0.330009
     7     1      0.197017      0.438303      0.491671
     8     1      0.955143      0.193745      0.502310
     9     1      0.905386      0.039497      0.656084
    10     1      0.156913      0.294494      0.658458
    11     1      0.323444      0.400754      0.823397
    12     1      0.072075      0.150623      0.822226
    13     1      0.038706      0.488388      0.986806
    14     1      0.295439      0.739085      0.985330
    15     1      0.278288      0.910013      0.151034
    16     1      0.027928      0.659179      0.152431
    17     1      0.973907      0.515355      0.321299
    18     1      0.217564      0.767746      0.318063
    19     1      0.209260      0.942269      0.483784
    20     1      0.944120      0.691604      0.483958
    21     1      0.905689      0.545735      0.648520
    22     1      0.154359      0.790670      0.648151
    23     1      0.332141      0.899215      0.813523
    24     1      0.073540      0.650306      0.821237
    25     1      0.545882      0.987429      0.984693
    26     1      0.793423      0.238808      0.985926
    27     1      0.774780      0.411050      0.152182
    28     1      0.526986      0.160399      0.151924
    29     1      0.468863      0.017475      0.319649
    30     1      0.735796      0.264535      0.320803
    31     1      0.703705      0.442078      0.483644
    32     1      0.465452      0.189655      0.487068
    33     1      0.407440      0.043865      0.649547
    34     1      0.649164      0.292438      0.648497
    35     1      0.827198      0.400144      0.805294
    36     1      0.574210      0.150885      0.819683
    37     1      0.541659      0.489178      0.987857
    38     1      0.794408      0.738985      0.988670
    39     1      0.777448      0.910079      0.152753
    40     1      0.524862      0.661777      0.151238
    41     1      0.479258      0.520943      0.317113
    42     1      0.718510      0.765656      0.320467
    43     1      0.707206      0.940430      0.485431
    44     1      0.430860      0.679132      0.481887
    45     1      0.405306      0.541692      0.655139
    46     1      0.654608      0.792626      0.652674
    47     1      0.828231      0.899260      0.823127
    48     1      0.575030      0.650052      0.823197
ITEM: TIMESTEP
64150
ITEM: NUMBER OF ATOMS
48
ITEM: BOX BOUNDS xy xz yz  pp  pp  pp
     -0.003081      2.203080      0.000000
     -0.005336      3.815850      0.000000
     -0.007546      5.396420      0.000000
ITEM: ATOMS id type xs ys zs
     1     1      0.045836      0.988934      0.986954
     2     1      0.295475      0.239791      0.987901
     3     1      0.274434      0.410164      0.152465
     4     1      0.027578      0.162544      0.153364
     5     1      0.969126      0.017505      0.321365
     6     1      0.237134      0.274809      0.326156
     7     1      0.198104      0.439306      0.491381
     8     1      0.956188      0.192697      0.494895
     9     1      0.906429      0.039574      0.656360
    10     1      0.155244      0.293858      0.658301
    11     1      0.322593      0.399959      0.823187
    12     1      0.073002      0.149871      0.823183
    13     1      0.039924      0.489206      0.986023
    14     1      0.295129      0.740365      0.985484
    15     1      0.277780      0.911638      0.151004
    16     1      0.028364      0.659763      0.152252
    17     1      0.976030      0.516803      0.321830
    18     1      0.216800      0.767819      0.318468
    19     1      0.208569      0.941595      0.483383
    20     1      0.943968      0.691912      0.483137
    21     1      0.907287      0.544900      0.648522
    22     1      0.154689      0.791260      0.648539
    23     1      0.329193      0.898481      0.816563
    24     1      0.074965      0.649488      0.820185
    25     1      0.545534      0.988872      0.985473
    26     1      0.795282      0.239837      0.984652
    27     1      0.775292      0.410955      0.152253
    28     1      0.528313      0.161290      0.152163
    29     1      0.468865      0.017739      0.319647
    30     1      0.736563      0.265274      0.321567
    31     1      0.700651      0.441772      0.483758
    32     1      0.462136      0.190015      0.485552
    33     1      0.405339      0.043034      0.649229
    34     1      0.651767      0.295321      0.671881
    35     1      0.827903      0.400240      0.813295
    36     1      0.571157      0.145973      0.796675
    37     1      0.541696      0.489719      0.961674
    38     1      0.795111      0.739691      0.987972
    39     1      0.777598      0.910899      0.152496
    40     1      0.527218      0.662390      0.151091
    41     1      0.478715      0.519030      0.317791
    42     1      0.717554      0.766166      0.320089
    43     1      0.707346      0.940775      0.512374
    44     1      0.438208      0.684779      0.483686
    45     1      0.406968      0.542216      0.655445
    46     1      0.653507      0.790271      0.653037
    47     1      0.827619      0.899329      0.823022
    48     1      0.576227      0.650188      0.822332
ITEM: TIMESTEP
64200
ITEM: NUMBER OF ATOMS
48
ITEM: BOX BOUNDS xy xz yz  pp  pp  pp
     -0.003081      2.203080      0.000000
     -0.005336      3.815850      0.000000
     -0.007546      5.396420      0.000000
ITEM: ATOMS id type xs ys zs
     1     1      0.046613      0.989188      0.987357
     2     1      0.297416      0.240826      0.987618
     3     1      0.276932      0.411293      0.151943
     4     1      0.028207      0.163206      0.152949
     5     1      0.968931      0.017351      0.321786
     6     1      0.232549      0.271443      0.324014
     7     1      0.199727      0.440136      0.489679
     8     1      0.958267      0.191208      0.491460
     9     1      0.908073      0.042251      0.658493
    10     1      0.152853      0.291930      0.656500
    11     1      0.321235      0.397372      0.820419
    12     1      0.073139      0.149757      0.824294
    13     1      0.042490      0.489360      0.985978
    14     1      0.296242      0.740594      0.985459
    15     1      0.279767      0.911971      0.151422
    16     1      0.027816      0.659534      0.151627
    17     1      0.975864      0.516853      0.320412
    18     1      0.217197      0.767335      0.318803
    19     1      0.206957      0.940486      0.483236
    20     1      0.945581      0.691973      0.483786
    21     1      0.906152      0.543030      0.649463
    22     1      0.153905      0.790669      0.649240
    23     1      0.325989      0.898781      0.817765
    24     1      0.075962      0.649889      0.819807
    25     1      0.545602      0.989373      0.985396
    26     1      0.794201      0.239587      0.983450
    27     1      0.775088      0.411792      0.151175
    28     1      0.529741      0.162661      0.152853
    29     1      0.472354      0.017393      0.321185
    30     1      0.734111      0.265941      0.321337
    31     1      0.699994      0.440989      0.485108
    32     1      0.464087      0.190490      0.486125
    33     1      0.402101      0.040182      0.647988
    34     1      0.649574      0.296976      0.655891
    35     1      0.831176      0.402086      0.818312
    36     1      0.573365      0.143587      0.813604
    37     1      0.547837      0.489512      0.976581
    38     1      0.795626      0.738568      0.987893
    39     1      0.779446      0.911431      0.151930
    40     1      0.527786      0.661397      0.150064
    41     1      0.478583      0.517551      0.318624
    42     1      0.714948      0.767350      0.319633
    43     1      0.703791      0.940948      0.497704
    44     1      0.443084      0.687895      0.484786
    45     1      0.405710      0.541631      0.654759
    46     1      0.652622      0.788150      0.656051
    47     1      0.826996      0.898984      0.822971
    48     1      0.576210      0.651832      0.821017
ITEM: TIMESTEP
64250
ITEM: NUMBER OF ATOMS
48
ITEM: BOX BOUNDS xy xz yz  pp  pp  pp
     -0.003081      2.203080      0.000000
     -0.005336      3.815850      0.000000
     -0.007546      5.396420      0.000000
ITEM: ATOMS id type xs ys zs
     1     1      0.046176      0.990226      0.987247
     2     1      0.297212      0.240897      0.987994
     3     1      0.276588      0.411472      0.151915
     4     1      0.029110      0.162842      0.152773
     5     1      0.969885      0.017007      0.321563
     6     1      0.228935      0.268897      0.323003
     7     1      0.200952      0.441426      0.488913
     8     1      0.957349      0.190670      0.489982
     9     1      0.907156      0.041301      0.657521
    10     1      0.152276      0.290763      0.656003
    11     1      0.324235      0.397729      0.821073
    12     1      0.074327      0.149775      0.824314
    13     1      0.044714      0.489794      0.985867
    14     1      0.296262      0.740760      0.985941
    15     1      0.280641      0.913264      0.151819
    16     1      0.028214      0.660617      0.151708
    17     1      0.975274      0.517533      0.320633
    18     1      0.217650      0.767774      0.319146
    19     1      0.206390      0.942870      0.481887
    20     1      0.883855      0.692565      0.508376
    21     1      0.908659      0.540559      0.652137
    22     1      0.215470      0.789362      0.624996
    23     1      0.324895      0.899059      0.818683
    24     1      0.076054      0.649629      0.819520
    25     1      0.546225      0.990697      0.985397
    26     1      0.794708      0.239674      0.984849
    27     1      0.775589      0.412235      0.150831
    28     1      0.529790      0.162347      0.152617
    29     1      0.474127      0.016023      0.322024
    30     1      0.731818      0.266418      0.320918
    31     1      0.700426      0.440292      0.485116
    32     1      0.461308      0.190569      0.485744
    33     1      0.404772      0.039735      0.649326
    34     1      0.650646      0.294086      0.653644
    35     1      0.827888      0.400975      0.819039
    36     1      0.575996      0.145420      0.816790
    37     1      0.547650      0.489566      0.982028
    38     1      0.797140      0.739824      0.987577
    39     1      0.780206      0.912065      0.151669
    40     1      0.527439      0.661831      0.149950
    41     1      0.476571      0.517052      0.318968
    42     1      0.717075      0.767268      0.319746
    43     1      0.703642      0.941362      0.492582
    44     1      0.442639      0.687617      0.483719
    45     1      0.405467      0.540762      0.654305
    46     1      0.655924      0.789787      0.656315
    47     1      0.826778      0.898553      0.823228
    48     1      0.575359      0.650994      0.821590
ITEM: TIMESTEP
64300
ITEM: NUMBER OF ATOMS
48
ITEM: BOX BOUNDS xy xz yz  pp  pp  pp
     -0.003081      2.203080      0.000000
     -0.005336      3.815850      0.000000
     -0.007546      5.396420      0.000000
ITEM: ATOMS id type xs ys zs
     1     1      0.047083      0.990355      0.987988
     2     1      0.298641      0.240939      0.988034
     3     1      0.279018      0.412501      0.152011
     4     1      0.028720      0.164142      0.152703
     5     1      0.967607      0.017660      0.320104
     6     1      0.226615      0.268243      0.321835
     7     1      0.201590      0.442868      0.488156
     8     1      0.957703      0.192402      0.489104
     9     1      0.906517      0.041519      0.656413
    10     1      0.151971      0.290513      0.655391
    11     1      0.325618      0.397718      0.822079
    12     1      0.077072      0.148895      0.824849
    13     1      0.046623      0.490299      0.985947
    14     1      0.296836      0.741800      0.984407
    15     1      0.281466      0.913774      0.151734
    16     1      0.029028      0.661706      0.151192
    17     1      0.974931      0.517725      0.321419
    18     1      0.216400      0.767951      0.318874
    19     1      0.198414      0.948760      0.481087
    20     1      0.900624      0.692745      0.496351
    21     1      0.908497      0.538307      0.655208
    22     1      0.165739      0.793365      0.643737
    23     1      0.366753      0.880007      0.804566
    24     1      0.078780      0.649914      0.819338
    25     1      0.545484      0.989665      0.984481
    26     1      0.794687      0.239167      0.985399
    27     1      0.777219      0.411906      0.151087
    28     1      0.529286      0.162297      0.153112
    29     1      0.472577      0.016371      0.321288
    30     1      0.728822      0.267739      0.320874
    31     1      0.699104      0.440162      0.485779
    32     1      0.459595      0.192708      0.484811
    33     1      0.406593      0.042714      0.647941
    34     1      0.652076      0.292460      0.652787
    35     1      0.826540      0.397671      0.820589
    36     1      0.575329      0.145294      0.818316
    37     1      0.547771      0.489613      0.985083
    38     1      0.796152      0.739829      0.987353
    39     1      0.779062      0.912574      0.151539
    40     1      0.527462      0.661730      0.150421
    41     1      0.475341      0.518064      0.320062
    42     1      0.717330      0.767125      0.321065
    43     1      0.700042      0.944806      0.489739
    44     1      0.412563      0.703138      0.490112
    45     1      0.405932      0.540463      0.654070
    46     1      0.663602      0.789522      0.655742
    47     1      0.841277      0.898568      0.823455
    48     1      0.586879      0.639957      0.822027
ITEM: TIMESTEP
64350
ITEM: NUMBER OF ATOMS
48
ITEM: BOX BOUNDS xy xz yz  pp  pp  pp
     -0.003081      2.203080      0.000000
     -0.005336      3.815850      0.000000
     -0.007546      5.396420      0.000000
ITEM: ATOMS id type xs ys zs
     1     1      0.108676      0.989148      0.964228
     2     1      0.300049      0.240559      0.987926
     3     1      0.279277      0.412372      0.152385
     4     1      0.029146      0.163308      0.152680
     5     1      0.965400      0.018794      0.319362
     6     1      0.224695      0.267895      0.321576
     7     1      0.200677      0.442904      0.487800
     8     1      0.955731      0.193045      0.487995
     9     1      0.906612      0.040171      0.656192
    10     1      0.153817      0.289976      0.654857
    11     1      0.324098      0.395481      0.821797
    12     1      0.078495      0.149601      0.821840
    13     1      0.050199      0.488913      0.986438
    14     1      0.310291      0.740980      0.984921
    15     1      0.279697      0.913825      0.151714
    16     1      0.030397      0.660712      0.153405
    17     1      0.973652      0.517692      0.321806
    18     1      0.215396      0.767379      0.319408
    19     1      0.197864      0.947633      0.482262
    20     1      0.912554      0.693168      0.491400
    21     1      0.908194      0.537392      0.654490
    22     1      0.160534      0.791890      0.645704
    23     1      0.346925      0.888293      0.809326
    24     1      0.070645      0.649918      0.819457
    25     1      0.550510      0.990335      0.987354
    26     1      0.795780      0.238826      0.986288
    27     1      0.778129      0.412832      0.151868
    28     1      0.529284      0.161736      0.152768
    29     1      0.471028      0.016659      0.320907
    30     1      0.726809      0.268149      0.320814
    31     1      0.698865      0.442119      0.485795
    32     1      0.458823      0.194083      0.484345
    33     1      0.407695      0.042298      0.648253
    34     1      0.652329      0.291565      0.652999
    35     1      0.826438      0.396493      0.821617
    36     1      0.576121      0.145475      0.818820
    37     1      0.548745      0.489797      0.986830
    38     1      0.845530      0.737943      0.987926
    39     1      0.778671      0.912418      0.151247
    40     1      0.528561      0.663092      0.150485
    41     1      0.473629      0.518617      0.320049
    42     1      0.717167      0.767063      0.321064
    43     1      0.697951      0.945145      0.489002
    44     1      0.419950      0.698902      0.488543
    45     1      0.405688      0.539473      0.652038
    46     1      0.662158      0.789414      0.655975
    47     1      0.785679      0.897110      0.845702
    48     1      0.539158      0.640698      0.822777
ITEM: TIMESTEP
64400
ITEM: NUMBER OF ATOMS
48
ITEM: BOX BOUNDS xy xz yz  pp  pp  pp
     -0.003081      2.203080      0.000000
     -0.005336      3.815850      0.000000
     -0.007546      5.396420      0.000000
ITEM: ATOMS id type xs ys zs
     1     1      0.088992      0.988419      0.974626
     2     1      0.300813      0.241775      0.987635
     3     1      0.279838      0.413224      0.152959
     4     1      0.032201      0.165641      0.147407
     5     1      0.970004      0.017992      0.303550
     6     1      0.224883      0.267989      0.321278
     7     1      0.198764      0.443715      0.486987
     8     1      0.953896      0.192632      0.487269
     9     1      0.905540      0.037245      0.656170
    10     1      0.154867      0.289911      0.653436
    11     1      0.322714      0.396442      0.822169
    12     1      0.075631      0.150146      0.819616
    13     1      0.051887      0.488225      0.986710
    14     1      0.314475      0.740252      0.984118
    15     1      0.277062      0.913122      0.152209
    16     1      0.033475      0.660022      0.153956
    17     1      0.972771      0.517146      0.321754
    18     1      0.213896      0.767884      0.320031
    19     1      0.194786      0.946500      0.481328
    20     1      0.922119      0.692599      0.489748
    21     1      0.908556      0.536912      0.653808
    22     1      0.158609      0.789652      0.646518
    23     1      0.330954      0.892854      0.812017
    24     1      0.064525      0.650431      0.820145
    25     1      0.558346      0.993559      0.004692
    26     1      0.796975      0.238597      0.985891
    27     1      0.779154      0.412730      0.152762
    28     1      0.530715      0.165025      0.155206
    29     1      0.469186      0.016825      0.320880
    30     1      0.726252      0.267816      0.321084
    31     1      0.698474      0.441857      0.485788
    32     1      0.457622      0.194403      0.484983
    33     1      0.407506      0.041916      0.648601
    34     1      0.655729      0.290423      0.653018
    35     1      0.824326      0.397304      0.822243
    36     1      0.573367      0.146691      0.820816
    37     1      0.550474      0.488926      0.987437
    38     1      0.825919      0.737046      0.988703
    39     1      0.784804      0.905494      0.152258
    40     1      0.531000      0.664084      0.150665
    41     1      0.472427      0.518820      0.320678
    42     1      0.714570      0.768313      0.321142
    43     1      0.697026      0.944595      0.488042
    44     1      0.427595      0.696610      0.487847
    45     1      0.408346      0.539174      0.651790
    46     1      0.661561      0.789124      0.656264
    47     1      0.801688      0.898352      0.833690
    48     1      0.556971      0.643425      0.823060
ITEM: TIMESTEP
64450
ITEM: NUMBER OF ATOMS
48
ITEM: BOX BOUNDS xy xz yz  pp  pp  pp
     -0.003081      2.203080      0.000000
     -0.005336      3.815850      0.000000
     -0.007546      5.396420      0.000000
ITEM: ATOMS id type xs ys zs
     1     1      0.076407      0.988554      0.979738
     2     1      0.302066      0.241491      0.987450
     3     1      0.281999      0.413596      0.152705
     4     1      0.033630      0.164971      0.147212
     5     1      0.972268      0.019154      0.311209
     6     1      0.223558      0.268810      0.320921
     7     1      0.194064      0.443665      0.501990
     8     1      0.952483      0.191687      0.486647
     9     1      0.906614      0.036239      0.655904
    10     1      0.154260      0.285431      0.656076
    11     1      0.324485      0.396846      0.822684
    12     1      0.074194      0.149627      0.821090
    13     1      0.050115      0.488305      0.985883
    14     1      0.313871      0.739440      0.984127
    15     1      0.278607      0.913174      0.152303
    16     1      0.036001      0.659676      0.153426
    17     1      0.971647      0.517028      0.323079
    18     1      0.213982      0.767219      0.320635
    19     1      0.193026      0.945658      0.481863
    20     1      0.928806      0.692270      0.487804
    21     1      0.908868      0.541699      0.650293
    22     1      0.159309      0.789897      0.647075
    23     1      0.325270      0.896243      0.814594
    24     1      0.065034      0.650771      0.820436
    25     1      0.558359      0.992424      0.995568
    26     1      0.798387      0.240315      0.984386
    27     1      0.780019      0.413646      0.153338
    28     1      0.532028      0.164526      0.154977
    29     1      0.470282      0.017506      0.321347
    30     1      0.724498      0.267506      0.320975
    31     1      0.698411      0.441851      0.485886
    32     1      0.452624      0.194258      0.484398
    33     1      0.408037      0.040070      0.648674
    34     1      0.651507      0.286116      0.648570
    35     1      0.826481      0.396777      0.807054
    36     1      0.571455      0.147476      0.821351
    37     1      0.553049      0.488571      0.987061
    38     1      0.816499      0.737051      0.988371
    39     1      0.785602      0.905759      0.151675
    40     1      0.531812      0.662914      0.151809
    41     1      0.470693      0.518580      0.322148
    42     1      0.715292      0.768147      0.321471
    43     1      0.696787      0.943841      0.487467
    44     1      0.431407      0.694507      0.487646
    45     1      0.414137      0.540705      0.656044
    46     1      0.659028      0.788935      0.655931
    47     1      0.808531      0.898948      0.829726
    48     1      0.566191      0.644877      0.823602
ITEM: TIMESTEP
64500
ITEM: NUMBER OF ATOMS
48
ITEM: BOX BOUNDS xy xz yz  pp  pp  pp
     -0.003081      2.203080      0.000000
     -0.005336      3.815850      0.000000
     -0.007546      5.396420      0.000000
ITEM: ATOMS id type xs ys zs
     1     1      0.075340      0.983104      0.982199
     2     1      0.313949      0.240556      0.986548
     3     1      0.284124      0.414958      0.152395
     4     1      0.060586      0.168050      0.150099
     5     1      0.926033      0.039350      0.304248
     6     1      0.221150      0.270242      0.321171
     7     1      0.194028      0.444289      0.494967
     8     1      0.951444      0.195414      0.482587
     9     1      0.951742      0.034968      0.636998
    10     1      0.155689      0.287050      0.655692
    11     1      0.320467      0.397222      0.819576
    12     1      0.073206      0.147964      0.820827
    13     1      0.049402      0.486224      0.984945
    14     1      0.307874      0.735510      0.984424
    15     1      0.276389      0.911934      0.155195
    16     1      0.036792      0.659404      0.152700
    17     1      0.971719      0.518269      0.323802