ITEM: TIMESTEP
64001
ITEM: NUMBER OF ATOMS
48
ITEM: BOX BOUNDS xy xz yz  pp  pp  pp
     -0.003081      2.203080      0.000000
     -0.005336      3.815850      0.000000
     -0.007546      5.396420      0.000000
ITEM: ATOMS id type xs ys zs
     1     1      0.048372      0.988242      0.987015
     2     1      0.293133      0.237144      0.986178
     3     1      0.272123      0.408574      0.151624
     4     1      0.022470      0.159383      0.150408
     5     1      0.967465      0.015437      0.319016
     6     1      0.220262      0.262922      0.318820
     7     1      0.212127      0.443058      0.485126
     8     1      0.959047      0.195697      0.485169
     9     1      0.907754      0.044698      0.651880
    10     1      0.153877      0.294555      0.653574
    11     1      0.322911      0.400911      0.822756
    12     1      0.073785      0.149433      0.821818
    13     1      0.038956      0.487109      0.987014
    14     1      0.292188      0.735987      0.987010
    15     1      0.277844      0.908846      0.151310
    16     1      0.026107      0.657980      0.152847
    17     1      0.972063      0.513442      0.320654
    18     1      0.219229      0.764668      0.319786
    19     1      0.208891      0.943818      0.484376
    20     1      0.963677      0.693050      0.485620
    21     1      0.904887      0.544319      0.652509
    22     1      0.157655      0.794672      0.653239
    23     1      0.329467      0.899259      0.821693
    24     1      0.073616      0.649069      0.821782
    25     1      0.549333      0.987127      0.986104
    26     1      0.791540      0.237870      0.985472
    27     1      0.772734      0.409932      0.153188
    28     1      0.523425      0.159719      0.151543
    29     1      0.468016      0.015818      0.319781
    30     1      0.720440      0.265032      0.320163
    31     1      0.709922      0.444871      0.484491
    32     1      0.459377      0.193599      0.484122
    33     1      0.408972      0.042689      0.650912
    34     1      0.651905      0.294927      0.651229
    35     1      0.823580      0.399462      0.820451
    36     1      0.572285      0.150138      0.820185
    37     1      0.541882      0.488492      0.987959
    38     1      0.794177      0.737751      0.988885
    39     1      0.776855      0.909027      0.152403
    40     1      0.525462      0.659938      0.152861
    41     1      0.469376      0.513550      0.319486
    42     1      0.720723      0.763987      0.320512
    43     1      0.712276      0.943313      0.483976
    44     1      0.462355      0.694711      0.485075
    45     1      0.404671      0.544569      0.653304
    46     1      0.658441      0.793897      0.653049
    47     1      0.828943      0.898774      0.822331
    48     1      0.575758      0.649218      0.822866
ITEM: TIMESTEP
64050
ITEM: NUMBER OF ATOMS
48
ITEM: BOX BOUNDS xy xz yz  pp  pp  pp
     -0.003081      2.203080      0.000000
     -0.005336      3.815850      0.000000
     -0.007546      5.396420      0.000000
ITEM: ATOMS id type xs ys zs
     1     1      0.048603      0.988270      0.986666
     2     1      0.294041      0.236980      0.985991
     3     1      0.274305      0.409326      0.151360
     4     1      0.024584      0.160222      0.151165
     5     1      0.967400      0.015114      0.319503
     6     1      0.220457      0.263312      0.318319
     7     1      0.211154      0.443243      0.485351
     8     1      0.960090      0.194622      0.485254
     9     1      0.908300      0.043653      0.651892
    10     1      0.155164      0.294121      0.653018
    11     1      0.323892      0.400753      0.822123
    12     1      0.073128      0.149373      0.821310
    13     1      0.040983      0.486766      0.986732
    14     1      0.293133      0.736731      0.987215
    15     1      0.279262      0.908477      0.151509
    16     1      0.025343      0.658253      0.152466
    17     1      0.971472      0.513365      0.320362
    18     1      0.220241      0.764691      0.320071
    19     1      0.209032      0.943113      0.484544
    20     1      0.962198      0.693194      0.485334
    21     1      0.906273      0.542995      0.652229
    22     1      0.158027      0.793571      0.652960
    23     1      0.327521      0.900567      0.821408
    24     1      0.074116      0.648403      0.822287
    25     1      0.548091      0.987906      0.986240
    26     1      0.792311      0.237684      0.985663
    27     1      0.773225      0.409475      0.152802
    28     1      0.523604      0.160073      0.151525
    29     1      0.470017      0.014437      0.319616
    30     1      0.718696      0.264536      0.319910
    31     1      0.711873      0.443890      0.484868
    32     1      0.458718      0.193141      0.483942
    33     1      0.408867      0.043089      0.651054
    34     1      0.653270      0.294003      0.651945
    35     1      0.822594      0.399414      0.821118
    36     1      0.572052      0.149867      0.820601
    37     1      0.541487      0.487832      0.987715
    38     1      0.793895      0.737741      0.988230
    39     1      0.777782      0.909987      0.152267
    40     1      0.525926      0.660005      0.152309
    41     1      0.469216      0.513964      0.319783
    42     1      0.721134      0.763635      0.320193
    43     1      0.711669      0.943273      0.484676
    44     1      0.461480      0.693869      0.484762
    45     1      0.406290      0.544268      0.652758
    46     1      0.658242      0.793353      0.653363
    47     1      0.826634      0.899795      0.822203
    48     1      0.575784      0.649806      0.822971
ITEM: TIMESTEP
64100
ITEM: NUMBER OF ATOMS
48
ITEM: BOX BOUNDS xy xz yz  pp  pp  pp
     -0.003081      2.203080      0.000000
     -0.005336      3.815850      0.000000
     -0.007546      5.396420      0.000000
ITEM: ATOMS id type xs ys zs
     1     1      0.049141      0.988412      0.986638
     2     1      0.294526      0.237416      0.986445
     3     1      0.274118      0.410290      0.151098
     4     1      0.023837      0.159905      0.151314
     5     1      0.969808      0.015107      0.319652
     6     1      0.220495      0.264277      0.318717
     7     1      0.210421      0.441863      0.485404
     8     1      0.960273      0.193342      0.484824
     9     1      0.906650      0.043016      0.651988
    10     1      0.157153      0.292785      0.652784
    11     1      0.323021      0.400266      0.821864
    12     1      0.072829      0.149566      0.821584
    13     1      0.041563      0.486532      0.987102
    14     1      0.293291      0.737551      0.986754
    15     1      0.278094      0.908972      0.150735
    16     1      0.025851      0.659523      0.152440
    17     1      0.970392      0.514280      0.320166
    18     1      0.221179      0.764122      0.320357
    19     1      0.207742      0.943159      0.484350
    20     1      0.961626      0.693119      0.485231
    21     1      0.907572      0.542260      0.651940
    22     1      0.157302      0.793366      0.652849
    23     1      0.325604      0.899691      0.821519
    24     1      0.075216      0.648395      0.821784
    25     1      0.549807      0.987751      0.986399
    26     1      0.793131      0.238211      0.985912
    27     1      0.773460      0.410448      0.152559
    28     1      0.524283      0.160367      0.151656
    29     1      0.471165      0.013262      0.319364
    30     1      0.720090      0.264423      0.319974
    31     1      0.710691      0.443238      0.484257
    32     1      0.459425      0.192330      0.483965
    33     1      0.408468      0.042381      0.651567
    34     1      0.654863      0.293741      0.651735
    35     1      0.821713      0.399234      0.821061
    36     1      0.571312      0.149974      0.820626
    37     1      0.541986      0.488575      0.987161
    38     1      0.795050      0.738146      0.987111
    39     1      0.777196      0.909653      0.151760
    40     1      0.526943      0.659990      0.152247
    41     1      0.470402      0.514240      0.319801
    42     1      0.722253      0.764012      0.320305
    43     1      0.709869      0.942586      0.484650
    44     1      0.460543      0.693144      0.485095
    45     1      0.406869      0.543653      0.652678
    46     1      0.656971      0.792312      0.653540
    47     1      0.825746      0.900541      0.821588
    48     1      0.574874      0.649340      0.822217
ITEM: TIMESTEP
64150
ITEM: NUMBER OF ATOMS
48
ITEM: BOX BOUNDS xy xz yz  pp  pp  pp
     -0.003081      2.203080      0.000000
     -0.005336      3.815850      0.000000
     -0.007546      5.396420      0.000000
ITEM: ATOMS id type xs ys zs
     1     1      0.049527      0.988683      0.986501
     2     1      0.293251      0.238108      0.986989
     3     1      0.275536      0.410251      0.151835
     4     1      0.024631      0.159620      0.150936
     5     1      0.969514      0.014769      0.319769
     6     1      0.221144      0.263796      0.319085
     7     1      0.210567      0.442627      0.485402
     8     1      0.959354      0.193469      0.484745
     9     1      0.907338      0.042408      0.651634
    10     1      0.157871      0.292105      0.652521
    11     1      0.320712      0.400075      0.822029
    12     1      0.072558      0.151136      0.821505
    13     1      0.042286      0.488146      0.986804
    14     1      0.294082      0.737806      0.986485
    15     1      0.277511      0.909101      0.151418
    16     1      0.027133      0.659989      0.152536
    17     1      0.971814      0.513765      0.320120
    18     1      0.222129      0.764002      0.320862
    19     1      0.207510      0.942812      0.484592
    20     1      0.959370      0.692774      0.484880
    21     1      0.906998      0.541724      0.652128
    22     1      0.153709      0.790658      0.650452
    23     1      0.327636      0.899134      0.799221
    24     1      0.073118      0.648990      0.821661
    25     1      0.547696      0.987617      0.986611
    26     1      0.792541      0.238718      0.986654
    27     1      0.775052      0.410673      0.152515
    28     1      0.524157      0.160527      0.151334
    29     1      0.470938      0.014167      0.319405
    30     1      0.719288      0.264096      0.320264
    31     1      0.709381      0.443476      0.484679
    32     1      0.458315      0.191926      0.484017
    33     1      0.409451      0.043665      0.649934
    34     1      0.656407      0.291796      0.651656
    35     1      0.821262      0.400070      0.821343
    36     1      0.571430      0.150504      0.821373
    37     1      0.542369      0.489084      0.987111
    38     1      0.794855      0.738080      0.987759
    39     1      0.778518      0.910178      0.151705
    40     1      0.526309      0.660856      0.152396
    41     1      0.469935      0.514361      0.319917
    42     1      0.719588      0.763974      0.320326
    43     1      0.708269      0.941879      0.484347
    44     1      0.457561      0.693604      0.507982
    45     1      0.406511      0.539890      0.654893
    46     1      0.662011      0.793565      0.655425
    47     1      0.825613      0.900818      0.822188
    48     1      0.574402      0.649897      0.822084
ITEM: TIMESTEP
64200
ITEM: NUMBER OF ATOMS
48
ITEM: BOX BOUNDS xy xz yz  pp  pp  pp
     -0.003081      2.203080      0.000000
     -0.005336      3.815850      0.000000
     -0.007546      5.396420      0.000000
ITEM: ATOMS id type xs ys zs
     1     1      0.049220      0.988855      0.986157
     2     1      0.294597      0.238062      0.986002
     3     1      0.274658      0.410537      0.151722
     4     1      0.025055      0.160930      0.151054
     5     1      0.967913      0.014663      0.319664
     6     1      0.219040      0.264782      0.319190
     7     1      0.210439      0.442478      0.485511
     8     1      0.958403      0.193085      0.484787
     9     1      0.910259      0.041716      0.651916
    10     1      0.156677      0.292071      0.652623
    11     1      0.319257      0.400239      0.823172
    12     1      0.071696      0.149969      0.821542
    13     1      0.043157      0.489209      0.986608
    14     1      0.295354      0.740078      0.985837
    15     1      0.277962      0.909562      0.151821
    16     1      0.028104      0.660425      0.152832
    17     1      0.972270      0.513261      0.320357
    18     1      0.221712      0.763714      0.322391
    19     1      0.206860      0.942375      0.484251
    20     1      0.957103      0.690920      0.484122
    21     1      0.904844      0.541777      0.652315
    22     1      0.152025      0.790052      0.649369
    23     1      0.329760      0.898746      0.810713
    24     1      0.074276      0.650841      0.821303
    25     1      0.545957      0.988043      0.984968
    26     1      0.793330      0.238272      0.986536
    27     1      0.775294      0.410629      0.152730
    28     1      0.525426      0.160178      0.151294
    29     1      0.469926      0.014594      0.319564
    30     1      0.719346      0.264528      0.319991
    31     1      0.709433      0.442938      0.484532
    32     1      0.459979      0.192398      0.483142
    33     1      0.410565      0.045156      0.647762
    34     1      0.656441      0.291576      0.651402
    35     1      0.820821      0.399906      0.821314
    36     1      0.569784      0.150135      0.821116
    37     1      0.543331      0.489291      0.987386
    38     1      0.796546      0.738939      0.987876
    39     1      0.778498      0.910945      0.151365
    40     1      0.527990      0.660280      0.152058
    41     1      0.470966      0.514452      0.320127
    42     1      0.717623      0.764298      0.321051
    43     1      0.707848      0.940660      0.485826
    44     1      0.454242      0.693619      0.496687
    45     1      0.404808      0.537934      0.656749
    46     1      0.662719      0.793571      0.656532
    47     1      0.826584      0.901163      0.823198
    48     1      0.574665      0.649710      0.822938
ITEM: TIMESTEP
64250
ITEM: NUMBER OF ATOMS
48
ITEM: BOX BOUNDS xy xz yz  pp  pp  pp
     -0.003081      2.203080      0.000000
     -0.005336      3.815850      0.000000
     -0.007546      5.396420      0.000000
ITEM: ATOMS id type xs ys zs
     1     1      0.048757      0.989902      0.986581
     2     1      0.294616      0.238802      0.986108
     3     1      0.275799      0.410351      0.151854
     4     1      0.026705      0.161004      0.150800
     5     1      0.968435      0.014401      0.319731
     6     1      0.218941      0.264449      0.319010
     7     1      0.209912      0.442024      0.485835
     8     1      0.956893      0.192529      0.484862
     9     1      0.911305      0.041171      0.651733
    10     1      0.157435      0.291503      0.652441
    11     1      0.319248      0.399751      0.822984
    12     1      0.072069      0.149937      0.820857
    13     1      0.044232      0.489036      0.986708
    14     1      0.297173      0.740597      0.985769
    15     1      0.277636      0.910419      0.151137
    16     1      0.027607      0.660466      0.153270
    17     1      0.972464      0.513955      0.320725
    18     1      0.221692      0.764025      0.321960
    19     1      0.207143      0.942293      0.484216
    20     1      0.955429      0.690782      0.483476
    21     1      0.905776      0.542440      0.651902
    22     1      0.155751      0.789857      0.649681
    23     1      0.328889      0.899217      0.814868
    24     1      0.073544      0.651558      0.820927
    25     1      0.544536      0.988728      0.985041
    26     1      0.793644      0.238795      0.986481
    27     1      0.775614      0.410447      0.152460
    28     1      0.526055      0.160682      0.151579
    29     1      0.467947      0.014225      0.319689
    30     1      0.717969      0.264329      0.319924
    31     1      0.707833      0.442947      0.484894
    32     1      0.459278      0.192765      0.483140
    33     1      0.410791      0.044141      0.648924
    34     1      0.658031      0.291526      0.651303
    35     1      0.820704      0.400290      0.821203
    36     1      0.570470      0.150303      0.820758
    37     1      0.543567      0.489261      0.987952
    38     1      0.797984      0.738582      0.988353
    39     1      0.777677      0.910795      0.151616
    40     1      0.527786      0.660894      0.152430
    41     1      0.471724      0.514966      0.320451
    42     1      0.716530      0.764337      0.320710
    43     1      0.707463      0.940921      0.485503
    44     1      0.454402      0.693044      0.492192
    45     1      0.405689      0.539652      0.655811
    46     1      0.660504      0.792776      0.656237
    47     1      0.827021      0.901796      0.823101
    48     1      0.574040      0.649870      0.823862
ITEM: TIMESTEP
64300
ITEM: NUMBER OF ATOMS
48
ITEM: BOX BOUNDS xy xz yz  pp  pp  pp
     -0.003081      2.203080      0.000000
     -0.005336      3.815850      0.000000
     -0.007546      5.396420      0.000000
ITEM: ATOMS id type xs ys zs
     1     1      0.048181      0.990227      0.986751
     2     1      0.295881      0.238480      0.986611
     3     1      0.276476      0.410621      0.151790
     4     1      0.027005      0.160781      0.150756
     5     1      0.968499      0.014782      0.320259
     6     1      0.218365      0.263688      0.319369
     7     1      0.210727      0.441556      0.485276
     8     1      0.956222      0.191496      0.484652
     9     1      0.911738      0.040186      0.651834
    10     1      0.157173      0.290914      0.652116
    11     1      0.320022      0.399230      0.823286
    12     1      0.071506      0.149498      0.820886
    13     1      0.043860      0.489148      0.986348
    14     1      0.297692      0.740500      0.985948
    15     1      0.277567      0.910225      0.151999
    16     1      0.027674      0.661300      0.152875
    17     1      0.970699      0.513635      0.320600
    18     1      0.221452      0.763809      0.321550
    19     1      0.207510      0.942908      0.484705
    20     1      0.955288      0.690247      0.483847
    21     1      0.906142      0.540872      0.652034
    22     1      0.156371      0.789734      0.650341
    23     1      0.328066      0.899717      0.816803
    24     1      0.073645      0.650867      0.821281
    25     1      0.547220      0.988704      0.985043
    26     1      0.793632      0.239816      0.985613
    27     1      0.776375      0.410800      0.152507
    28     1      0.526947      0.161124      0.151488
    29     1      0.469220      0.014533      0.319861
    30     1      0.719269      0.264443      0.319175
    31     1      0.707352      0.442416      0.484850
    32     1      0.458705      0.192374      0.483314
    33     1      0.410317      0.042180      0.648985
    34     1      0.659317      0.290632      0.651311
    35     1      0.819155      0.401531      0.821472
    36     1      0.570933      0.150334      0.820358
    37     1      0.543760      0.489477      0.987403
    38     1      0.798217      0.740236      0.988460
    39     1      0.777992      0.911452      0.152338
    40     1      0.528134      0.661267      0.152101
    41     1      0.471676      0.514762      0.320628
    42     1      0.716392      0.764798      0.320361
    43     1      0.706626      0.940647      0.485794
    44     1      0.454298      0.692841      0.490177
    45     1      0.406745      0.539615      0.655424
    46     1      0.658845      0.791957      0.655475
    47     1      0.827038      0.901425      0.823088
    48     1      0.574823      0.649605      0.824143
ITEM: TIMESTEP
64350
ITEM: NUMBER OF ATOMS
48
ITEM: BOX BOUNDS xy xz yz  pp  pp  pp
     -0.003081      2.203080      0.000000
     -0.005336      3.815850      0.000000
     -0.007546      5.396420      0.000000
ITEM: ATOMS id type xs ys zs
     1     1      0.048632      0.991832      0.986790
     2     1      0.296822      0.239147      0.986678
     3     1      0.276077      0.410843      0.151929
     4     1      0.027755      0.160606      0.151542
     5     1      0.967321      0.013954      0.319900
     6     1      0.218628      0.263711      0.319573
     7     1      0.209928      0.442229      0.485187
     8     1      0.956435      0.191440      0.484263
     9     1      0.907926      0.042505      0.651315
    10     1      0.158550      0.290421      0.651965
    11     1      0.319647      0.397763      0.823180
    12     1      0.072278      0.150493      0.821468
    13     1      0.045375      0.487161      0.987078
    14     1      0.312467      0.741397      0.986256
    15     1      0.278688      0.910676      0.151564
    16     1      0.028160      0.661635      0.151064
    17     1      0.971583      0.513837      0.320366
    18     1      0.220436      0.764730      0.320778
    19     1      0.204849      0.940479      0.486015
    20     1      0.957492      0.690607      0.485909
    21     1      0.902677      0.538659      0.652681
    22     1      0.115179      0.793515      0.664821
    23     1      0.327674      0.900790      0.820115
    24     1      0.080704      0.641712      0.822074
    25     1      0.550171      0.988762      0.985835
    26     1      0.795119      0.239467      0.985851
    27     1      0.775663      0.410806      0.152166
    28     1      0.527427      0.161322      0.151292
    29     1      0.468044      0.014970      0.319689
    30     1      0.719716      0.265226      0.319918
    31     1      0.707910      0.441471      0.484587
    32     1      0.457880      0.191315      0.483764
    33     1      0.408509      0.041358      0.650219
    34     1      0.660218      0.290097      0.651669
    35     1      0.818814      0.400686      0.821719
    36     1      0.570117      0.150938      0.820210
    37     1      0.547442      0.490335      0.987515
    38     1      0.834073      0.739906      0.975318
    39     1      0.780327      0.910552      0.151007
    40     1      0.529424      0.660911      0.151606
    41     1      0.469351      0.514814      0.319752
    42     1      0.717771      0.764058      0.320504
    43     1      0.705184      0.940120      0.485984
    44     1      0.453992      0.691693      0.488312
    45     1      0.404243      0.540434      0.655315
    46     1      0.637944      0.791864      0.654657
    47     1      0.823203      0.904661      0.819810
    48     1      0.574572      0.649893      0.822834
ITEM: TIMESTEP
64400
ITEM: NUMBER OF ATOMS
48
ITEM: BOX BOUNDS xy xz yz  pp  pp  pp
     -0.003081      2.203080      0.000000
     -0.005336      3.815850      0.000000
     -0.007546      5.396420      0.000000
ITEM: ATOMS id type xs ys zs
     1     1      0.048797      0.991436      0.986088
     2     1      0.297940      0.239168      0.987415
     3     1      0.276817      0.411165      0.152821
     4     1      0.027913      0.160788      0.151895
     5     1      0.968236      0.013814      0.319475
     6     1      0.217777      0.264481      0.320030
     7     1      0.208488      0.441475      0.485535
     8     1      0.956310      0.190830      0.484506
     9     1      0.906029      0.042284      0.650930
    10     1      0.158742      0.289464      0.652365
    11     1      0.322302      0.397405      0.823248
    12     1      0.070260      0.150374      0.821420
    13     1      0.046226      0.487456      0.987751
    14     1      0.312418      0.741630      0.986048
    15     1      0.278385      0.911507      0.151429
    16     1      0.028861      0.661166      0.150760
    17     1      0.971451      0.514966      0.319691
    18     1      0.219983      0.765045      0.320182
    19     1      0.204983      0.939568      0.486309
    20     1      0.956373      0.691456      0.486405
    21     1      0.901368      0.538886      0.652525
    22     1      0.127072      0.793133      0.660367
    23     1      0.325739      0.900726      0.821360
    24     1      0.081170      0.642699      0.822687
    25     1      0.551215      0.989576      0.985967
    26     1      0.796270      0.239748      0.986242
    27     1      0.776706      0.411075      0.152390
    28     1      0.527543      0.160736      0.151402
    29     1      0.468600      0.015517      0.320189
    30     1      0.719704      0.264815      0.319916
    31     1      0.705650      0.439761      0.484685
    32     1      0.456656      0.190687      0.483494
    33     1      0.406294      0.041155      0.650881
    34     1      0.658836      0.289486      0.651467
    35     1      0.818491      0.399599      0.821947
    36     1      0.569012      0.150238      0.820838
    37     1      0.547185      0.490486      0.987153
    38     1      0.822177      0.740316      0.980356
    39     1      0.779986      0.910038      0.150792
    40     1      0.530555      0.661148      0.151216
    41     1      0.471845      0.514985      0.319484
    42     1      0.718327      0.764222      0.320841
    43     1      0.703393      0.940455      0.485000
    44     1      0.453574      0.690480      0.486911
    45     1      0.402741      0.540587      0.654575
    46     1      0.635706      0.791716      0.654044
    47     1      0.823798      0.902934      0.819474
    48     1      0.575203      0.649180      0.823049
ITEM: TIMESTEP
64450
ITEM: NUMBER OF ATOMS
48
ITEM: BOX BOUNDS xy xz yz  pp  pp  pp
     -0.003081      2.203080      0.000000
     -0.005336      3.815850      0.000000
     -0.007546      5.396420      0.000000
ITEM: ATOMS id type xs ys zs
     1     1      0.048724      0.990511      0.986096
     2     1      0.297849      0.239211      0.986807
     3     1      0.279185      0.411168      0.152065
     4     1      0.028795      0.161578      0.151702
     5     1      0.968653      0.013577      0.319664
     6     1      0.218917      0.264890      0.319535
     7     1      0.208019      0.441462      0.486118
     8     1      0.956488      0.190208      0.484323
     9     1      0.904421      0.041285      0.651065
    10     1      0.158230      0.288800      0.652546
    11     1      0.322664      0.398077      0.823065
    12     1      0.070107      0.149598      0.821831
    13     1      0.046647      0.487712      0.987626
    14     1      0.310580      0.740620      0.985632
    15     1      0.280365      0.911702      0.151143
    16     1      0.030058      0.661518      0.151373
    17     1      0.971504      0.515614      0.319591
    18     1      0.221024      0.765653      0.320639
    19     1      0.203829      0.939067      0.486581
    20     1      0.955012      0.691017      0.486670
    21     1      0.901627      0.539441      0.652600
    22     1      0.134367      0.792928      0.657859
    23     1      0.326950      0.899988      0.821442
    24     1      0.079905      0.644650      0.822422
    25     1      0.551619      0.989770      0.985748
    26     1      0.796866      0.239883      0.986836
    27     1      0.776890      0.411145      0.152257
    28     1      0.527974      0.161337      0.151645
    29     1      0.468247      0.014923      0.319991
    30     1      0.719106      0.265382      0.320068
    31     1      0.706112      0.440097      0.484922
    32     1      0.456736      0.190256      0.484155
    33     1      0.404346      0.041052      0.651611
    34     1      0.659564      0.289964      0.651881
    35     1      0.818192      0.399501      0.821337
    36     1      0.570475      0.150831      0.820621
    37     1      0.548310      0.489791      0.987271
    38     1      0.816196      0.740660      0.982897
    39     1      0.779115      0.909691      0.151349
    40     1      0.530818      0.661490      0.151603
    41     1      0.471211      0.515469      0.319796
    42     1      0.720603      0.764255      0.321129
    43     1      0.703101      0.940844      0.485592
    44     1      0.454413      0.690156      0.485928
    45     1      0.401405      0.539632      0.654305
    46     1      0.637309      0.791707      0.654273
    47     1      0.824007      0.901262      0.819379
    48     1      0.576451      0.649660      0.822848
ITEM: TIMESTEP
64500
ITEM: NUMBER OF ATOMS
48
ITEM: BOX BOUNDS xy xz yz  pp  pp  pp
     -0.003081      2.203080      0.000000
     -0.005336      3.815850      0.000000
     -0.007546      5.396420      0.000000
ITEM: ATOMS id type xs ys zs
     1     1      0.051035      0.990424      0.986355
     2     1      0.297267      0.238650      0.986476
     3     1      0.279518      0.410775      0.152427
     4     1      0.028696      0.161169      0.151488
     5     1      0.969412      0.014352      0.319772
     6     1      0.219935      0.265334      0.320046
     7     1      0.207669      0.440922      0.485381
     8     1      0.956248      0.190630      0.484612
     9     1      0.904601      0.041027      0.651608
    10     1      0.157146      0.289744      0.652319
    11     1      0.323327      0.398856      0.822827
    12     1      0.069976      0.150593      0.821320
    13     1      0.046822      0.488054      0.987483
    14     1      0.308162      0.739131      0.986170
    15     1      0.281672      0.911254      0.150790
    16     1      0.029760      0.661283      0.151872
    17     1      0.972591      0.514450      0.319793