ITEM: TIMESTEP
64001
ITEM: NUMBER OF ATOMS
48
ITEM: BOX BOUNDS xy xz yz  pp  pp  pp
     -0.003081      2.203080      0.000000
     -0.005336      3.815850      0.000000
     -0.007546      5.396420      0.000000
ITEM: ATOMS id type xs ys zs
     1     1      0.048855      0.988272      0.986901
     2     1      0.292920      0.237283      0.986077
     3     1      0.272648      0.408667      0.151685
     4     1      0.022195      0.159268      0.150332
     5     1      0.966924      0.015524      0.319036
     6     1      0.220484      0.262976      0.318828
     7     1      0.212121      0.443288      0.485025
     8     1      0.959112      0.195948      0.485237
     9     1      0.907854      0.044594      0.651901
    10     1      0.153448      0.294445      0.653505
    11     1      0.322605      0.400908      0.822792
    12     1      0.073403      0.149376      0.821822
    13     1      0.038948      0.487161      0.987107
    14     1      0.292121      0.735921      0.986969
    15     1      0.277759      0.908729      0.151342
    16     1      0.026219      0.657826      0.152805
    17     1      0.971845      0.513437      0.320575
    18     1      0.219084      0.764633      0.319850
    19     1      0.209149      0.943866      0.484257
    20     1      0.963414      0.692881      0.485650
    21     1      0.904724      0.544331      0.652439
    22     1      0.157728      0.794876      0.653197
    23     1      0.329441      0.899312      0.821673
    24     1      0.073669      0.649262      0.821662
    25     1      0.548901      0.987284      0.986242
    26     1      0.791290      0.238041      0.985589
    27     1      0.772895      0.409884      0.153114
    28     1      0.523806      0.159611      0.151427
    29     1      0.467856      0.015860      0.319808
    30     1      0.720889      0.265041      0.320235
    31     1      0.709843      0.444910      0.484614
    32     1      0.458995      0.193387      0.484192
    33     1      0.409109      0.042863      0.650936
    34     1      0.651896      0.294804      0.651293
    35     1      0.823676      0.399480      0.820525
    36     1      0.572634      0.150153      0.820202
    37     1      0.541785      0.488294      0.988030
    38     1      0.794324      0.737876      0.988875
    39     1      0.776532      0.909142      0.152384
    40     1      0.525888      0.659933      0.152858
    41     1      0.469555      0.513468      0.319464
    42     1      0.720587      0.764154      0.320575
    43     1      0.712312      0.943556      0.483928
    44     1      0.462269      0.694606      0.485170
    45     1      0.404222      0.544605      0.653357
    46     1      0.658324      0.793698      0.653162
    47     1      0.828693      0.898879      0.822444
    48     1      0.575825      0.649251      0.822910
ITEM: TIMESTEP
64050
ITEM: NUMBER OF ATOMS
48
ITEM: BOX BOUNDS xy xz yz  pp  pp  pp
     -0.003081      2.203080      0.000000
     -0.005336      3.815850      0.000000
     -0.007546      5.396420      0.000000
ITEM: ATOMS id type xs ys zs
     1     1      0.047952      0.988676      0.987303
     2     1      0.293578      0.238290      0.986249
     3     1      0.274242      0.409116      0.151159
     4     1      0.024427      0.159635      0.150550
     5     1      0.968791      0.015923      0.319430
     6     1      0.220125      0.263871      0.318887
     7     1      0.211449      0.442759      0.485643
     8     1      0.958209      0.194874      0.484940
     9     1      0.907701      0.043341      0.652750
    10     1      0.154495      0.293476      0.653585
    11     1      0.324377      0.401463      0.822794
    12     1      0.072437      0.149613      0.822445
    13     1      0.038961      0.487698      0.986947
    14     1      0.294594      0.737310      0.987163
    15     1      0.279176      0.909123      0.151750
    16     1      0.027969      0.657908      0.152415
    17     1      0.970715      0.513628      0.320752
    18     1      0.221119      0.765423      0.320470
    19     1      0.209200      0.943827      0.484426
    20     1      0.961562      0.693325      0.485498
    21     1      0.905223      0.543268      0.652174
    22     1      0.157851      0.794573      0.653369
    23     1      0.327666      0.899213      0.822128
    24     1      0.074354      0.648833      0.821759
    25     1      0.549089      0.987801      0.986682
    26     1      0.792310      0.239179      0.986200
    27     1      0.774556      0.409672      0.152347
    28     1      0.524847      0.160079      0.151333
    29     1      0.470268      0.015205      0.319601
    30     1      0.718739      0.265181      0.319992
    31     1      0.709225      0.444064      0.484895
    32     1      0.458292      0.192485      0.483923
    33     1      0.408133      0.042998      0.651318
    34     1      0.653105      0.293721      0.651407
    35     1      0.823129      0.399313      0.821216
    36     1      0.572469      0.149442      0.820643
    37     1      0.542012      0.488938      0.988349
    38     1      0.794552      0.738028      0.988309
    39     1      0.778983      0.909183      0.152340
    40     1      0.526574      0.660395      0.152669
    41     1      0.470469      0.513999      0.319771
    42     1      0.720201      0.763976      0.320928
    43     1      0.711286      0.943894      0.484524
    44     1      0.460401      0.693948      0.485539
    45     1      0.405915      0.543976      0.653254
    46     1      0.658548      0.793403      0.653091
    47     1      0.827658      0.899317      0.822223
    48     1      0.576256      0.650148      0.822469
ITEM: TIMESTEP
64100
ITEM: NUMBER OF ATOMS
48
ITEM: BOX BOUNDS xy xz yz  pp  pp  pp
     -0.003081      2.203080      0.000000
     -0.005336      3.815850      0.000000
     -0.007546      5.396420      0.000000
ITEM: ATOMS id type xs ys zs
     1     1      0.047611      0.988542      0.987189
     2     1      0.294953      0.238858      0.986455
     3     1      0.274213      0.409744      0.151967
     4     1      0.023836      0.159966      0.150438
     5     1      0.969860      0.014487      0.319227
     6     1      0.221171      0.264087      0.318761
     7     1      0.209633      0.443341      0.485564
     8     1      0.958370      0.193674      0.485412
     9     1      0.907507      0.043210      0.652651
    10     1      0.154325      0.293401      0.653580
    11     1      0.323095      0.400967      0.823028
    12     1      0.071978      0.150324      0.822197
    13     1      0.039602      0.487690      0.987246
    14     1      0.295009      0.737980      0.987684
    15     1      0.279285      0.909701      0.152207
    16     1      0.027623      0.659394      0.152862
    17     1      0.970998      0.513413      0.319672
    18     1      0.221388      0.765239      0.320514
    19     1      0.207894      0.943784      0.484714
    20     1      0.960118      0.692632      0.485884
    21     1      0.904936      0.542936      0.652881
    22     1      0.158421      0.793972      0.652941
    23     1      0.325965      0.899600      0.822165
    24     1      0.075203      0.649540      0.821696
    25     1      0.548040      0.989041      0.986797
    26     1      0.792282      0.239268      0.985982
    27     1      0.774506      0.410296      0.151913
    28     1      0.525457      0.160022      0.151599
    29     1      0.470317      0.014401      0.319568
    30     1      0.720951      0.264573      0.319540
    31     1      0.708319      0.442989      0.484883
    32     1      0.458335      0.193092      0.483831
    33     1      0.407565      0.042650      0.651335
    34     1      0.652403      0.293493      0.651640
    35     1      0.821511      0.399990      0.821192
    36     1      0.572663      0.148871      0.820769
    37     1      0.542292      0.488942      0.987875
    38     1      0.794278      0.738261      0.987192
    39     1      0.777873      0.909223      0.152383
    40     1      0.527889      0.659560      0.152401
    41     1      0.469993      0.514577      0.320057
    42     1      0.720777      0.764254      0.320550
    43     1      0.710987      0.943168      0.484982
    44     1      0.458872      0.693008      0.485287
    45     1      0.404972      0.543754      0.653128
    46     1      0.658637      0.793195      0.652805
    47     1      0.826191      0.899004      0.822187
    48     1      0.575222      0.649579      0.822038
ITEM: TIMESTEP
64150
ITEM: NUMBER OF ATOMS
48
ITEM: BOX BOUNDS xy xz yz  pp  pp  pp
     -0.003081      2.203080      0.000000
     -0.005336      3.815850      0.000000
     -0.007546      5.396420      0.000000
ITEM: ATOMS id type xs ys zs
     1     1      0.048002      0.988285      0.986865
     2     1      0.295408      0.238785      0.986797
     3     1      0.276575      0.409926      0.151288
     4     1      0.025958      0.160168      0.150699
     5     1      0.970025      0.014696      0.319427
     6     1      0.219455      0.264481      0.319046
     7     1      0.208383      0.442505      0.485248
     8     1      0.959944      0.193421      0.485380
     9     1      0.907240      0.042787      0.653014
    10     1      0.154416      0.292330      0.653601
    11     1      0.323069      0.400547      0.822669
    12     1      0.073749      0.149946      0.821927
    13     1      0.042277      0.488186      0.987392
    14     1      0.294218      0.738871      0.987076
    15     1      0.279153      0.910153      0.151570
    16     1      0.027708      0.659360      0.152609
    17     1      0.970219      0.514116      0.319869
    18     1      0.221085      0.765401      0.319883
    19     1      0.207469      0.942621      0.485035
    20     1      0.959763      0.692521      0.485722
    21     1      0.906590      0.542720      0.652748
    22     1      0.158016      0.792702      0.653354
    23     1      0.325935      0.899904      0.822204
    24     1      0.073810      0.649466      0.821635
    25     1      0.548431      0.989939      0.987196
    26     1      0.793471      0.239010      0.986222
    27     1      0.775395      0.409883      0.151941
    28     1      0.526910      0.159816      0.151566
    29     1      0.470262      0.014361      0.319778
    30     1      0.722399      0.264929      0.319426
    31     1      0.707669      0.442562      0.484690
    32     1      0.458593      0.192323      0.484651
    33     1      0.407161      0.042473      0.652085
    34     1      0.653011      0.293018      0.652152
    35     1      0.823015      0.400071      0.821105
    36     1      0.573441      0.149235      0.821305
    37     1      0.542160      0.489549      0.987392
    38     1      0.794311      0.738081      0.987549
    39     1      0.778927      0.908815      0.152286
    40     1      0.526529      0.660172      0.152384
    41     1      0.469955      0.515179      0.320408
    42     1      0.721640      0.764033      0.320335
    43     1      0.709195      0.943154      0.484858
    44     1      0.458940      0.692646      0.485211
    45     1      0.405425      0.543397      0.653324
    46     1      0.657443      0.793204      0.652843
    47     1      0.824818      0.899041      0.822192
    48     1      0.574892      0.649737      0.821820
ITEM: TIMESTEP
64200
ITEM: NUMBER OF ATOMS
48
ITEM: BOX BOUNDS xy xz yz  pp  pp  pp
     -0.003081      2.203080      0.000000
     -0.005336      3.815850      0.000000
     -0.007546      5.396420      0.000000
ITEM: ATOMS id type xs ys zs
     1     1      0.048002      0.989169      0.986286
     2     1      0.295178      0.238739      0.986865
     3     1      0.277020      0.411317      0.152015
     4     1      0.026541      0.159356      0.151148
     5     1      0.969801      0.014958      0.319719
     6     1      0.220906      0.264738      0.319417
     7     1      0.207932      0.442276      0.485463
     8     1      0.959430      0.192603      0.485323
     9     1      0.907216      0.042556      0.653314
    10     1      0.152594      0.292764      0.653258
    11     1      0.323326      0.400285      0.822096
    12     1      0.074326      0.149259      0.822268
    13     1      0.042743      0.489031      0.987376
    14     1      0.295096      0.739447      0.987201
    15     1      0.279284      0.910434      0.151541
    16     1      0.028425      0.660162      0.152652
    17     1      0.970769      0.513773      0.320349
    18     1      0.220007      0.764914      0.320282
    19     1      0.208049      0.942576      0.484600
    20     1      0.958938      0.691745      0.486045
    21     1      0.906034      0.542852      0.652770
    22     1      0.158099      0.791764      0.652632
    23     1      0.324879      0.900176      0.821576
    24     1      0.073585      0.649626      0.821783
    25     1      0.548451      0.990251      0.987159
    26     1      0.795090      0.239351      0.986093
    27     1      0.777857      0.410362      0.151450
    28     1      0.525844      0.160384      0.152134
    29     1      0.471776      0.014236      0.319275
    30     1      0.721489      0.265638      0.319333
    31     1      0.707918      0.441961      0.484454
    32     1      0.457677      0.191680      0.484314
    33     1      0.405711      0.042102      0.651870
    34     1      0.652719      0.292195      0.652290
    35     1      0.822954      0.399663      0.820981
    36     1      0.571958      0.150226      0.821722
    37     1      0.543258      0.489497      0.987124
    38     1      0.795846      0.739019      0.987366
    39     1      0.779511      0.909534      0.152314
    40     1      0.528131      0.661056      0.152138
    41     1      0.470471      0.515261      0.319657
    42     1      0.721247      0.764602      0.319799
    43     1      0.708322      0.943030      0.485165
    44     1      0.458875      0.693353      0.485583
    45     1      0.404462      0.542066      0.652779
    46     1      0.658557      0.792512      0.652581
    47     1      0.823957      0.899200      0.822178
    48     1      0.572859      0.650442      0.822205
ITEM: TIMESTEP
64250
ITEM: NUMBER OF ATOMS
48
ITEM: BOX BOUNDS xy xz yz  pp  pp  pp
     -0.003081      2.203080      0.000000
     -0.005336      3.815850      0.000000
     -0.007546      5.396420      0.000000
ITEM: ATOMS id type xs ys zs
     1     1      0.047175      0.989316      0.986479
     2     1      0.296060      0.240137      0.987035
     3     1      0.277781      0.411426      0.152058
     4     1      0.027144      0.159935      0.151395
     5     1      0.969438      0.014781      0.320087
     6     1      0.219981      0.265121      0.319223
     7     1      0.208450      0.441366      0.485177
     8     1      0.958698      0.191944      0.484979
     9     1      0.906843      0.042404      0.653016
    10     1      0.152529      0.292431      0.653206
    11     1      0.323623      0.399884      0.822157
    12     1      0.073377      0.150028      0.821888
    13     1      0.044055      0.489326      0.987061
    14     1      0.297201      0.739512      0.987518
    15     1      0.280154      0.910599      0.151662
    16     1      0.029310      0.659748      0.152386
    17     1      0.970946      0.515007      0.320153
    18     1      0.220569      0.765231      0.319914
    19     1      0.206413      0.942405      0.485282
    20     1      0.959372      0.691300      0.485387
    21     1      0.906170      0.542481      0.652348
    22     1      0.157316      0.791955      0.652765
    23     1      0.322544      0.900173      0.821874
    24     1      0.073260      0.650727      0.821714
    25     1      0.548287      0.990107      0.986801
    26     1      0.795485      0.239300      0.986300
    27     1      0.777741      0.411129      0.151771
    28     1      0.526683      0.160616      0.152033
    29     1      0.469116      0.014181      0.319919
    30     1      0.719632      0.265702      0.319329
    31     1      0.708068      0.442122      0.484953
    32     1      0.457580      0.191956      0.484115
    33     1      0.405926      0.041876      0.651786
    34     1      0.652973      0.291386      0.651796
    35     1      0.823617      0.399128      0.821080
    36     1      0.573398      0.149338      0.821547
    37     1      0.544057      0.489325      0.986950
    38     1      0.797401      0.739324      0.987099
    39     1      0.780715      0.910696      0.151850
    40     1      0.528717      0.661263      0.152364
    41     1      0.470529      0.514884      0.320123
    42     1      0.722357      0.764867      0.320348
    43     1      0.706862      0.942475      0.485292
    44     1      0.458547      0.692694      0.485880
    45     1      0.405229      0.542031      0.653031
    46     1      0.658357      0.791912      0.652341
    47     1      0.823665      0.899402      0.821724
    48     1      0.573401      0.650012      0.822238
ITEM: TIMESTEP
64300
ITEM: NUMBER OF ATOMS
48
ITEM: BOX BOUNDS xy xz yz  pp  pp  pp
     -0.003081      2.203080      0.000000
     -0.005336      3.815850      0.000000
     -0.007546      5.396420      0.000000
ITEM: ATOMS id type xs ys zs
     1     1      0.048505      0.989500      0.986477
     2     1      0.296059      0.239570      0.987237
     3     1      0.278502      0.411077      0.151699
     4     1      0.026098      0.161454      0.151610
     5     1      0.969740      0.014875      0.320001
     6     1      0.220128      0.264594      0.319126
     7     1      0.208918      0.441992      0.485497
     8     1      0.957402      0.191105      0.485090
     9     1      0.906448      0.040516      0.652458
    10     1      0.152861      0.291842      0.653003
    11     1      0.322073      0.399953      0.822405
    12     1      0.072495      0.150512      0.821724
    13     1      0.045354      0.490109      0.986781
    14     1      0.298573      0.739842      0.987530
    15     1      0.279185      0.910501      0.151416
    16     1      0.030145      0.661056      0.151600
    17     1      0.970628      0.515932      0.319701
    18     1      0.221256      0.764927      0.320196
    19     1      0.206404      0.941150      0.485574
    20     1      0.958700      0.691395      0.485479
    21     1      0.907178      0.540854      0.652466
    22     1      0.158115      0.791471      0.652489
    23     1      0.322172      0.900448      0.821893
    24     1      0.073543      0.649650      0.822047
    25     1      0.547139      0.989998      0.986175
    26     1      0.794756      0.239910      0.986370
    27     1      0.778219      0.411701      0.151411
    28     1      0.527030      0.160665      0.151867
    29     1      0.469691      0.015253      0.319445
    30     1      0.721615      0.266114      0.319498
    31     1      0.706979      0.441829      0.484139
    32     1      0.456881      0.192282      0.484215
    33     1      0.405972      0.040940      0.651699
    34     1      0.652926      0.291337      0.652279
    35     1      0.822199      0.400416      0.821423
    36     1      0.572602      0.149391      0.821579
    37     1      0.545165      0.489485      0.986700
    38     1      0.797670      0.739823      0.986915
    39     1      0.779786      0.911387      0.151697
    40     1      0.530977      0.660760      0.152183
    41     1      0.470433      0.515367      0.319905
    42     1      0.722131      0.765588      0.320753
    43     1      0.706288      0.941760      0.485010
    44     1      0.458902      0.692594      0.485156
    45     1      0.406219      0.541806      0.653006
    46     1      0.659708      0.791892      0.651840
    47     1      0.822961      0.900079      0.821603
    48     1      0.573047      0.650112      0.821701
ITEM: TIMESTEP
64350
ITEM: NUMBER OF ATOMS
48
ITEM: BOX BOUNDS xy xz yz  pp  pp  pp
     -0.003081      2.203080      0.000000
     -0.005336      3.815850      0.000000
     -0.007546      5.396420      0.000000
ITEM: ATOMS id type xs ys zs
     1     1      0.047724      0.989375      0.987212
     2     1      0.296079      0.239345      0.987101
     3     1      0.278220      0.412343      0.151710
     4     1      0.026260      0.161834      0.151718
     5     1      0.970360      0.015800      0.319900
     6     1      0.220595      0.265053      0.319083
     7     1      0.206898      0.441039      0.485334
     8     1      0.956632      0.191442      0.485065
     9     1      0.906608      0.040554      0.652082
    10     1      0.155207      0.291847      0.653270
    11     1      0.321629      0.399800      0.822158
    12     1      0.071823      0.150617      0.821854
    13     1      0.046227      0.490941      0.986975
    14     1      0.298039      0.739750      0.986796
    15     1      0.279667      0.911543      0.151667
    16     1      0.030327      0.661342      0.151657
    17     1      0.970890      0.515528      0.320248
    18     1      0.220715      0.765780      0.320236
    19     1      0.206415      0.941150      0.484692
    20     1      0.957628      0.691066      0.485878
    21     1      0.905994      0.540299      0.652339
    22     1      0.157955      0.790547      0.652371
    23     1      0.321546      0.900851      0.821663
    24     1      0.072286      0.649958      0.821865
    25     1      0.547578      0.989772      0.985891
    26     1      0.794212      0.240749      0.985868
    27     1      0.777498      0.412247      0.151463
    28     1      0.526729      0.160739      0.151393
    29     1      0.469625      0.015787      0.320042
    30     1      0.721868      0.265894      0.319309
    31     1      0.707053      0.441068      0.484901
    32     1      0.456680      0.192287      0.484186
    33     1      0.406319      0.040879      0.651215
    34     1      0.654570      0.290865      0.652242
    35     1      0.821320      0.400577      0.821472
    36     1      0.571736      0.150058      0.821028
    37     1      0.546385      0.490473      0.986453
    38     1      0.797773      0.741035      0.987043
    39     1      0.779295      0.911907      0.151410
    40     1      0.531359      0.661278      0.151886
    41     1      0.469939      0.515340      0.320170
    42     1      0.722195      0.765734      0.320603
    43     1      0.705858      0.941170      0.484634
    44     1      0.457546      0.691403      0.485065
    45     1      0.405440      0.541870      0.652735
    46     1      0.660312      0.790835      0.651823
    47     1      0.822577      0.900141      0.821356
    48     1      0.572291      0.650454      0.821993
ITEM: TIMESTEP
64400
ITEM: NUMBER OF ATOMS
48
ITEM: BOX BOUNDS xy xz yz  pp  pp  pp
     -0.003081      2.203080      0.000000
     -0.005336      3.815850      0.000000
     -0.007546      5.396420      0.000000
ITEM: ATOMS id type xs ys zs
     1     1      0.047291      0.989640      0.987007
     2     1      0.295025      0.239761      0.987148
     3     1      0.277274      0.412544      0.151444
     4     1      0.026831      0.161529      0.151355
     5     1      0.968765      0.016397      0.320046
     6     1      0.220451      0.265602      0.319073
     7     1      0.207609      0.440250      0.485249
     8     1      0.957624      0.190879      0.485250
     9     1      0.907967      0.039882      0.651766
    10     1      0.155250      0.291047      0.653495
    11     1      0.321547      0.400463      0.822484
    12     1      0.071987      0.150402      0.822036
    13     1      0.046276      0.490757      0.986527
    14     1      0.297568      0.740467      0.986110
    15     1      0.279347      0.911667      0.151588
    16     1      0.029969      0.660982      0.151658
    17     1      0.969681      0.515311      0.320330
    18     1      0.221260      0.766177      0.320238
    19     1      0.205555      0.940864      0.485088
    20     1      0.956967      0.689957      0.485615
    21     1      0.907925      0.540014      0.651967
    22     1      0.159376      0.789188      0.652085
    23     1      0.320921      0.901327      0.821640
    24     1      0.071779      0.650288      0.821493
    25     1      0.549075      0.989731      0.986684
    26     1      0.796131      0.240195      0.986266
    27     1      0.777351      0.411963      0.151246
    28     1      0.529047      0.161630      0.151032
    29     1      0.469910      0.015822      0.319769
    30     1      0.720734      0.265747      0.319354
    31     1      0.706947      0.441241      0.484793
    32     1      0.458327      0.192045      0.483998
    33     1      0.406896      0.041204      0.650961
    34     1      0.656496      0.290412      0.651847
    35     1      0.821540      0.400465      0.821766
    36     1      0.571300      0.150147      0.820983
    37     1      0.546855      0.490681      0.986962
    38     1      0.798689      0.740190      0.986326
    39     1      0.778551      0.911202      0.151346
    40     1      0.531589      0.662458      0.151275
    41     1      0.468715      0.516219      0.320108
    42     1      0.721790      0.765384      0.320307
    43     1      0.705700      0.940905      0.484650
    44     1      0.457461      0.691245      0.485269
    45     1      0.407264      0.540342      0.652498
    46     1      0.659200      0.790072      0.651869
    47     1      0.821389      0.900355      0.821241
    48     1      0.570972      0.649981      0.821637
ITEM: TIMESTEP
64450
ITEM: NUMBER OF ATOMS
48
ITEM: BOX BOUNDS xy xz yz  pp  pp  pp
     -0.003081      2.203080      0.000000
     -0.005336      3.815850      0.000000
     -0.007546      5.396420      0.000000
ITEM: ATOMS id type xs ys zs
     1     1      0.046130      0.990361      0.987048
     2     1      0.295114      0.240310      0.987332
     3     1      0.279434      0.412946      0.151864
     4     1      0.027635      0.161742      0.151652
     5     1      0.968639      0.016624      0.320209
     6     1      0.219974      0.265845      0.319111
     7     1      0.206691      0.440383      0.485302
     8     1      0.957275      0.190908      0.485358
     9     1      0.908971      0.039971      0.652307
    10     1      0.156403      0.290656      0.653136
    11     1      0.321125      0.399924      0.822352
    12     1      0.071194      0.150345      0.821964
    13     1      0.047627      0.490649      0.986595
    14     1      0.298739      0.741312      0.986158
    15     1      0.279604      0.911952      0.151567
    16     1      0.031129      0.661988      0.151659
    17     1      0.970755      0.515880      0.320040
    18     1      0.221755      0.766577      0.320168
    19     1      0.206400      0.941202      0.485225
    20     1      0.957629      0.689814      0.485728
    21     1      0.907221      0.539510      0.652251
    22     1      0.157549      0.789294      0.651560
    23     1      0.320425      0.900847      0.821384
    24     1      0.070362      0.650816      0.821108
    25     1      0.548533      0.990472      0.986454
    26     1      0.795893      0.240065      0.986716
    27     1      0.776561      0.412059      0.151648
    28     1      0.528508      0.161213      0.151647
    29     1      0.469730      0.016147      0.319995
    30     1      0.719873      0.265576      0.319219
    31     1      0.708092      0.441129      0.484518
    32     1      0.456038      0.191624      0.484127
    33     1      0.406284      0.040466      0.651670
    34     1      0.656697      0.290393      0.651455
    35     1      0.821468      0.399894      0.821274
    36     1      0.571981      0.150043      0.821124
    37     1      0.547207      0.490943      0.986490
    38     1      0.797128      0.739923      0.986293
    39     1      0.779701      0.911696      0.151569
    40     1      0.532436      0.661771      0.151391
    41     1      0.469454      0.516088      0.319711
    42     1      0.723081      0.765615      0.320490
    43     1      0.705631      0.940962      0.484753
    44     1      0.457335      0.690900      0.485343
    45     1      0.409407      0.540114      0.652221
    46     1      0.658693      0.790432      0.651972
    47     1      0.820335      0.900442      0.821809
    48     1      0.570465      0.650788      0.821708
ITEM: TIMESTEP
64500
ITEM: NUMBER OF ATOMS
48
ITEM: BOX BOUNDS xy xz yz  pp  pp  pp
     -0.003081      2.203080      0.000000
     -0.005336      3.815850      0.000000
     -0.007546      5.396420      0.000000
ITEM: ATOMS id type xs ys zs
     1     1      0.046438      0.990500      0.987349
     2     1      0.296108      0.240893      0.987400
     3     1      0.279880      0.412602      0.151992
     4     1      0.027795      0.162086      0.151516
     5     1      0.969822      0.016571      0.320281
     6     1      0.219845      0.266208      0.319630
     7     1      0.205605      0.440010      0.485036
     8     1      0.957405      0.191130      0.485361
     9     1      0.908325      0.039672      0.652550
    10     1      0.157029      0.290296      0.652855
    11     1      0.320979      0.400225      0.822579
    12     1      0.071674      0.150975      0.821895
    13     1      0.046799      0.490668      0.987317
    14     1      0.298046      0.740958      0.986549
    15     1      0.278830      0.912553      0.151898
    16     1      0.031228      0.662831      0.151562
    17     1      0.969736      0.516685      0.320007