ITEM: TIMESTEP
64001
ITEM: NUMBER OF ATOMS
48
ITEM: BOX BOUNDS xy xz yz  pp  pp  pp
     -0.003081      2.203080      0.000000
     -0.005336      3.815850      0.000000
     -0.007546      5.396420      0.000000
ITEM: ATOMS id type xs ys zs
     1     1      0.048719      0.988167      0.986821
     2     1      0.292963      0.237396      0.986124
     3     1      0.272443      0.408600      0.151642
     4     1      0.022210      0.159385      0.150374
     5     1      0.967349      0.015435      0.319149
     6     1      0.220324      0.262806      0.318806
     7     1      0.212086      0.443131      0.485027
     8     1      0.958992      0.195705      0.485098
     9     1      0.907718      0.044519      0.651798
    10     1      0.153607      0.294748      0.653467
    11     1      0.323170      0.400941      0.822756
    12     1      0.073665      0.149597      0.821814
    13     1      0.039148      0.487092      0.987069
    14     1      0.292424      0.736002      0.986956
    15     1      0.278495      0.908681      0.151292
    16     1      0.026220      0.657860      0.152766
    17     1      0.971741      0.513577      0.320757
    18     1      0.219547      0.764570      0.319842
    19     1      0.208760      0.943755      0.484328
    20     1      0.963774      0.692827      0.485686
    21     1      0.904410      0.544255      0.652540
    22     1      0.157736      0.794834      0.653355
    23     1      0.329438      0.899164      0.821620
    24     1      0.073901      0.649189      0.821750
    25     1      0.548962      0.987293      0.986180
    26     1      0.791140      0.238093      0.985466
    27     1      0.773060      0.410010      0.153171
    28     1      0.523559      0.159757      0.151446
    29     1      0.467928      0.015989      0.319686
    30     1      0.720687      0.265078      0.320115
    31     1      0.710109      0.444791      0.484647
    32     1      0.459017      0.193521      0.484240
    33     1      0.409212      0.042844      0.650856
    34     1      0.651721      0.295019      0.651379
    35     1      0.823689      0.399287      0.820506
    36     1      0.572139      0.150252      0.820143
    37     1      0.541944      0.488363      0.987955
    38     1      0.794112      0.737901      0.988842
    39     1      0.776627      0.909211      0.152463
    40     1      0.525882      0.659736      0.152702
    41     1      0.469465      0.513521      0.319500
    42     1      0.720753      0.764026      0.320582
    43     1      0.712259      0.943377      0.483844
    44     1      0.462108      0.694406      0.485252
    45     1      0.404577      0.544634      0.653377
    46     1      0.658670      0.793817      0.653247
    47     1      0.828942      0.898913      0.822445
    48     1      0.575481      0.649285      0.822929
ITEM: TIMESTEP
64050
ITEM: NUMBER OF ATOMS
48
ITEM: BOX BOUNDS xy xz yz  pp  pp  pp
     -0.003081      2.203080      0.000000
     -0.005336      3.815850      0.000000
     -0.007546      5.396420      0.000000
ITEM: ATOMS id type xs ys zs
     1     1      0.047533      0.988648      0.987075
     2     1      0.292762      0.237911      0.986737
     3     1      0.273523      0.409156      0.151613
     4     1      0.024512      0.160212      0.151016
     5     1      0.968807      0.015489      0.319097
     6     1      0.219458      0.263772      0.319397
     7     1      0.212252      0.442545      0.485250
     8     1      0.958918      0.194290      0.484834
     9     1      0.908147      0.043961      0.651803
    10     1      0.155267      0.293714      0.652937
    11     1      0.324174      0.400613      0.822669
    12     1      0.074528      0.149473      0.821274
    13     1      0.040837      0.488190      0.987051
    14     1      0.294356      0.737231      0.986964
    15     1      0.277559      0.909035      0.151296
    16     1      0.027262      0.658455      0.152300
    17     1      0.969777      0.513243      0.320836
    18     1      0.222093      0.764559      0.319579
    19     1      0.208229      0.943481      0.484097
    20     1      0.963153      0.692482      0.485483
    21     1      0.903945      0.543587      0.652548
    22     1      0.157946      0.793531      0.653186
    23     1      0.328263      0.898985      0.821506
    24     1      0.075239      0.648934      0.821535
    25     1      0.549060      0.988756      0.986048
    26     1      0.792041      0.238206      0.985870
    27     1      0.773275      0.410327      0.152903
    28     1      0.523492      0.160116      0.151804
    29     1      0.467869      0.015559      0.319031
    30     1      0.718485      0.264614      0.319904
    31     1      0.710529      0.443877      0.484840
    32     1      0.458546      0.192477      0.484261
    33     1      0.409634      0.042164      0.651275
    34     1      0.652117      0.294089      0.651784
    35     1      0.823201      0.399828      0.821079
    36     1      0.572814      0.149798      0.820153
    37     1      0.543455      0.487967      0.987282
    38     1      0.794996      0.738426      0.988522
    39     1      0.776727      0.909021      0.151879
    40     1      0.526161      0.659995      0.152663
    41     1      0.469366      0.513705      0.319645
    42     1      0.721588      0.764302      0.320076
    43     1      0.709829      0.943428      0.484166
    44     1      0.460802      0.692666      0.485557
    45     1      0.404514      0.544908      0.653182
    46     1      0.657736      0.793578      0.652821
    47     1      0.826803      0.898851      0.822346
    48     1      0.576740      0.649314      0.822581
ITEM: TIMESTEP
64100
ITEM: NUMBER OF ATOMS
48
ITEM: BOX BOUNDS xy xz yz  pp  pp  pp
     -0.003081      2.203080      0.000000
     -0.005336      3.815850      0.000000
     -0.007546      5.396420      0.000000
ITEM: ATOMS id type xs ys zs
     1     1      0.047764      0.988140      0.986948
     2     1      0.294687      0.238259      0.986526
     3     1      0.274390      0.409819      0.152224
     4     1      0.024435      0.160050      0.151510
     5     1      0.969549      0.014935      0.319796
     6     1      0.219797      0.263594      0.319646
     7     1      0.211272      0.442436      0.485026
     8     1      0.959231      0.193327      0.484719
     9     1      0.908201      0.043015      0.652162
    10     1      0.156479      0.292959      0.653164
    11     1      0.324193      0.400590      0.822248
    12     1      0.073887      0.149318      0.821470
    13     1      0.043112      0.487449      0.987011
    14     1      0.295622      0.738022      0.987272
    15     1      0.276251      0.909614      0.151994
    16     1      0.028049      0.659920      0.152306
    17     1      0.969453      0.513491      0.320487
    18     1      0.222506      0.763972      0.319793
    19     1      0.209008      0.943061      0.484689
    20     1      0.962302      0.691509      0.484999
    21     1      0.905288      0.543183      0.653059
    22     1      0.157476      0.793763      0.652397
    23     1      0.326470      0.899620      0.821787
    24     1      0.074960      0.649303      0.821819
    25     1      0.548585      0.988883      0.986015
    26     1      0.792295      0.238244      0.985591
    27     1      0.774093      0.409916      0.152802
    28     1      0.524685      0.160211      0.151960
    29     1      0.469609      0.014712      0.320007
    30     1      0.718818      0.264259      0.319864
    31     1      0.709601      0.443386      0.484860
    32     1      0.457973      0.193056      0.484745
    33     1      0.407729      0.042848      0.651130
    34     1      0.653149      0.293818      0.651831
    35     1      0.822616      0.399190      0.821526
    36     1      0.572441      0.150078      0.820214
    37     1      0.543772      0.487903      0.987815
    38     1      0.795479      0.738563      0.987746
    39     1      0.776795      0.909847      0.152032
    40     1      0.527272      0.659958      0.152829
    41     1      0.468749      0.514161      0.320215
    42     1      0.723027      0.764763      0.320307
    43     1      0.707871      0.943297      0.485210
    44     1      0.461360      0.692306      0.485511
    45     1      0.405000      0.544135      0.653404
    46     1      0.657937      0.792620      0.652816
    47     1      0.826788      0.898749      0.821556
    48     1      0.577140      0.649596      0.822249
ITEM: TIMESTEP
64150
ITEM: NUMBER OF ATOMS
48
ITEM: BOX BOUNDS xy xz yz  pp  pp  pp
     -0.003081      2.203080      0.000000
     -0.005336      3.815850      0.000000
     -0.007546      5.396420      0.000000
ITEM: ATOMS id type xs ys zs
     1     1      0.046922      0.988927      0.986445
     2     1      0.295540      0.239137      0.986457
     3     1      0.274260      0.410301      0.152398
     4     1      0.025802      0.160601      0.151123
     5     1      0.968585      0.014573      0.319541
     6     1      0.220531      0.263776      0.319728
     7     1      0.210436      0.442689      0.484983
     8     1      0.958189      0.193197      0.484855
     9     1      0.907406      0.043070      0.652480
    10     1      0.156208      0.292516      0.652677
    11     1      0.322850      0.401570      0.821761
    12     1      0.073463      0.149714      0.821256
    13     1      0.044290      0.488295      0.987065
    14     1      0.295920      0.738934      0.987502
    15     1      0.276619      0.911353      0.151429
    16     1      0.029323      0.660239      0.151777
    17     1      0.969809      0.514139      0.320518
    18     1      0.221643      0.764482      0.319566
    19     1      0.207845      0.942340      0.484224
    20     1      0.961494      0.692124      0.485223
    21     1      0.906232      0.543034      0.652611
    22     1      0.156515      0.793424      0.652372
    23     1      0.326817      0.899916      0.821782
    24     1      0.075761      0.650101      0.821760
    25     1      0.549086      0.989643      0.986551
    26     1      0.794228      0.239106      0.986096
    27     1      0.775167      0.410838      0.152457
    28     1      0.526713      0.160634      0.152294
    29     1      0.469932      0.014653      0.319906
    30     1      0.720754      0.263905      0.319938
    31     1      0.709666      0.442601      0.485344
    32     1      0.457556      0.193283      0.484984
    33     1      0.406970      0.042060      0.651164
    34     1      0.653841      0.293172      0.652638
    35     1      0.822868      0.399674      0.821228
    36     1      0.572297      0.150144      0.820157
    37     1      0.544274      0.489057      0.987883
    38     1      0.795535      0.739271      0.987356
    39     1      0.778888      0.910032      0.151619
    40     1      0.527979      0.660568      0.152495
    41     1      0.469789      0.513668      0.320366
    42     1      0.722137      0.764792      0.320520
    43     1      0.708721      0.942933      0.485082
    44     1      0.460682      0.692407      0.485283
    45     1      0.405147      0.543589      0.653688
    46     1      0.658079      0.792423      0.652417
    47     1      0.827135      0.899646      0.821297
    48     1      0.576157      0.650392      0.822017
ITEM: TIMESTEP
64200
ITEM: NUMBER OF ATOMS
48
ITEM: BOX BOUNDS xy xz yz  pp  pp  pp
     -0.003081      2.203080      0.000000
     -0.005336      3.815850      0.000000
     -0.007546      5.396420      0.000000
ITEM: ATOMS id type xs ys zs
     1     1      0.049251      0.988952      0.986002
     2     1      0.295439      0.239359      0.986830
     3     1      0.276409      0.410193      0.151915
     4     1      0.024969      0.160873      0.151335
     5     1      0.969801      0.015252      0.319280
     6     1      0.219995      0.264201      0.319373
     7     1      0.210366      0.442428      0.484836
     8     1      0.958573      0.192342      0.484973
     9     1      0.906345      0.042554      0.652287
    10     1      0.156855      0.292132      0.652522
    11     1      0.321953      0.401892      0.821956
    12     1      0.071928      0.150102      0.821813
    13     1      0.044073      0.489124      0.986792
    14     1      0.295036      0.739547      0.987076
    15     1      0.277792      0.910655      0.150728
    16     1      0.028513      0.659656      0.151893
    17     1      0.970985      0.514273      0.320209
    18     1      0.222046      0.764442      0.319412
    19     1      0.207511      0.942166      0.484540
    20     1      0.960206      0.691784      0.485512
    21     1      0.905083      0.542189      0.653202
    22     1      0.156662      0.792347      0.652759
    23     1      0.325333      0.900694      0.821647
    24     1      0.075442      0.650869      0.821807
    25     1      0.547692      0.990071      0.986406
    26     1      0.795090      0.239232      0.986334
    27     1      0.777424      0.410632      0.152474
    28     1      0.526225      0.160666      0.151705
    29     1      0.469586      0.013981      0.319711
    30     1      0.719591      0.263583      0.320148
    31     1      0.708276      0.442569      0.484222
    32     1      0.456405      0.192116      0.485139
    33     1      0.407026      0.041965      0.651292
    34     1      0.655046      0.292408      0.652163
    35     1      0.821545      0.399659      0.821687
    36     1      0.571260      0.151064      0.820985
    37     1      0.544055      0.489605      0.987680
    38     1      0.795406      0.738652      0.986620
    39     1      0.777657      0.910585      0.151790
    40     1      0.528736      0.660343      0.152418
    41     1      0.470721      0.513700      0.319555
    42     1      0.723028      0.764918      0.320413
    43     1      0.709316      0.941587      0.484830
    44     1      0.459830      0.691542      0.485160
    45     1      0.406234      0.542940      0.652588
    46     1      0.658566      0.791980      0.652466
    47     1      0.826870      0.899848      0.821825
    48     1      0.575116      0.650353      0.821719
ITEM: TIMESTEP
64250
ITEM: NUMBER OF ATOMS
48
ITEM: BOX BOUNDS xy xz yz  pp  pp  pp
     -0.003081      2.203080      0.000000
     -0.005336      3.815850      0.000000
     -0.007546      5.396420      0.000000
ITEM: ATOMS id type xs ys zs
     1     1      0.047767      0.989493      0.986359
     2     1      0.296195      0.239779      0.986475
     3     1      0.275715      0.410518      0.151510
     4     1      0.026069      0.161669      0.151422
     5     1      0.970336      0.015532      0.319550
     6     1      0.220291      0.263796      0.319407
     7     1      0.208978      0.441276      0.484541
     8     1      0.957599      0.192157      0.484489
     9     1      0.906343      0.042142      0.652406
    10     1      0.156605      0.291952      0.652199
    11     1      0.319026      0.401793      0.821764
    12     1      0.070869      0.149964      0.821331
    13     1      0.044527      0.489848      0.986952
    14     1      0.294970      0.739774      0.987047
    15     1      0.278765      0.910851      0.150761
    16     1      0.029097      0.660943      0.151624
    17     1      0.971327      0.514391      0.319973
    18     1      0.222501      0.764892      0.319483
    19     1      0.206483      0.941470      0.484550
    20     1      0.960251      0.691117      0.485525
    21     1      0.906187      0.541829      0.652871
    22     1      0.157444      0.792272      0.652460
    23     1      0.325550      0.900692      0.821889
    24     1      0.074297      0.651258      0.821989
    25     1      0.549018      0.989938      0.986668
    26     1      0.795029      0.239730      0.986397
    27     1      0.777698      0.410709      0.151955
    28     1      0.526267      0.160840      0.152012
    29     1      0.469867      0.014560      0.319818
    30     1      0.719774      0.264205      0.320026
    31     1      0.709301      0.442252      0.484556
    32     1      0.456189      0.191595      0.484591
    33     1      0.406509      0.041928      0.651420
    34     1      0.655112      0.292015      0.651798
    35     1      0.821433      0.400155      0.822076
    36     1      0.571048      0.151404      0.821016
    37     1      0.545477      0.489670      0.987210
    38     1      0.794895      0.740071      0.986720
    39     1      0.778901      0.910816      0.152161
    40     1      0.529203      0.660866      0.151499
    41     1      0.471087      0.513872      0.319756
    42     1      0.723520      0.765287      0.320473
    43     1      0.708262      0.941440      0.484420
    44     1      0.459413      0.691883      0.484797
    45     1      0.404637      0.542834      0.652671
    46     1      0.658502      0.792251      0.652347
    47     1      0.823594      0.899870      0.821455
    48     1      0.573946      0.649955      0.821577
ITEM: TIMESTEP
64300
ITEM: NUMBER OF ATOMS
48
ITEM: BOX BOUNDS xy xz yz  pp  pp  pp
     -0.003081      2.203080      0.000000
     -0.005336      3.815850      0.000000
     -0.007546      5.396420      0.000000
ITEM: ATOMS id type xs ys zs
     1     1      0.047495      0.990402      0.985990
     2     1      0.295678      0.239591      0.986329
     3     1      0.277560      0.410445      0.151440
     4     1      0.028346      0.161465      0.151796
     5     1      0.969904      0.015709      0.319806
     6     1      0.220144      0.264846      0.319403
     7     1      0.208170      0.440455      0.485074
     8     1      0.958274      0.191222      0.485134
     9     1      0.905295      0.042219      0.651982
    10     1      0.156468      0.291472      0.651861
    11     1      0.319329      0.401736      0.821426
    12     1      0.070074      0.151406      0.821571
    13     1      0.044342      0.488313      0.986925
    14     1      0.295383      0.740225      0.986748
    15     1      0.279481      0.911048      0.151170
    16     1      0.029700      0.661426      0.151714
    17     1      0.972665      0.514259      0.319528
    18     1      0.222988      0.764993      0.319199
    19     1      0.207594      0.941501      0.484266
    20     1      0.959358      0.690782      0.484859
    21     1      0.906918      0.541193      0.653207
    22     1      0.158252      0.791944      0.652204
    23     1      0.324041      0.900720      0.822113
    24     1      0.073661      0.651054      0.822120
    25     1      0.548988      0.990167      0.987046
    26     1      0.794347      0.239161      0.986366
    27     1      0.777401      0.410481      0.151613
    28     1      0.527000      0.161119      0.151921
    29     1      0.469808      0.014222      0.319586
    30     1      0.721473      0.264348      0.320175
    31     1      0.709648      0.441236      0.484623
    32     1      0.458630      0.190948      0.484269
    33     1      0.405666      0.041782      0.652200
    34     1      0.655998      0.292594      0.651963
    35     1      0.820254      0.400350      0.822609
    36     1      0.570821      0.150710      0.821443
    37     1      0.545444      0.489900      0.987189
    38     1      0.795966      0.739904      0.986818
    39     1      0.778805      0.911312      0.151387
    40     1      0.530118      0.661175      0.151834
    41     1      0.471157      0.514290      0.319355
    42     1      0.723286      0.764855      0.319798
    43     1      0.707614      0.941430      0.484801
    44     1      0.459873      0.691400      0.484589
    45     1      0.405247      0.542833      0.652459
    46     1      0.658970      0.791099      0.652239
    47     1      0.822485      0.900151      0.821223
    48     1      0.573373      0.650576      0.821762
ITEM: TIMESTEP
64350
ITEM: NUMBER OF ATOMS
48
ITEM: BOX BOUNDS xy xz yz  pp  pp  pp
     -0.003081      2.203080      0.000000
     -0.005336      3.815850      0.000000
     -0.007546      5.396420      0.000000
ITEM: ATOMS id type xs ys zs
     1     1      0.047450      0.990938      0.986390
     2     1      0.296707      0.239630      0.986192
     3     1      0.278896      0.411127      0.151431
     4     1      0.029234      0.161165      0.151851
     5     1      0.969503      0.015586      0.319939
     6     1      0.221678      0.265449      0.319308
     7     1      0.208319      0.440277      0.485125
     8     1      0.958714      0.190077      0.484570
     9     1      0.904230      0.041309      0.651672
    10     1      0.157810      0.291482      0.652695
    11     1      0.320659      0.401958      0.821834
    12     1      0.069817      0.151781      0.821071
    13     1      0.045790      0.489646      0.987201
    14     1      0.297039      0.741003      0.986494
    15     1      0.280434      0.911401      0.150916
    16     1      0.029598      0.661925      0.151538
    17     1      0.972592      0.513854      0.319120
    18     1      0.221830      0.765459      0.319589
    19     1      0.207449      0.939906      0.484210
    20     1      0.958256      0.690431      0.485165
    21     1      0.907753      0.540488      0.653013
    22     1      0.156471      0.791666      0.652511
    23     1      0.323604      0.900816      0.821768
    24     1      0.073035      0.651031      0.821897
    25     1      0.546810      0.990170      0.986699
    26     1      0.794983      0.239378      0.986738
    27     1      0.777639      0.410712      0.151343
    28     1      0.528340      0.162010      0.151538
    29     1      0.469564      0.014224      0.319111
    30     1      0.721900      0.264704      0.319363
    31     1      0.709212      0.441101      0.485158
    32     1      0.458299      0.190933      0.483822
    33     1      0.406655      0.041416      0.652078
    34     1      0.655751      0.291464      0.651950
    35     1      0.819765      0.401575      0.822466
    36     1      0.568539      0.151943      0.821354
    37     1      0.544542      0.490795      0.986911
    38     1      0.796686      0.740476      0.986511
    39     1      0.779992      0.911359      0.151692
    40     1      0.529630      0.661394      0.151305
    41     1      0.471178      0.514243      0.319263
    42     1      0.722299      0.765097      0.320073
    43     1      0.708157      0.940713      0.484620
    44     1      0.458288      0.690843      0.484746
    45     1      0.405812      0.541982      0.652591
    46     1      0.658777      0.791076      0.652477
    47     1      0.821814      0.900939      0.821571
    48     1      0.572696      0.650473      0.821766
ITEM: TIMESTEP
64400
ITEM: NUMBER OF ATOMS
48
ITEM: BOX BOUNDS xy xz yz  pp  pp  pp
     -0.003081      2.203080      0.000000
     -0.005336      3.815850      0.000000
     -0.007546      5.396420      0.000000
ITEM: ATOMS id type xs ys zs
     1     1      0.047267      0.990712      0.986264
     2     1      0.296234      0.240883      0.986208
     3     1      0.279549      0.411051      0.151389
     4     1      0.029430      0.161537      0.151529
     5     1      0.970171      0.015238      0.319702
     6     1      0.221753      0.264454      0.319311
     7     1      0.209052      0.440794      0.484933
     8     1      0.958763      0.190430      0.484359
     9     1      0.904549      0.040796      0.651585
    10     1      0.156972      0.290654      0.652701
    11     1      0.319448      0.401596      0.821718
    12     1      0.069000      0.152027      0.821297
    13     1      0.045659      0.489637      0.986790
    14     1      0.296092      0.740999      0.986453
    15     1      0.280773      0.910909      0.150672
    16     1      0.031518      0.661017      0.151458
    17     1      0.974124      0.513755      0.318939
    18     1      0.222401      0.765209      0.320164
    19     1      0.208271      0.940066      0.484295
    20     1      0.958139      0.689545      0.484643
    21     1      0.908804      0.540619      0.652350
    22     1      0.157811      0.791561      0.652291
    23     1      0.322782      0.901250      0.821915
    24     1      0.071449      0.651256      0.822126
    25     1      0.547575      0.990338      0.986811
    26     1      0.795410      0.240238      0.986875
    27     1      0.779531      0.412419      0.151443
    28     1      0.528794      0.162021      0.151823
    29     1      0.470867      0.014664      0.319066
    30     1      0.720181      0.264866      0.319337
    31     1      0.708636      0.440767      0.485155
    32     1      0.457207      0.190662      0.484261
    33     1      0.405189      0.041233      0.652199
    34     1      0.657216      0.290576      0.651900
    35     1      0.819158      0.401075      0.821812
    36     1      0.568112      0.152130      0.821967
    37     1      0.544825      0.490395      0.986814
    38     1      0.797673      0.740363      0.985954
    39     1      0.780649      0.911535      0.151833
    40     1      0.530214      0.661611      0.151066
    41     1      0.472242      0.514299      0.319175
    42     1      0.722385      0.764765      0.319974
    43     1      0.706515      0.940292      0.484670
    44     1      0.458711      0.690096      0.484628
    45     1      0.406593      0.541029      0.652787
    46     1      0.658465      0.790692      0.652039
    47     1      0.821602      0.902007      0.821725
    48     1      0.571897      0.651300      0.821504
ITEM: TIMESTEP
64450
ITEM: NUMBER OF ATOMS
48
ITEM: BOX BOUNDS xy xz yz  pp  pp  pp
     -0.003081      2.203080      0.000000
     -0.005336      3.815850      0.000000
     -0.007546      5.396420      0.000000
ITEM: ATOMS id type xs ys zs
     1     1      0.048521      0.991443      0.986692
     2     1      0.296635      0.241031      0.986590
     3     1      0.278531      0.411258      0.151788
     4     1      0.030109      0.162277      0.151574
     5     1      0.969045      0.015657      0.319728
     6     1      0.221831      0.264964      0.319321
     7     1      0.208312      0.439876      0.484354
     8     1      0.958569      0.190554      0.484252
     9     1      0.904649      0.041393      0.651967
    10     1      0.155452      0.290697      0.652389
    11     1      0.318490      0.401791      0.821344
    12     1      0.069223      0.151857      0.821597
    13     1      0.045636      0.490454      0.986723
    14     1      0.297534      0.740374      0.986206
    15     1      0.281095      0.911646      0.151529
    16     1      0.031831      0.661937      0.151444
    17     1      0.973253      0.513963      0.318993
    18     1      0.220062      0.765715      0.319642
    19     1      0.207133      0.939758      0.484602
    20     1      0.957991      0.689161      0.484784
    21     1      0.908043      0.540105      0.652891
    22     1      0.157899      0.790927      0.652801
    23     1      0.321725      0.901347      0.821680
    24     1      0.071368      0.650746      0.821583
    25     1      0.547851      0.990003      0.986940
    26     1      0.796187      0.240055      0.987257
    27     1      0.780420      0.412216      0.151220
    28     1      0.528736      0.161439      0.151665
    29     1      0.470142      0.015402      0.319331
    30     1      0.721388      0.265751      0.319484
    31     1      0.708642      0.440264      0.484784
    32     1      0.458181      0.190367      0.484429
    33     1      0.404559      0.042026      0.652476
    34     1      0.657139      0.290353      0.652219
    35     1      0.819415      0.401220      0.822402
    36     1      0.566844      0.152072      0.822018
    37     1      0.545405      0.489814      0.986508
    38     1      0.798346      0.741047      0.986567
    39     1      0.781930      0.912337      0.151579
    40     1      0.531003      0.661156      0.150846
    41     1      0.473197      0.514723      0.319496
    42     1      0.722133      0.763729      0.319345
    43     1      0.705768      0.940275      0.484472
    44     1      0.458507      0.690762      0.484299
    45     1      0.407753      0.540681      0.651775
    46     1      0.658925      0.790688      0.651922
    47     1      0.819974      0.901934      0.822157
    48     1      0.571851      0.651362      0.822006
ITEM: TIMESTEP
64500
ITEM: NUMBER OF ATOMS
48
ITEM: BOX BOUNDS xy xz yz  pp  pp  pp
     -0.003081      2.203080      0.000000
     -0.005336      3.815850      0.000000
     -0.007546      5.396420      0.000000
ITEM: ATOMS id type xs ys zs
     1     1      0.047728      0.990873      0.986883
     2     1      0.296947      0.240824      0.986100
     3     1      0.278116      0.411959      0.151703
     4     1      0.028825      0.162709      0.151646
     5     1      0.970099      0.016002      0.319704
     6     1      0.222409      0.265078      0.319698
     7     1      0.207449      0.440516      0.484364
     8     1      0.957242      0.190927      0.484182
     9     1      0.905652      0.040061      0.652086
    10     1      0.157101      0.290106      0.651971
    11     1      0.318686      0.401889      0.821498
    12     1      0.068175      0.151766      0.821652
    13     1      0.047228      0.491147      0.986956
    14     1      0.298484      0.740835      0.987049
    15     1      0.280525      0.910928      0.151663
    16     1      0.030954      0.661506      0.152095
    17     1      0.972315      0.514095      0.319479