ITEM: TIMESTEP
64001
ITEM: NUMBER OF ATOMS
48
ITEM: BOX BOUNDS xy xz yz  pp  pp  pp
     -0.003081      2.203080      0.000000
     -0.005336      3.815850      0.000000
     -0.007546      5.396420      0.000000
ITEM: ATOMS id type xs ys zs
     1     1      0.048701      0.988118      0.986960
     2     1      0.293197      0.237328      0.986158
     3     1      0.272383      0.408487      0.151547
     4     1      0.022223      0.159241      0.150377
     5     1      0.967199      0.015530      0.319073
     6     1      0.220610      0.262721      0.318822
     7     1      0.212413      0.443203      0.485036
     8     1      0.958941      0.195769      0.485228
     9     1      0.907632      0.044681      0.651681
    10     1      0.153793      0.294577      0.653572
    11     1      0.322447      0.400870      0.822784
    12     1      0.073789      0.149479      0.821823
    13     1      0.039182      0.487253      0.987038
    14     1      0.292005      0.735875      0.986942
    15     1      0.277804      0.908809      0.151376
    16     1      0.026369      0.657866      0.152750
    17     1      0.971963      0.513353      0.320619
    18     1      0.219403      0.764641      0.319872
    19     1      0.209087      0.943826      0.484226
    20     1      0.963826      0.692824      0.485677
    21     1      0.904292      0.544270      0.652500
    22     1      0.157636      0.794778      0.653175
    23     1      0.329447      0.899345      0.821642
    24     1      0.073730      0.649213      0.821812
    25     1      0.548986      0.987343      0.986186
    26     1      0.791277      0.238026      0.985481
    27     1      0.772952      0.409982      0.153162
    28     1      0.523829      0.159721      0.151423
    29     1      0.467763      0.016020      0.319797
    30     1      0.720931      0.265012      0.320193
    31     1      0.710038      0.445069      0.484617
    32     1      0.459066      0.193468      0.484189
    33     1      0.409265      0.042788      0.650960
    34     1      0.651836      0.294872      0.651224
    35     1      0.823640      0.399437      0.820504
    36     1      0.572569      0.150287      0.820164
    37     1      0.541690      0.488450      0.988071
    38     1      0.794207      0.737965      0.988930
    39     1      0.776480      0.909089      0.152410
    40     1      0.525568      0.659709      0.152828
    41     1      0.469561      0.513729      0.319477
    42     1      0.720802      0.763975      0.320595
    43     1      0.712132      0.943363      0.484001
    44     1      0.462341      0.694730      0.485093
    45     1      0.404715      0.544780      0.653227
    46     1      0.658464      0.793810      0.653110
    47     1      0.828993      0.898839      0.822459
    48     1      0.575739      0.649296      0.822905
ITEM: TIMESTEP
64050
ITEM: NUMBER OF ATOMS
48
ITEM: BOX BOUNDS xy xz yz  pp  pp  pp
     -0.003081      2.203080      0.000000
     -0.005336      3.815850      0.000000
     -0.007546      5.396420      0.000000
ITEM: ATOMS id type xs ys zs
     1     1      0.048938      0.988487      0.986657
     2     1      0.293190      0.238281      0.986291
     3     1      0.272908      0.409611      0.151395
     4     1      0.023972      0.159408      0.151132
     5     1      0.968867      0.015533      0.318659
     6     1      0.220295      0.263007      0.318539
     7     1      0.211530      0.442699      0.484804
     8     1      0.958778      0.194600      0.485067
     9     1      0.906918      0.044299      0.652201
    10     1      0.155099      0.293848      0.653434
    11     1      0.322014      0.400788      0.822361
    12     1      0.073686      0.149645      0.821961
    13     1      0.039260      0.487665      0.987107
    14     1      0.292200      0.737759      0.986475
    15     1      0.277418      0.909918      0.151491
    16     1      0.026326      0.658835      0.152480
    17     1      0.973063      0.513816      0.320205
    18     1      0.220609      0.765012      0.320257
    19     1      0.208400      0.943833      0.484074
    20     1      0.961982      0.693139      0.485812
    21     1      0.903894      0.543301      0.652811
    22     1      0.157171      0.793719      0.652788
    23     1      0.328830      0.898733      0.821146
    24     1      0.073889      0.649338      0.821868
    25     1      0.548910      0.987855      0.986369
    26     1      0.792067      0.238102      0.986237
    27     1      0.773411      0.410182      0.152715
    28     1      0.524525      0.159916      0.151209
    29     1      0.468865      0.014848      0.319484
    30     1      0.720327      0.264426      0.319714
    31     1      0.710805      0.443564      0.484392
    32     1      0.458881      0.193111      0.484211
    33     1      0.409109      0.041898      0.651275
    34     1      0.653348      0.294354      0.651495
    35     1      0.821902      0.399418      0.820713
    36     1      0.572474      0.149837      0.820286
    37     1      0.542062      0.488482      0.987682
    38     1      0.793804      0.738303      0.988020
    39     1      0.776728      0.909873      0.151579
    40     1      0.524040      0.659801      0.152250
    41     1      0.471042      0.514090      0.319682
    42     1      0.720599      0.764376      0.320351
    43     1      0.710897      0.942590      0.484969
    44     1      0.462186      0.693711      0.485393
    45     1      0.405321      0.543922      0.653386
    46     1      0.658002      0.793066      0.653354
    47     1      0.827975      0.899591      0.821947
    48     1      0.574492      0.649759      0.822901
ITEM: TIMESTEP
64100
ITEM: NUMBER OF ATOMS
48
ITEM: BOX BOUNDS xy xz yz  pp  pp  pp
     -0.003081      2.203080      0.000000
     -0.005336      3.815850      0.000000
     -0.007546      5.396420      0.000000
ITEM: ATOMS id type xs ys zs
     1     1      0.047642      0.989134      0.986591
     2     1      0.292947      0.239499      0.986948
     3     1      0.270982      0.409592      0.151915
     4     1      0.023889      0.160549      0.151277
     5     1      0.967982      0.014946      0.319068
     6     1      0.220029      0.263848      0.319145
     7     1      0.209362      0.442916      0.485045
     8     1      0.957147      0.193525      0.485042
     9     1      0.908169      0.043578      0.652264
    10     1      0.155278      0.293559      0.652953
    11     1      0.321429      0.400140      0.822533
    12     1      0.074032      0.149782      0.821592
    13     1      0.041369      0.488274      0.986661
    14     1      0.293124      0.738834      0.987389
    15     1      0.277243      0.910970      0.151425
    16     1      0.025852      0.660269      0.152309
    17     1      0.973392      0.514522      0.319871
    18     1      0.221440      0.765530      0.320311
    19     1      0.208329      0.942734      0.484395
    20     1      0.960917      0.693464      0.485282
    21     1      0.905064      0.543177      0.652277
    22     1      0.157675      0.793131      0.652739
    23     1      0.326852      0.899051      0.821293
    24     1      0.074397      0.649089      0.822093
    25     1      0.547042      0.989667      0.986102
    26     1      0.792884      0.239341      0.986384
    27     1      0.773766      0.411062      0.152411
    28     1      0.524890      0.159679      0.151310
    29     1      0.471635      0.014713      0.319059
    30     1      0.719564      0.265093      0.319340
    31     1      0.711045      0.442647      0.484597
    32     1      0.457700      0.191866      0.484367
    33     1      0.407228      0.041930      0.651777
    34     1      0.653632      0.293747      0.651946
    35     1      0.822195      0.399670      0.820826
    36     1      0.572884      0.150440      0.820714
    37     1      0.542057      0.489267      0.988031
    38     1      0.792855      0.738724      0.987855
    39     1      0.776957      0.909781      0.151807
    40     1      0.524825      0.660508      0.152460
    41     1      0.470670      0.514436      0.319423
    42     1      0.722708      0.764023      0.320550
    43     1      0.708533      0.942351      0.484867
    44     1      0.460997      0.693063      0.485219
    45     1      0.404661      0.543460      0.653528
    46     1      0.657803      0.792671      0.653623
    47     1      0.828521      0.900026      0.821788
    48     1      0.574140      0.650027      0.822943
ITEM: TIMESTEP
64150
ITEM: NUMBER OF ATOMS
48
ITEM: BOX BOUNDS xy xz yz  pp  pp  pp
     -0.003081      2.203080      0.000000
     -0.005336      3.815850      0.000000
     -0.007546      5.396420      0.000000
ITEM: ATOMS id type xs ys zs
     1     1      0.045930      0.988824      0.986286
     2     1      0.293256      0.239401      0.986986
     3     1      0.272441      0.410021      0.152012
     4     1      0.025496      0.160388      0.151052
     5     1      0.969290      0.014579      0.319582
     6     1      0.219262      0.264650      0.319246
     7     1      0.208486      0.442494      0.485194
     8     1      0.960926      0.195021      0.484539
     9     1      0.916477      0.045333      0.657761
    10     1      0.156444      0.293593      0.652998
    11     1      0.321502      0.399799      0.822416
    12     1      0.075233      0.150286      0.821883
    13     1      0.042564      0.489166      0.986747
    14     1      0.292599      0.739613      0.987483
    15     1      0.276630      0.911147      0.152111
    16     1      0.025443      0.660670      0.152463
    17     1      0.972474      0.514348      0.319918
    18     1      0.221793      0.765422      0.319487
    19     1      0.207604      0.942075      0.483755
    20     1      0.960901      0.693950      0.485399
    21     1      0.905616      0.543074      0.652947
    22     1      0.157847      0.792269      0.652838
    23     1      0.323425      0.897329      0.821903
    24     1      0.074739      0.648302      0.822253
    25     1      0.547300      0.989774      0.985757
    26     1      0.791823      0.239384      0.985959
    27     1      0.775337      0.411133      0.152168
    28     1      0.526963      0.160911      0.151137
    29     1      0.472198      0.014030      0.319691
    30     1      0.719628      0.265262      0.319214
    31     1      0.710082      0.441943      0.484835
    32     1      0.454605      0.195747      0.483999
    33     1      0.396416      0.038111      0.645875
    34     1      0.654762      0.293256      0.651763
    35     1      0.819997      0.399952      0.821741
    36     1      0.581709      0.120742      0.801661
    37     1      0.541868      0.489887      0.987910
    38     1      0.793716      0.739450      0.988034
    39     1      0.776885      0.909516      0.151221
    40     1      0.524186      0.661743      0.152879
    41     1      0.470903      0.514341      0.319982
    42     1      0.721781      0.764374      0.320814
    43     1      0.701742      0.971972      0.504964
    44     1      0.461425      0.693196      0.485231
    45     1      0.404177      0.542666      0.653041
    46     1      0.659108      0.791913      0.652701
    47     1      0.829460      0.896403      0.822366
    48     1      0.573304      0.650270      0.822519
ITEM: TIMESTEP
64200
ITEM: NUMBER OF ATOMS
48
ITEM: BOX BOUNDS xy xz yz  pp  pp  pp
     -0.003081      2.203080      0.000000
     -0.005336      3.815850      0.000000
     -0.007546      5.396420      0.000000
ITEM: ATOMS id type xs ys zs
     1     1      0.045255      0.989044      0.986588
     2     1      0.293707      0.239766      0.987335
     3     1      0.273569      0.411223      0.151756
     4     1      0.025234      0.160786      0.150560
     5     1      0.968939      0.015498      0.319999
     6     1      0.219184      0.264084      0.318167
     7     1      0.208779      0.443400      0.485126
     8     1      0.960841      0.195524      0.484900
     9     1      0.913393      0.044278      0.658687
    10     1      0.156257      0.293037      0.652791
    11     1      0.320866      0.398871      0.821904
    12     1      0.079508      0.149967      0.823331
    13     1      0.042667      0.488578      0.986705
    14     1      0.292150      0.740777      0.987531
    15     1      0.277240      0.912593      0.152128
    16     1      0.026221      0.660975      0.152421
    17     1      0.971476      0.515198      0.320189
    18     1      0.221495      0.765263      0.319331
    19     1      0.203959      0.940561      0.483060
    20     1      0.957909      0.693540      0.485612
    21     1      0.905578      0.542800      0.652482
    22     1      0.158645      0.790969      0.652686
    23     1      0.322738      0.896749      0.821566
    24     1      0.073814      0.647457      0.821819
    25     1      0.546258      0.990429      0.985336
    26     1      0.789608      0.239227      0.984726
    27     1      0.774337      0.411351      0.152628
    28     1      0.526928      0.161788      0.151323
    29     1      0.473133      0.014260      0.320583
    30     1      0.721256      0.265143      0.319142
    31     1      0.710885      0.442486      0.484858
    32     1      0.453809      0.197831      0.483432
    33     1      0.397681      0.038778      0.646510
    34     1      0.655126      0.292496      0.651046
    35     1      0.819241      0.398280      0.821251
    36     1      0.583539      0.133119      0.809771
    37     1      0.543061      0.490535      0.987455
    38     1      0.792714      0.739273      0.988038
    39     1      0.778891      0.910503      0.150915
    40     1      0.524652      0.661705      0.153121
    41     1      0.470430      0.514345      0.320007
    42     1      0.720235      0.765293      0.321703
    43     1      0.701049      0.959786      0.496070
    44     1      0.460915      0.693730      0.485179
    45     1      0.406325      0.542034      0.652921
    46     1      0.658293      0.792172      0.653357
    47     1      0.830310      0.893516      0.822392
    48     1      0.573049      0.649422      0.822492
ITEM: TIMESTEP
64250
ITEM: NUMBER OF ATOMS
48
ITEM: BOX BOUNDS xy xz yz  pp  pp  pp
     -0.003081      2.203080      0.000000
     -0.005336      3.815850      0.000000
     -0.007546      5.396420      0.000000
ITEM: ATOMS id type xs ys zs
     1     1      0.046548      0.989334      0.960900
     2     1      0.294756      0.240303      0.986584
     3     1      0.273651      0.411949      0.151587
     4     1      0.025821      0.160514      0.150639
     5     1      0.968319      0.015627      0.320459
     6     1      0.220502      0.265128      0.318795
     7     1      0.208331      0.443552      0.485100
     8     1      0.959510      0.194797      0.486076
     9     1      0.910807      0.043179      0.657376
    10     1      0.156864      0.292446      0.652819
    11     1      0.321883      0.398441      0.822036
    12     1      0.080628      0.150569      0.822163
    13     1      0.041487      0.489018      0.986856
    14     1      0.293348      0.740930      0.987712
    15     1      0.276405      0.912664      0.152079
    16     1      0.025983      0.661389      0.152689
    17     1      0.972614      0.515150      0.320071
    18     1      0.221537      0.764088      0.319060
    19     1      0.203500      0.940951      0.483348
    20     1      0.956206      0.693455      0.485882
    21     1      0.905813      0.542117      0.652557
    22     1      0.157767      0.790704      0.652674
    23     1      0.323766      0.896529      0.821951
    24     1      0.074736      0.647496      0.821509
    25     1      0.546021      0.990393      0.985412
    26     1      0.790565      0.239088      0.984341
    27     1      0.775050      0.410895      0.152123
    28     1      0.526742      0.161379      0.151699
    29     1      0.471829      0.015658      0.320808
    30     1      0.721206      0.265659      0.319334
    31     1      0.709810      0.442918      0.484681
    32     1      0.454165      0.196487      0.483453
    33     1      0.398086      0.038973      0.673778
    34     1      0.654887      0.292024      0.650889
    35     1      0.819031      0.398529      0.820758
    36     1      0.585967      0.140509      0.815404
    37     1      0.542590      0.490406      0.987297
    38     1      0.794384      0.739131      0.988504
    39     1      0.776656      0.910712      0.151813
    40     1      0.525121      0.661952      0.152953
    41     1      0.471485      0.514317      0.319696
    42     1      0.721128      0.766966      0.321157
    43     1      0.701325      0.954517      0.492116
    44     1      0.459917      0.694573      0.484999
    45     1      0.406985      0.541715      0.652578
    46     1      0.657344      0.791743      0.653198
    47     1      0.826698      0.893666      0.821644
    48     1      0.571023      0.648754      0.822405
ITEM: TIMESTEP
64300
ITEM: NUMBER OF ATOMS
48
ITEM: BOX BOUNDS xy xz yz  pp  pp  pp
     -0.003081      2.203080      0.000000
     -0.005336      3.815850      0.000000
     -0.007546      5.396420      0.000000
ITEM: ATOMS id type xs ys zs
     1     1      0.047913      0.989576      0.975679
     2     1      0.295822      0.240834      0.986712
     3     1      0.274786      0.412706      0.151169
     4     1      0.025428      0.160288      0.149970
     5     1      0.968819      0.014933      0.320652
     6     1      0.221282      0.264885      0.318966
     7     1      0.207400      0.444492      0.485664
     8     1      0.956895      0.193887      0.485654
     9     1      0.906737      0.042975      0.655816
    10     1      0.156082      0.293022      0.651800
    11     1      0.323892      0.398341      0.821302
    12     1      0.083103      0.152645      0.819159
    13     1      0.042503      0.489943      0.987028
    14     1      0.294280      0.740114      0.988160
    15     1      0.275625      0.913022      0.150213
    16     1      0.025029      0.662216      0.152309
    17     1      0.971689      0.514851      0.320384
    18     1      0.221363      0.765449      0.320048
    19     1      0.205564      0.942288      0.485237
    20     1      0.956085      0.694067      0.485667
    21     1      0.905989      0.541821      0.652057
    22     1      0.157455      0.790913      0.652392
    23     1      0.324400      0.894182      0.822948
    24     1      0.073964      0.647567      0.821491
    25     1      0.546586      0.990073      0.985735
    26     1      0.792981      0.239545      0.985713
    27     1      0.774671      0.412098      0.151860
    28     1      0.526530      0.162871      0.151504
    29     1      0.471203      0.015927      0.320314
    30     1      0.721766      0.265548      0.320025
    31     1      0.709357      0.442510      0.484939
    32     1      0.453632      0.195070      0.485222
    33     1      0.396981      0.040622      0.660619
    34     1      0.656210      0.290828      0.651033
    35     1      0.820953      0.399191      0.821386
    36     1      0.587685      0.145800      0.820553
    37     1      0.543479      0.490805      0.987439
    38     1      0.794265      0.740118      0.987540
    39     1      0.778155      0.911892      0.151330
    40     1      0.525952      0.661826      0.153097
    41     1      0.471311      0.515517      0.320407
    42     1      0.721984      0.767185      0.320734
    43     1      0.700762      0.950154      0.489846
    44     1      0.457557      0.693339      0.485292
    45     1      0.407788      0.541400      0.652572
    46     1      0.656200      0.790952      0.652241
    47     1      0.823421      0.893075      0.819415
    48     1      0.570743      0.648460      0.822556
ITEM: TIMESTEP
64350
ITEM: NUMBER OF ATOMS
48
ITEM: BOX BOUNDS xy xz yz  pp  pp  pp
     -0.003081      2.203080      0.000000
     -0.005336      3.815850      0.000000
     -0.007546      5.396420      0.000000
ITEM: ATOMS id type xs ys zs
     1     1      0.045312      0.989522      0.980316
     2     1      0.295092      0.241358      0.986954
     3     1      0.274041      0.412364      0.151682
     4     1      0.026683      0.160505      0.150268
     5     1      0.970739      0.014736      0.321326
     6     1      0.221871      0.265881      0.318808
     7     1      0.206407      0.443746      0.485133
     8     1      0.957588      0.192982      0.484042
     9     1      0.904315      0.052077      0.645972
    10     1      0.158735      0.293357      0.651038
    11     1      0.324479      0.398910      0.821579
    12     1      0.087836      0.156032      0.819269
    13     1      0.043415      0.490459      0.987344
    14     1      0.293001      0.739623      0.988088
    15     1      0.275365      0.912557      0.149477
    16     1      0.024243      0.662121      0.152597
    17     1      0.971023      0.514712      0.319774
    18     1      0.221410      0.765678      0.319918
    19     1      0.159193      0.923524      0.501398
    20     1      0.948876      0.684783      0.485106
    21     1      0.906372      0.541173      0.651816
    22     1      0.158594      0.783613      0.660908
    23     1      0.338248      0.895284      0.823541
    24     1      0.071930      0.647408      0.822360
    25     1      0.548206      0.989947      0.986070
    26     1      0.794588      0.240435      0.986590
    27     1      0.774234      0.412952      0.152805
    28     1      0.527042      0.163026      0.151734
    29     1      0.468729      0.015009      0.320491
    30     1      0.721687      0.265925      0.319674
    31     1      0.707115      0.441697      0.484735
    32     1      0.452590      0.192578      0.485575
    33     1      0.398805      0.040674      0.657009
    34     1      0.654797      0.291849      0.651503
    35     1      0.821734      0.399449      0.820911
    36     1      0.584644      0.146956      0.821619
    37     1      0.544812      0.490784      0.987407
    38     1      0.794799      0.741002      0.985923
    39     1      0.777525      0.912146      0.150730
    40     1      0.526217      0.662445      0.152309
    41     1      0.471704      0.516045      0.320272
    42     1      0.721140      0.767427      0.320498
    43     1      0.689552      0.946757      0.487857
    44     1      0.457249      0.693067      0.484950
    45     1      0.408546      0.540820      0.652686
    46     1      0.656895      0.791328      0.652420
    47     1      0.870003      0.914151      0.804361
    48     1      0.572334      0.649086      0.822561
ITEM: TIMESTEP
64400
ITEM: NUMBER OF ATOMS
48
ITEM: BOX BOUNDS xy xz yz  pp  pp  pp
     -0.003081      2.203080      0.000000
     -0.005336      3.815850      0.000000
     -0.007546      5.396420      0.000000
ITEM: ATOMS id type xs ys zs
     1     1      0.045864      0.990898      0.982245
     2     1      0.294875      0.241236      0.986746
     3     1      0.273939      0.412969      0.151928
     4     1      0.027354      0.161170      0.151459
     5     1      0.972406      0.014696      0.321480
     6     1      0.221649      0.266476      0.318944
     7     1      0.205257      0.442627      0.484382
     8     1      0.956883      0.193260      0.482634
     9     1      0.903896      0.050601      0.647273
    10     1      0.159899      0.293429      0.650962
    11     1      0.324942      0.400478      0.821909
    12     1      0.086004      0.154477      0.819272
    13     1      0.042726      0.489932      0.987234
    14     1      0.293554      0.739262      0.988258
    15     1      0.277469      0.913076      0.149529
    16     1      0.024764      0.662895      0.151697
    17     1      0.971413      0.515830      0.319778
    18     1      0.219897      0.765591      0.319605
    19     1      0.173360      0.931982      0.495475
    20     1      0.948748      0.686868      0.508086
    21     1      0.905265      0.536782      0.656174
    22     1      0.160882      0.785283      0.660898
    23     1      0.343533      0.896064      0.823874
    24     1      0.070930      0.646669      0.824361
    25     1      0.547153      0.991218      0.986740
    26     1      0.793732      0.240830      0.987143
    27     1      0.775258      0.412193      0.152710
    28     1      0.526636      0.162982      0.152621
    29     1      0.468066      0.015101      0.320558
    30     1      0.719935      0.266220      0.319569
    31     1      0.705251      0.441034      0.484872
    32     1      0.451267      0.190735      0.485698
    33     1      0.400198      0.040273      0.655415
    34     1      0.654901      0.292242      0.652103
    35     1      0.821225      0.399632      0.821526
    36     1      0.584017      0.147707      0.821412
    37     1      0.544909      0.491548      0.987320
    38     1      0.794403      0.742125      0.984294
    39     1      0.778187      0.912644      0.151315
    40     1      0.527641      0.662584      0.152707
    41     1      0.472887      0.516586      0.320201
    42     1      0.722043      0.766723      0.321062
    43     1      0.685225      0.944088      0.487420
    44     1      0.455209      0.692766      0.485174
    45     1      0.406468      0.538549      0.649072
    46     1      0.658455      0.793981      0.649926
    47     1      0.858846      0.906187      0.810314
    48     1      0.576034      0.648701      0.800309
ITEM: TIMESTEP
64450
ITEM: NUMBER OF ATOMS
48
ITEM: BOX BOUNDS xy xz yz  pp  pp  pp
     -0.003081      2.203080      0.000000
     -0.005336      3.815850      0.000000
     -0.007546      5.396420      0.000000
ITEM: ATOMS id type xs ys zs
     1     1      0.054480      0.990084      0.984766
     2     1      0.297110      0.240467      0.987079
     3     1      0.274829      0.413033      0.151486
     4     1      0.026017      0.162402      0.149943
     5     1      0.971484      0.015720      0.321622
     6     1      0.220316      0.266723      0.318868
     7     1      0.204139      0.440669      0.484755
     8     1      0.955804      0.194102      0.483400
     9     1      0.905211      0.048830      0.648042
    10     1      0.156321      0.294445      0.664778
    11     1      0.328739      0.403796      0.825762
    12     1      0.083745      0.149522      0.823130
    13     1      0.041462      0.489244      0.987733
    14     1      0.295830      0.739765      0.987691
    15     1      0.278374      0.913844      0.150401
    16     1      0.026242      0.663098      0.151337
    17     1      0.971917      0.516468      0.319890
    18     1      0.219583      0.765591      0.320394
    19     1      0.181412      0.935397      0.492971
    20     1      0.947410      0.689459      0.497585
    21     1      0.904554      0.537057      0.656346
    22     1      0.161278      0.787307      0.659435
    23     1      0.288732      0.897165      0.824442
    24     1      0.072767      0.646929      0.825043
    25     1      0.604699      0.992047      0.986147
    26     1      0.798835      0.240497      0.973666
    27     1      0.776353      0.411622      0.151842
    28     1      0.528229      0.162983      0.151884
    29     1      0.466358      0.015418      0.320602
    30     1      0.720572      0.264956      0.319793
    31     1      0.704329      0.440878      0.485152
    32     1      0.451095      0.191294      0.485788
    33     1      0.400819      0.040882      0.654368
    34     1      0.653716      0.291733      0.652203
    35     1      0.823476      0.402118      0.819739
    36     1      0.576724      0.146603      0.817718
    37     1      0.546382      0.492495      0.986734
    38     1      0.792776      0.740825      0.982897
    39     1      0.778041      0.912174      0.152932
    40     1      0.527923      0.663083      0.152422
    41     1      0.472255      0.515959      0.319720
    42     1      0.724194      0.766639      0.322940
    43     1      0.687856      0.943791      0.486315
    44     1      0.452706      0.692152      0.484687
    45     1      0.405524      0.537553      0.647743
    46     1      0.658905      0.794829      0.649500
    47     1      0.842160      0.902690      0.812981
    48     1      0.577647      0.649282      0.811186
ITEM: TIMESTEP
64500
ITEM: NUMBER OF ATOMS
48
ITEM: BOX BOUNDS xy xz yz  pp  pp  pp
     -0.003081      2.203080      0.000000
     -0.005336      3.815850      0.000000
     -0.007546      5.396420      0.000000
ITEM: ATOMS id type xs ys zs
     1     1      0.060994      0.989566      0.985593
     2     1      0.300801      0.241296      0.986703
     3     1      0.277398      0.413530      0.151430
     4     1      0.025261      0.162771      0.149637
     5     1      0.968998      0.016411      0.321134
     6     1      0.219378      0.266296      0.318867
     7     1      0.202968      0.440033      0.484719
     8     1      0.954665      0.193968      0.484025
     9     1      0.905252      0.046050      0.649544
    10     1      0.154412      0.293356      0.658419
    11     1      0.326388      0.403283      0.824142
    12     1      0.078354      0.149713      0.822695
    13     1      0.043263      0.488934      0.987156
    14     1      0.296842      0.739465      0.987665
    15     1      0.281649      0.913428      0.150608
    16     1      0.027163      0.663185      0.151066
    17     1      0.970906      0.516563      0.320051