ITEM: TIMESTEP
64001
ITEM: NUMBER OF ATOMS
48
ITEM: BOX BOUNDS xy xz yz  pp  pp  pp
     -0.003081      2.203080      0.000000
     -0.005336      3.815850      0.000000
     -0.007546      5.396420      0.000000
ITEM: ATOMS id type xs ys zs
     1     1      0.048843      0.988171      0.986952
     2     1      0.293108      0.237246      0.986169
     3     1      0.272301      0.408520      0.151619
     4     1      0.022346      0.159350      0.150370
     5     1      0.967237      0.015360      0.318983
     6     1      0.220278      0.262810      0.318762
     7     1      0.212037      0.443142      0.485106
     8     1      0.959026      0.195673      0.485308
     9     1      0.907596      0.044774      0.651820
    10     1      0.153900      0.294764      0.653649
    11     1      0.322833      0.401164      0.822806
    12     1      0.073638      0.149446      0.821764
    13     1      0.039134      0.487231      0.986989
    14     1      0.292078      0.735992      0.986923
    15     1      0.277817      0.908691      0.151338
    16     1      0.026272      0.657889      0.152780
    17     1      0.972057      0.513361      0.320574
    18     1      0.219344      0.764578      0.320004
    19     1      0.208876      0.943902      0.484308
    20     1      0.963992      0.693051      0.485577
    21     1      0.904805      0.544423      0.652576
    22     1      0.157729      0.794834      0.653373
    23     1      0.329462      0.899259      0.821663
    24     1      0.074031      0.649034      0.821728
    25     1      0.549095      0.987327      0.986189
    26     1      0.791307      0.238169      0.985521
    27     1      0.772714      0.409902      0.153229
    28     1      0.523645      0.159683      0.151448
    29     1      0.467502      0.015839      0.319741
    30     1      0.720878      0.265086      0.320210
    31     1      0.709939      0.444829      0.484614
    32     1      0.459170      0.193539      0.484157
    33     1      0.409082      0.042768      0.650925
    34     1      0.651792      0.294721      0.651295
    35     1      0.823363      0.399344      0.820606
    36     1      0.572503      0.150315      0.820114
    37     1      0.541872      0.488381      0.988010
    38     1      0.794121      0.737839      0.988849
    39     1      0.776410      0.908923      0.152415
    40     1      0.525869      0.659860      0.152696
    41     1      0.469544      0.513518      0.319425
    42     1      0.720570      0.764006      0.320671
    43     1      0.712129      0.943466      0.484060
    44     1      0.462343      0.694506      0.485183
    45     1      0.404554      0.544453      0.653357
    46     1      0.658366      0.793921      0.653162
    47     1      0.828882      0.898691      0.822435
    48     1      0.575754      0.649278      0.822899
ITEM: TIMESTEP
64050
ITEM: NUMBER OF ATOMS
48
ITEM: BOX BOUNDS xy xz yz  pp  pp  pp
     -0.003081      2.203080      0.000000
     -0.005336      3.815850      0.000000
     -0.007546      5.396420      0.000000
ITEM: ATOMS id type xs ys zs
     1     1      0.048268      0.988107      0.987215
     2     1      0.292743      0.238290      0.986772
     3     1      0.272470      0.409448      0.151610
     4     1      0.024368      0.159105      0.151053
     5     1      0.968596      0.014603      0.319275
     6     1      0.219122      0.263695      0.319465
     7     1      0.211022      0.442987      0.485421
     8     1      0.958625      0.195014      0.485087
     9     1      0.906494      0.044328      0.652020
    10     1      0.153502      0.293850      0.653776
    11     1      0.322797      0.400595      0.822637
    12     1      0.073471      0.148841      0.822252
    13     1      0.039649      0.487593      0.987133
    14     1      0.293915      0.737336      0.987367
    15     1      0.278836      0.909711      0.151679
    16     1      0.027592      0.658700      0.152342
    17     1      0.971822      0.513592      0.320459
    18     1      0.220393      0.764182      0.319396
    19     1      0.209441      0.943603      0.483966
    20     1      0.963529      0.693048      0.485359
    21     1      0.904986      0.543716      0.652576
    22     1      0.157677      0.794105      0.652997
    23     1      0.328102      0.898427      0.821403
    24     1      0.072530      0.648489      0.821694
    25     1      0.547180      0.988003      0.986291
    26     1      0.791910      0.237897      0.986146
    27     1      0.773898      0.410510      0.152902
    28     1      0.525362      0.159965      0.151391
    29     1      0.467171      0.015316      0.319763
    30     1      0.719568      0.264761      0.319569
    31     1      0.708981      0.444444      0.484700
    32     1      0.459909      0.192805      0.484411
    33     1      0.408171      0.042329      0.651269
    34     1      0.653454      0.294208      0.651366
    35     1      0.823534      0.399121      0.820552
    36     1      0.573741      0.149883      0.820416
    37     1      0.541990      0.488338      0.987545
    38     1      0.792341      0.737448      0.987991
    39     1      0.777104      0.908925      0.152064
    40     1      0.526016      0.660000      0.152057
    41     1      0.470091      0.514455      0.319469
    42     1      0.720562      0.763971      0.319998
    43     1      0.712036      0.943335      0.484585
    44     1      0.462004      0.693573      0.484858
    45     1      0.405007      0.543785      0.652806
    46     1      0.657956      0.793378      0.652504
    47     1      0.827356      0.898978      0.822453
    48     1      0.575477      0.649771      0.822319
ITEM: TIMESTEP
64100
ITEM: NUMBER OF ATOMS
48
ITEM: BOX BOUNDS xy xz yz  pp  pp  pp
     -0.003081      2.203080      0.000000
     -0.005336      3.815850      0.000000
     -0.007546      5.396420      0.000000
ITEM: ATOMS id type xs ys zs
     1     1      0.049298      0.988716      0.987018
     2     1      0.291563      0.238934      0.986627
     3     1      0.274792      0.409473      0.151774
     4     1      0.025179      0.158141      0.151200
     5     1      0.969517      0.014766      0.319707
     6     1      0.219851      0.263767      0.319177
     7     1      0.210633      0.442668      0.485517
     8     1      0.958235      0.194076      0.484685
     9     1      0.907190      0.043619      0.652242
    10     1      0.154153      0.293134      0.654111
    11     1      0.322360      0.401125      0.822507
    12     1      0.072593      0.149164      0.822023
    13     1      0.041478      0.487863      0.987309
    14     1      0.293620      0.737440      0.987190
    15     1      0.278343      0.909821      0.151688
    16     1      0.028092      0.659469      0.152342
    17     1      0.971993      0.514092      0.320440
    18     1      0.220879      0.764628      0.319635
    19     1      0.208740      0.942584      0.483429
    20     1      0.962475      0.691753      0.485704
    21     1      0.904180      0.543148      0.652886
    22     1      0.156530      0.793539      0.652684
    23     1      0.327411      0.898716      0.821264
    24     1      0.072911      0.649806      0.822076
    25     1      0.546679      0.988500      0.986159
    26     1      0.793501      0.237884      0.986665
    27     1      0.774627      0.409939      0.152930
    28     1      0.525561      0.159736      0.151250
    29     1      0.469288      0.015550      0.319955
    30     1      0.719863      0.264436      0.320059
    31     1      0.708035      0.443519      0.484700
    32     1      0.458724      0.192391      0.484480
    33     1      0.407248      0.042018      0.651416
    34     1      0.653343      0.293445      0.651701
    35     1      0.822843      0.399615      0.820653
    36     1      0.573085      0.150221      0.821259
    37     1      0.542638      0.487667      0.987873
    38     1      0.794507      0.738020      0.987718
    39     1      0.777405      0.909397      0.151885
    40     1      0.527707      0.660416      0.151755
    41     1      0.470327      0.514688      0.319660
    42     1      0.720745      0.764293      0.319975
    43     1      0.711591      0.942898      0.484432
    44     1      0.459906      0.693472      0.484717
    45     1      0.404985      0.543123      0.652955
    46     1      0.658472      0.792091      0.652777
    47     1      0.827247      0.899458      0.822260
    48     1      0.574771      0.649316      0.822291
ITEM: TIMESTEP
64150
ITEM: NUMBER OF ATOMS
48
ITEM: BOX BOUNDS xy xz yz  pp  pp  pp
     -0.003081      2.203080      0.000000
     -0.005336      3.815850      0.000000
     -0.007546      5.396420      0.000000
ITEM: ATOMS id type xs ys zs
     1     1      0.048073      0.988395      0.987170
     2     1      0.292317      0.239235      0.986668
     3     1      0.275033      0.409409      0.152689
     4     1      0.026365      0.159464      0.151802
     5     1      0.970077      0.015100      0.319721
     6     1      0.219332      0.263805      0.319988
     7     1      0.211020      0.443251      0.485572
     8     1      0.956619      0.232211      0.511250
     9     1      0.906665      0.042121      0.652311
    10     1      0.158614      0.293185      0.655119
    11     1      0.320553      0.400889      0.822574
    12     1      0.073711      0.148826      0.822139
    13     1      0.041991      0.488710      0.987367
    14     1      0.295341      0.739029      0.987372
    15     1      0.277928      0.909562      0.152299
    16     1      0.028712      0.659793      0.152148
    17     1      0.972202      0.514444      0.320599
    18     1      0.221214      0.764615      0.320030
    19     1      0.208900      0.941949      0.484958
    20     1      0.961774      0.691610      0.484941
    21     1      0.904378      0.542841      0.652481
    22     1      0.158028      0.792899      0.652762
    23     1      0.327047      0.898512      0.821337
    24     1      0.072534      0.650165      0.822415
    25     1      0.546197      0.988667      0.986914
    26     1      0.792706      0.238804      0.986416
    27     1      0.775400      0.409404      0.152805
    28     1      0.525282      0.159630      0.151363
    29     1      0.471431      0.015177      0.320130
    30     1      0.719707      0.264584      0.319767
    31     1      0.707700      0.444176      0.485441
    32     1      0.459111      0.192163      0.484777
    33     1      0.406863      0.042049      0.652307
    34     1      0.650310      0.291641      0.649778
    35     1      0.825310      0.361639      0.794809
    36     1      0.571212      0.150087      0.821707
    37     1      0.543660      0.488311      0.987378
    38     1      0.794211      0.738277      0.987547
    39     1      0.777681      0.910021      0.152199
    40     1      0.528157      0.660724      0.152257
    41     1      0.471689      0.514444      0.319919
    42     1      0.722521      0.764292      0.320108
    43     1      0.709503      0.941554      0.485298
    44     1      0.459200      0.692338      0.484774
    45     1      0.405163      0.542699      0.652707
    46     1      0.658361      0.791822      0.652855
    47     1      0.826086      0.899075      0.822125
    48     1      0.574107      0.648903      0.822047
ITEM: TIMESTEP
64200
ITEM: NUMBER OF ATOMS
48
ITEM: BOX BOUNDS xy xz yz  pp  pp  pp
     -0.003081      2.203080      0.000000
     -0.005336      3.815850      0.000000
     -0.007546      5.396420      0.000000
ITEM: ATOMS id type xs ys zs
     1     1      0.045700      0.988437      0.987410
     2     1      0.292116      0.239108      0.987663
     3     1      0.274793      0.409183      0.153867
     4     1      0.027798      0.160948      0.153371
     5     1      0.971734      0.016716      0.320541
     6     1      0.248556      0.268282      0.330697
     7     1      0.212421      0.446334      0.485138
     8     1      0.946771      0.216414      0.497321
     9     1      0.904069      0.042522      0.652176
    10     1      0.146273      0.294525      0.659981
    11     1      0.319371      0.397147      0.823603
    12     1      0.078407      0.142491      0.822809
    13     1      0.042437      0.487624      0.986132
    14     1      0.296901      0.738817      0.986735
    15     1      0.279078      0.909640      0.152050
    16     1      0.027708      0.658865      0.152007
    17     1      0.971559      0.513773      0.321286
    18     1      0.220627      0.764647      0.319891
    19     1      0.204259      0.943248      0.485633
    20     1      0.964758      0.696890      0.485512
    21     1      0.914040      0.545857      0.657203
    22     1      0.158148      0.792138      0.652804
    23     1      0.326665      0.896572      0.822008
    24     1      0.074256      0.649282      0.822590
    25     1      0.545973      0.989095      0.986654
    26     1      0.793698      0.239919      0.985642
    27     1      0.775181      0.409758      0.152342
    28     1      0.527964      0.160010      0.151904
    29     1      0.472315      0.013055      0.319770
    30     1      0.733849      0.264466      0.320794
    31     1      0.702431      0.471757      0.497595
    32     1      0.460995      0.177380      0.483563
    33     1      0.405507      0.040356      0.652643
    34     1      0.614029      0.295544      0.638561
    35     1      0.828127      0.375920      0.805156
    36     1      0.569465      0.146472      0.820753
    37     1      0.543748      0.489298      0.987271
    38     1      0.792635      0.737729      0.986286
    39     1      0.779180      0.910646      0.152192
    40     1      0.527208      0.660449      0.152024
    41     1      0.475210      0.515055      0.320301
    42     1      0.721413      0.764678      0.320423
    43     1      0.711670      0.941623      0.484759
    44     1      0.452866      0.699474      0.484169
    45     1      0.393405      0.543277      0.647161
    46     1      0.657978      0.792278      0.651917
    47     1      0.823698      0.897834      0.821522
    48     1      0.589313      0.621621      0.807401
ITEM: TIMESTEP
64250
ITEM: NUMBER OF ATOMS
48
ITEM: BOX BOUNDS xy xz yz  pp  pp  pp
     -0.003081      2.203080      0.000000
     -0.005336      3.815850      0.000000
     -0.007546      5.396420      0.000000
ITEM: ATOMS id type xs ys zs
     1     1      0.046849      0.987908      0.987843
     2     1      0.293049      0.238886      0.988182
     3     1      0.275020      0.410460      0.153769
     4     1      0.029482      0.161764      0.153513
     5     1      0.973642      0.017416      0.320706
     6     1      0.236123      0.266923      0.325719
     7     1      0.210994      0.446005      0.485394
     8     1      0.947694      0.209915      0.493181
     9     1      0.902817      0.043791      0.652653
    10     1      0.141368      0.294614      0.658764
    11     1      0.321431      0.396713      0.823257
    12     1      0.078892      0.141787      0.823037
    13     1      0.041739      0.487508      0.985175
    14     1      0.294758      0.739838      0.986499
    15     1      0.277590      0.910415      0.152092
    16     1      0.027851      0.660097      0.152214
    17     1      0.971768      0.514208      0.320604
    18     1      0.220651      0.764956      0.319175
    19     1      0.203158      0.944733      0.485543
    20     1      0.963657      0.696142      0.485727
    21     1      0.909407      0.545100      0.655803
    22     1      0.156862      0.792811      0.653006
    23     1      0.327771      0.895522      0.822221
    24     1      0.080036      0.648634      0.822924
    25     1      0.547126      0.990053      0.987584
    26     1      0.792599      0.239738      0.985968
    27     1      0.775526      0.410955      0.152475
    28     1      0.528152      0.160039      0.152536
    29     1      0.472274      0.013186      0.319455
    30     1      0.734081      0.264863      0.321288
    31     1      0.702374      0.462824      0.491341
    32     1      0.459368      0.181763      0.483457
    33     1      0.404322      0.040072      0.652913
    34     1      0.626123      0.294894      0.644014
    35     1      0.828644      0.381807      0.810506
    36     1      0.570612      0.146322      0.819985
    37     1      0.543324      0.488622      0.986461
    38     1      0.791903      0.737287      0.985612
    39     1      0.779211      0.910370      0.151986
    40     1      0.527363      0.661293      0.151927
    41     1      0.476062      0.516298      0.320544
    42     1      0.720983      0.764520      0.320565
    43     1      0.713164      0.942304      0.484361
    44     1      0.454487      0.700301      0.484318
    45     1      0.396871      0.543902      0.649212
    46     1      0.657757      0.791830      0.651807
    47     1      0.823642      0.896453      0.821280
    48     1      0.591811      0.630360      0.813706
ITEM: TIMESTEP
64300
ITEM: NUMBER OF ATOMS
48
ITEM: BOX BOUNDS xy xz yz  pp  pp  pp
     -0.003081      2.203080      0.000000
     -0.005336      3.815850      0.000000
     -0.007546      5.396420      0.000000
ITEM: ATOMS id type xs ys zs
     1     1      0.045000      0.988440      0.987821
     2     1      0.293001      0.238919      0.987903
     3     1      0.274803      0.410918      0.153513
     4     1      0.028689      0.161676      0.152986
     5     1      0.973207      0.017855      0.320593
     6     1      0.231003      0.266918      0.323029
     7     1      0.209749      0.444697      0.485536
     8     1      0.950594      0.204170      0.491123
     9     1      0.901214      0.043421      0.653157
    10     1      0.141244      0.293673      0.657719
    11     1      0.325482      0.396761      0.822966
    12     1      0.077319      0.142150      0.823257
    13     1      0.042118      0.487023      0.985039
    14     1      0.295224      0.739445      0.987107
    15     1      0.278609      0.910209      0.151592
    16     1      0.026926      0.660112      0.151203
    17     1      0.974730      0.514735      0.320772
    18     1      0.220672      0.765644      0.319061
    19     1      0.203500      0.944643      0.485623
    20     1      0.962025      0.695484      0.485722
    21     1      0.906813      0.545870      0.655047
    22     1      0.155933      0.793178      0.653203
    23     1      0.327860      0.894631      0.822383
    24     1      0.081434      0.647764      0.823192
    25     1      0.546290      0.989567      0.987329
    26     1      0.792895      0.239406      0.985546
    27     1      0.775220      0.411142      0.152740
    28     1      0.529446      0.160676      0.153060
    29     1      0.471441      0.012945      0.318980
    30     1      0.730222      0.265071      0.321626
    31     1      0.704019      0.456197      0.488620
    32     1      0.457487      0.185075      0.483953
    33     1      0.403457      0.039684      0.653034
    34     1      0.631971      0.293778      0.646967
    35     1      0.830689      0.385544      0.814131
    36     1      0.572035      0.146398      0.819844
    37     1      0.543369      0.488994      0.987022
    38     1      0.793310      0.737513      0.985673
    39     1      0.779317      0.910943      0.152202
    40     1      0.527575      0.660995      0.151749
    41     1      0.476298      0.515725      0.320320
    42     1      0.721625      0.763865      0.319613
    43     1      0.711900      0.943439      0.484621
    44     1      0.455088      0.700221      0.484539
    45     1      0.398734      0.543349      0.650824
    46     1      0.656296      0.791516      0.652024
    47     1      0.824166      0.895646      0.821146
    48     1      0.590435      0.635882      0.816899
ITEM: TIMESTEP
64350
ITEM: NUMBER OF ATOMS
48
ITEM: BOX BOUNDS xy xz yz  pp  pp  pp
     -0.003081      2.203080      0.000000
     -0.005336      3.815850      0.000000
     -0.007546      5.396420      0.000000
ITEM: ATOMS id type xs ys zs
     1     1      0.045454      0.987568      0.987808
     2     1      0.294334      0.238987      0.988144
     3     1      0.275601      0.411057      0.152896
     4     1      0.028676      0.161706      0.152743
     5     1      0.973836      0.016854      0.321381
     6     1      0.225856      0.266304      0.321901
     7     1      0.206137      0.442517      0.487323
     8     1      0.952885      0.199999      0.488634
     9     1      0.900763      0.043593      0.653173
    10     1      0.142925      0.293290      0.657006
    11     1      0.327090      0.396399      0.822480
    12     1      0.078099      0.142921      0.823545
    13     1      0.042429      0.487428      0.985579
    14     1      0.295655      0.738939      0.987300
    15     1      0.279897      0.910249      0.151751
    16     1      0.026084      0.660717      0.151381
    17     1      0.974717      0.515117      0.320169
    18     1      0.220941      0.765705      0.319474
    19     1      0.204941      0.945349      0.485406
    20     1      0.960649      0.695052      0.485833
    21     1      0.905164      0.544327      0.654344
    22     1      0.154590      0.793735      0.652931
    23     1      0.329804      0.894615      0.822251
    24     1      0.080931      0.647245      0.822846
    25     1      0.546636      0.989900      0.986787
    26     1      0.793568      0.239361      0.986054
    27     1      0.775231      0.411189      0.152346
    28     1      0.529088      0.160850      0.152500
    29     1      0.472709      0.012754      0.318761
    30     1      0.726423      0.265409      0.320919
    31     1      0.711902      0.453385      0.487726
    32     1      0.453701      0.184984      0.480393
    33     1      0.402606      0.040378      0.653099
    34     1      0.639351      0.293357      0.627377
    35     1      0.829367      0.387901      0.815731
    36     1      0.575205      0.146471      0.820127
    37     1      0.542845      0.489063      0.986741
    38     1      0.793859      0.738961      0.985717
    39     1      0.779068      0.910446      0.151921
    40     1      0.527450      0.661063      0.152017
    41     1      0.471389      0.517199      0.341975
    42     1      0.723649      0.764226      0.319893
    43     1      0.709420      0.942767      0.484175
    44     1      0.454585      0.699442      0.485558
    45     1      0.399725      0.543868      0.651255
    46     1      0.655534      0.791310      0.651931
    47     1      0.824314      0.896200      0.821234
    48     1      0.589046      0.639623      0.818397
ITEM: TIMESTEP
64400
ITEM: NUMBER OF ATOMS
48
ITEM: BOX BOUNDS xy xz yz  pp  pp  pp
     -0.003081      2.203080      0.000000
     -0.005336      3.815850      0.000000
     -0.007546      5.396420      0.000000
ITEM: ATOMS id type xs ys zs
     1     1      0.045935      0.987300      0.987386
     2     1      0.296721      0.237885      0.988910
     3     1      0.279274      0.415965      0.169126
     4     1      0.029292      0.161874      0.152180
     5     1      0.972856      0.016580      0.320755
     6     1      0.213007      0.263820      0.321452
     7     1      0.204873      0.440990      0.488818
     8     1      0.954040      0.196386      0.487249
     9     1      0.900296      0.042900      0.653276
    10     1      0.144245      0.292457      0.655840
    11     1      0.313478      0.396950      0.822681
    12     1      0.077440      0.144424      0.823093
    13     1      0.081267      0.487288      0.987462
    14     1      0.298595      0.740493      0.986966
    15     1      0.280015      0.910610      0.150989
    16     1      0.026279      0.660586      0.151353
    17     1      0.973578      0.515974      0.320545
    18     1      0.220437      0.766291      0.319599
    19     1      0.203366      0.944237      0.485568
    20     1      0.959819      0.694523      0.485778
    21     1      0.903321      0.543000      0.654821
    22     1      0.154288      0.793301      0.653050
    23     1      0.328773      0.895635      0.821743
    24     1      0.080791      0.646280      0.822480
    25     1      0.545502      0.989158      0.986425
    26     1      0.797820      0.239517      0.986299
    27     1      0.777739      0.412193      0.151795
    28     1      0.529372      0.161498      0.152673
    29     1      0.473751      0.010859      0.316326
    30     1      0.726757      0.268138      0.318457
    31     1      0.714613      0.451336      0.486824
    32     1      0.460434      0.184052      0.468538
    33     1      0.401885      0.041871      0.651704
    34     1      0.639634      0.289200      0.637500
    35     1      0.792040      0.390589      0.816132
    36     1      0.574735      0.144729      0.819596
    37     1      0.559105      0.488759      0.986825
    38     1      0.795911      0.737730      0.986134
    39     1      0.778520      0.911160      0.152276
    40     1      0.526781      0.659776      0.153319
    41     1      0.469623      0.519580      0.332293
    42     1      0.722586      0.764816      0.319802
    43     1      0.709723      0.942461      0.484092
    44     1      0.453828      0.697545      0.486375
    45     1      0.403216      0.543116      0.652541
    46     1      0.654757      0.791598      0.651848
    47     1      0.825606      0.896356      0.821275
    48     1      0.584512      0.643497      0.819358
ITEM: TIMESTEP
64450
ITEM: NUMBER OF ATOMS
48
ITEM: BOX BOUNDS xy xz yz  pp  pp  pp
     -0.003081      2.203080      0.000000
     -0.005336      3.815850      0.000000
     -0.007546      5.396420      0.000000
ITEM: ATOMS id type xs ys zs
     1     1      0.046622      0.987798      0.987209
     2     1      0.299915      0.237597      0.988332
     3     1      0.279442      0.415490      0.161937
     4     1      0.029788      0.162505      0.151383
     5     1      0.971871      0.016780      0.320222
     6     1      0.214360      0.264480      0.321100
     7     1      0.206980      0.440284      0.488007
     8     1      0.953051      0.194794      0.486191
     9     1      0.900930      0.042261      0.653398
    10     1      0.142712      0.292253      0.655112
    11     1      0.313806      0.397190      0.822632
    12     1      0.076627      0.145287      0.822899
    13     1      0.067332      0.487909      0.987721
    14     1      0.300548      0.740168      0.987183
    15     1      0.279389      0.910554      0.150733
    16     1      0.027583      0.661122      0.151335
    17     1      0.972978      0.516946      0.320600
    18     1      0.221268      0.766790      0.319502
    19     1      0.203016      0.943458      0.485318
    20     1      0.958455      0.694178      0.485950
    21     1      0.902224      0.542854      0.654019
    22     1      0.155359      0.792153      0.653052
    23     1      0.328704      0.895443      0.820933
    24     1      0.078288      0.647065      0.822432
    25     1      0.547412      0.988878      0.986708
    26     1      0.799271      0.239701      0.985598
    27     1      0.780692      0.412990      0.151629
    28     1      0.529184      0.162191      0.152270
    29     1      0.473207      0.012540      0.317294
    30     1      0.722800      0.268774      0.318058
    31     1      0.711817      0.449121      0.486769
    32     1      0.459247      0.186454      0.475230
    33     1      0.400350      0.041841      0.650319
    34     1      0.642138      0.287671      0.642261
    35     1      0.805011      0.391766      0.816341
    36     1      0.576098      0.144975      0.819049
    37     1      0.559290      0.488131      0.986250
    38     1      0.797297      0.737967      0.986832
    39     1      0.778921      0.911481      0.152140
    40     1      0.528195      0.660465      0.153262
    41     1      0.469739      0.519417      0.328163
    42     1      0.722922      0.765012      0.320135
    43     1      0.708232      0.941852      0.484308
    44     1      0.453591      0.695769      0.487142
    45     1      0.402625      0.542052      0.653103
    46     1      0.656729      0.792033      0.652504
    47     1      0.827730      0.897007      0.821014
    48     1      0.581103      0.646105      0.820236
ITEM: TIMESTEP
64500
ITEM: NUMBER OF ATOMS
48
ITEM: BOX BOUNDS xy xz yz  pp  pp  pp
     -0.003081      2.203080      0.000000
     -0.005336      3.815850      0.000000
     -0.007546      5.396420      0.000000
ITEM: ATOMS id type xs ys zs
     1     1      0.047720      0.988178      0.986877
     2     1      0.300423      0.237974      0.987992
     3     1      0.281685      0.415330      0.158720
     4     1      0.029590      0.162425      0.151307
     5     1      0.970560      0.016685      0.320195
     6     1      0.215738      0.265086      0.320197
     7     1      0.206909      0.439457      0.487436
     8     1      0.953478      0.193650      0.486041
     9     1      0.900478      0.041405      0.652940
    10     1      0.142665      0.292361      0.655041
    11     1      0.315437      0.397196      0.823482
    12     1      0.076384      0.145260      0.822696
    13     1      0.061774      0.487061      0.987907
    14     1      0.301026      0.739210      0.986653
    15     1      0.278956      0.911353      0.151052
    16     1      0.028976      0.661722      0.151724
    17     1      0.973001      0.517140      0.320585