ITEM: TIMESTEP
64001
ITEM: NUMBER OF ATOMS
48
ITEM: BOX BOUNDS xy xz yz  pp  pp  pp
     -0.003081      2.203080      0.000000
     -0.005336      3.815850      0.000000
     -0.007546      5.396420      0.000000
ITEM: ATOMS id type xs ys zs
     1     1      0.048805      0.988055      0.986990
     2     1      0.293135      0.237179      0.986143
     3     1      0.272434      0.408640      0.151556
     4     1      0.022429      0.159223      0.150442
     5     1      0.967270      0.015461      0.319061
     6     1      0.220564      0.262823      0.318680
     7     1      0.211967      0.443187      0.484970
     8     1      0.958947      0.195876      0.485179
     9     1      0.907801      0.044437      0.651690
    10     1      0.153905      0.294604      0.653553
    11     1      0.322597      0.401066      0.822867
    12     1      0.073801      0.149294      0.821755
    13     1      0.039023      0.487176      0.987091
    14     1      0.291980      0.735783      0.986899
    15     1      0.277841      0.908761      0.151159
    16     1      0.026272      0.657988      0.152757
    17     1      0.972053      0.513463      0.320750
    18     1      0.219356      0.764623      0.319776
    19     1      0.208906      0.943865      0.484256
    20     1      0.963638      0.693057      0.485656
    21     1      0.904621      0.544282      0.652469
    22     1      0.157815      0.794811      0.653190
    23     1      0.329343      0.899218      0.821529
    24     1      0.073760      0.649287      0.821739
    25     1      0.549014      0.987183      0.986178
    26     1      0.791491      0.238003      0.985455
    27     1      0.772770      0.410034      0.153176
    28     1      0.523611      0.159510      0.151557
    29     1      0.468017      0.016010      0.319945
    30     1      0.720783      0.264844      0.320219
    31     1      0.709885      0.444773      0.484583
    32     1      0.459165      0.193490      0.484238
    33     1      0.408891      0.042796      0.650940
    34     1      0.652018      0.294803      0.651282
    35     1      0.823418      0.399438      0.820589
    36     1      0.572375      0.150222      0.820055
    37     1      0.541832      0.488551      0.987941
    38     1      0.794266      0.737995      0.988922
    39     1      0.776444      0.909123      0.152355
    40     1      0.525975      0.659961      0.152943
    41     1      0.469592      0.513496      0.319436
    42     1      0.720397      0.764065      0.320554
    43     1      0.712089      0.943279      0.484046
    44     1      0.461942      0.694482      0.485102
    45     1      0.404322      0.544566      0.653246
    46     1      0.658568      0.793616      0.653202
    47     1      0.829018      0.898791      0.822415
    48     1      0.575779      0.649319      0.822959
ITEM: TIMESTEP
64050
ITEM: NUMBER OF ATOMS
48
ITEM: BOX BOUNDS xy xz yz  pp  pp  pp
     -0.003081      2.203080      0.000000
     -0.005336      3.815850      0.000000
     -0.007546      5.396420      0.000000
ITEM: ATOMS id type xs ys zs
     1     1      0.048018      0.988395      0.987079
     2     1      0.294832      0.238865      0.986131
     3     1      0.274158      0.409391      0.152010
     4     1      0.024024      0.159338      0.150952
     5     1      0.968132      0.015705      0.319993
     6     1      0.220636      0.263214      0.318676
     7     1      0.212881      0.442498      0.484683
     8     1      0.959977      0.194886      0.485658
     9     1      0.907029      0.043406      0.652021
    10     1      0.154669      0.294343      0.653328
    11     1      0.322198      0.400509      0.822571
    12     1      0.073767      0.149853      0.821944
    13     1      0.039908      0.487236      0.987138
    14     1      0.294322      0.736986      0.986815
    15     1      0.277622      0.909699      0.151754
    16     1      0.027040      0.658613      0.152775
    17     1      0.971457      0.514066      0.320638
    18     1      0.220980      0.763863      0.320115
    19     1      0.208702      0.942914      0.483841
    20     1      0.962517      0.692582      0.485195
    21     1      0.904851      0.543567      0.652785
    22     1      0.155895      0.794417      0.652993
    23     1      0.326593      0.898685      0.821533
    24     1      0.072815      0.649437      0.822030
    25     1      0.547268      0.987439      0.985885
    26     1      0.792496      0.238188      0.986470
    27     1      0.774744      0.409925      0.153281
    28     1      0.524274      0.159681      0.151858
    29     1      0.468519      0.014554      0.319503
    30     1      0.721482      0.264310      0.320337
    31     1      0.711585      0.443652      0.484561
    32     1      0.460888      0.192818      0.484068
    33     1      0.407875      0.042586      0.651190
    34     1      0.652778      0.294524      0.651535
    35     1      0.821933      0.399013      0.820817
    36     1      0.573372      0.149793      0.820536
    37     1      0.542771      0.488621      0.987969
    38     1      0.795121      0.738605      0.988368
    39     1      0.776933      0.909994      0.152538
    40     1      0.525490      0.660000      0.152533
    41     1      0.470253      0.513731      0.319878
    42     1      0.721719      0.764301      0.320199
    43     1      0.711237      0.941925      0.484620
    44     1      0.460324      0.693879      0.485053
    45     1      0.403694      0.544516      0.653806
    46     1      0.658674      0.793217      0.653459
    47     1      0.827509      0.899030      0.821991
    48     1      0.573679      0.649568      0.822706
ITEM: TIMESTEP
64100
ITEM: NUMBER OF ATOMS
48
ITEM: BOX BOUNDS xy xz yz  pp  pp  pp
     -0.003081      2.203080      0.000000
     -0.005336      3.815850      0.000000
     -0.007546      5.396420      0.000000
ITEM: ATOMS id type xs ys zs
     1     1      0.047006      0.989411      0.986386
     2     1      0.296019      0.238829      0.986246
     3     1      0.275483      0.409413      0.151878
     4     1      0.025414      0.160335      0.151136
     5     1      0.968658      0.015543      0.319820
     6     1      0.220962      0.263599      0.319197
     7     1      0.210505      0.441963      0.484892
     8     1      0.959526      0.193514      0.484785
     9     1      0.906116      0.044027      0.651701
    10     1      0.153078      0.293799      0.652948
    11     1      0.321979      0.400792      0.822498
    12     1      0.074011      0.149879      0.821663
    13     1      0.040853      0.488047      0.987394
    14     1      0.293642      0.737879      0.987182
    15     1      0.277563      0.910694      0.151428
    16     1      0.026488      0.658345      0.152399
    17     1      0.971366      0.513045      0.320637
    18     1      0.221166      0.764029      0.319564
    19     1      0.208116      0.942657      0.484395
    20     1      0.960590      0.692430      0.484989
    21     1      0.904741      0.543342      0.653004
    22     1      0.155767      0.793361      0.653115
    23     1      0.326648      0.898982      0.821157
    24     1      0.072961      0.648715      0.822570
    25     1      0.545923      0.988166      0.986150
    26     1      0.792859      0.238242      0.986265
    27     1      0.775417      0.409357      0.153154
    28     1      0.524558      0.160460      0.152169
    29     1      0.469772      0.013809      0.319590
    30     1      0.721547      0.264054      0.320621
    31     1      0.708949      0.443566      0.484672
    32     1      0.459397      0.192809      0.483678
    33     1      0.407657      0.042520      0.650702
    34     1      0.652964      0.293382      0.651922
    35     1      0.823025      0.398905      0.821055
    36     1      0.571750      0.149914      0.820841
    37     1      0.544743      0.488755      0.987384
    38     1      0.794767      0.738993      0.987876
    39     1      0.776638      0.910035      0.152065
    40     1      0.526154      0.660748      0.152228
    41     1      0.471242      0.513855      0.320075
    42     1      0.722061      0.764444      0.319967
    43     1      0.709049      0.941711      0.484232
    44     1      0.460174      0.692941      0.485611
    45     1      0.404206      0.543970      0.653536
    46     1      0.657165      0.792891      0.652753
    47     1      0.826054      0.899538      0.821686
    48     1      0.573550      0.650182      0.822552
ITEM: TIMESTEP
64150
ITEM: NUMBER OF ATOMS
48
ITEM: BOX BOUNDS xy xz yz  pp  pp  pp
     -0.003081      2.203080      0.000000
     -0.005336      3.815850      0.000000
     -0.007546      5.396420      0.000000
ITEM: ATOMS id type xs ys zs
     1     1      0.046327      0.989241      0.987008
     2     1      0.295512      0.239427      0.986568
     3     1      0.276082      0.410400      0.151506
     4     1      0.025251      0.161176      0.151754
     5     1      0.969349      0.014654      0.319737
     6     1      0.220583      0.264073      0.319401
     7     1      0.210556      0.441656      0.485175
     8     1      0.958568      0.191824      0.484626
     9     1      0.906683      0.043304      0.652023
    10     1      0.153764      0.293197      0.653132
    11     1      0.321570      0.400618      0.822505
    12     1      0.073216      0.149700      0.821724
    13     1      0.043285      0.488280      0.987332
    14     1      0.294385      0.738798      0.987292
    15     1      0.277294      0.910182      0.152033
    16     1      0.025825      0.658984      0.151748
    17     1      0.971789      0.513694      0.320397
    18     1      0.222084      0.763763      0.319551
    19     1      0.208501      0.942155      0.484693
    20     1      0.960146      0.692621      0.485253
    21     1      0.905711      0.542809      0.652562
    22     1      0.153513      0.793105      0.652918
    23     1      0.324785      0.899820      0.821219
    24     1      0.073316      0.649977      0.822263
    25     1      0.544901      0.988748      0.986625
    26     1      0.793822      0.238937      0.986274
    27     1      0.775997      0.410551      0.152541
    28     1      0.526224      0.161235      0.151799
    29     1      0.470175      0.013958      0.319603
    30     1      0.719758      0.264718      0.320095
    31     1      0.708735      0.443005      0.484639
    32     1      0.459305      0.192428      0.483686
    33     1      0.408613      0.042749      0.650720
    34     1      0.653606      0.292584      0.652360
    35     1      0.821692      0.399816      0.821243
    36     1      0.571752      0.149644      0.820957
    37     1      0.545380      0.489565      0.987388
    38     1      0.795010      0.739399      0.987529
    39     1      0.777306      0.910192      0.151581
    40     1      0.526703      0.660965      0.151982
    41     1      0.472032      0.514396      0.320115
    42     1      0.720023      0.764135      0.320088
    43     1      0.707615      0.942516      0.484542
    44     1      0.460557      0.692337      0.485454
    45     1      0.404765      0.543360      0.654250
    46     1      0.656389      0.792916      0.652741
    47     1      0.824842      0.899591      0.821560
    48     1      0.574200      0.650817      0.822608
ITEM: TIMESTEP
64200
ITEM: NUMBER OF ATOMS
48
ITEM: BOX BOUNDS xy xz yz  pp  pp  pp
     -0.003081      2.203080      0.000000
     -0.005336      3.815850      0.000000
     -0.007546      5.396420      0.000000
ITEM: ATOMS id type xs ys zs
     1     1      0.045910      0.988934      0.986789
     2     1      0.294574      0.239173      0.986774
     3     1      0.276859      0.410588      0.151607
     4     1      0.025400      0.160631      0.151596
     5     1      0.970557      0.014650      0.320042
     6     1      0.220983      0.264361      0.318731
     7     1      0.209532      0.441814      0.485598
     8     1      0.958898      0.191869      0.484534
     9     1      0.906958      0.043252      0.652591
    10     1      0.154420      0.292824      0.652817
    11     1      0.320335      0.400772      0.822348
    12     1      0.074229      0.149615      0.822026
    13     1      0.044823      0.489621      0.987062
    14     1      0.294196      0.739446      0.986908
    15     1      0.277107      0.910085      0.151735
    16     1      0.027090      0.659736      0.152588
    17     1      0.969356      0.513903      0.320141
    18     1      0.223014      0.764340      0.319388
    19     1      0.207902      0.941745      0.484554
    20     1      0.960840      0.692275      0.484591
    21     1      0.905869      0.542990      0.652727
    22     1      0.154711      0.793190      0.652684
    23     1      0.324869      0.899599      0.821813
    24     1      0.071647      0.650428      0.821895
    25     1      0.544568      0.989907      0.986760
    26     1      0.792398      0.239747      0.986533
    27     1      0.776497      0.410304      0.152332
    28     1      0.526582      0.160890      0.151610
    29     1      0.470314      0.014424      0.319593
    30     1      0.719497      0.264381      0.319948
    31     1      0.708419      0.441813      0.485134
    32     1      0.458329      0.192321      0.483958
    33     1      0.407228      0.042221      0.651053
    34     1      0.654290      0.292800      0.652360
    35     1      0.822547      0.400735      0.821434
    36     1      0.572014      0.150062      0.820686
    37     1      0.545579      0.489839      0.987555
    38     1      0.794619      0.739788      0.987381
    39     1      0.777787      0.910905      0.151984
    40     1      0.527732      0.661142      0.152131
    41     1      0.469723      0.515467      0.320039
    42     1      0.720913      0.765761      0.320041
    43     1      0.707439      0.942679      0.484157
    44     1      0.459052      0.692041      0.485555
    45     1      0.405982      0.543318      0.654051
    46     1      0.654665      0.793225      0.652887
    47     1      0.823861      0.899763      0.821949
    48     1      0.573275      0.650510      0.822702
ITEM: TIMESTEP
64250
ITEM: NUMBER OF ATOMS
48
ITEM: BOX BOUNDS xy xz yz  pp  pp  pp
     -0.003081      2.203080      0.000000
     -0.005336      3.815850      0.000000
     -0.007546      5.396420      0.000000
ITEM: ATOMS id type xs ys zs
     1     1      0.045247      0.989802      0.987053
     2     1      0.293837      0.239646      0.986600
     3     1      0.276671      0.410449      0.151681
     4     1      0.026769      0.161234      0.150920
     5     1      0.970533      0.014839      0.319460
     6     1      0.220673      0.264066      0.319096
     7     1      0.208085      0.441697      0.485623
     8     1      0.957968      0.192024      0.485020
     9     1      0.907446      0.042702      0.652487
    10     1      0.156200      0.292046      0.652702
    11     1      0.322087      0.400608      0.822461
    12     1      0.073565      0.149801      0.821838
    13     1      0.044351      0.489450      0.986593
    14     1      0.295121      0.739774      0.986865
    15     1      0.276532      0.911426      0.151778
    16     1      0.027970      0.660213      0.152383
    17     1      0.970099      0.513774      0.320197
    18     1      0.221914      0.763623      0.319958
    19     1      0.207566      0.941296      0.484410
    20     1      0.958695      0.691446      0.484840
    21     1      0.906152      0.542143      0.653045
    22     1      0.155229      0.791589      0.652502
    23     1      0.324886      0.899823      0.821274
    24     1      0.072740      0.650137      0.822181
    25     1      0.546088      0.989868      0.986577
    26     1      0.793864      0.238212      0.986503
    27     1      0.776158      0.411527      0.152459
    28     1      0.527049      0.162249      0.151702
    29     1      0.469793      0.014469      0.318927
    30     1      0.720299      0.264259      0.320115
    31     1      0.708321      0.441764      0.485257
    32     1      0.457229      0.192086      0.484555
    33     1      0.407515      0.041477      0.651351
    34     1      0.654613      0.291891      0.652117
    35     1      0.822651      0.400182      0.821649
    36     1      0.572383      0.150204      0.821187
    37     1      0.544196      0.489486      0.987489
    38     1      0.795092      0.740446      0.987222
    39     1      0.776650      0.911572      0.151513
    40     1      0.527309      0.661214      0.152269
    41     1      0.470750      0.514204      0.319797
    42     1      0.721713      0.764794      0.319769
    43     1      0.709051      0.941766      0.484205
    44     1      0.458731      0.691394      0.485325
    45     1      0.406993      0.542017      0.653252
    46     1      0.656238      0.792846      0.652544
    47     1      0.824059      0.900081      0.821700
    48     1      0.572239      0.650267      0.822159
ITEM: TIMESTEP
64300
ITEM: NUMBER OF ATOMS
48
ITEM: BOX BOUNDS xy xz yz  pp  pp  pp
     -0.003081      2.203080      0.000000
     -0.005336      3.815850      0.000000
     -0.007546      5.396420      0.000000
ITEM: ATOMS id type xs ys zs
     1     1      0.045827      0.989959      0.986787
     2     1      0.294648      0.239858      0.986660
     3     1      0.276665      0.411234      0.151526
     4     1      0.026854      0.161839      0.151370
     5     1      0.969812      0.015388      0.319467
     6     1      0.219722      0.264422      0.319311
     7     1      0.207840      0.440999      0.486018
     8     1      0.957932      0.191150      0.484963
     9     1      0.908153      0.042050      0.652401
    10     1      0.156122      0.291765      0.652600
    11     1      0.321099      0.401223      0.822555
    12     1      0.072502      0.149694      0.822302
    13     1      0.044580      0.489677      0.987118
    14     1      0.296201      0.740002      0.986982
    15     1      0.277504      0.912708      0.151562
    16     1      0.027774      0.660639      0.152355
    17     1      0.970935      0.513818      0.320728
    18     1      0.222930      0.764101      0.319678
    19     1      0.207264      0.941490      0.484401
    20     1      0.958739      0.691452      0.485157
    21     1      0.906631      0.541062      0.653148
    22     1      0.155905      0.790953      0.652290
    23     1      0.323582      0.900948      0.821391
    24     1      0.072181      0.651068      0.822804
    25     1      0.545732      0.989630      0.986731
    26     1      0.794922      0.239015      0.986660
    27     1      0.776123      0.410899      0.152637
    28     1      0.526287      0.161194      0.151379
    29     1      0.469994      0.015115      0.319421
    30     1      0.720874      0.264375      0.319982
    31     1      0.706829      0.441684      0.485515
    32     1      0.457184      0.190902      0.484745
    33     1      0.407153      0.041390      0.651772
    34     1      0.656020      0.291133      0.652844
    35     1      0.822507      0.400392      0.821830
    36     1      0.572478      0.150469      0.821649
    37     1      0.546031      0.488874      0.987399
    38     1      0.796174      0.740680      0.987221
    39     1      0.776834      0.911627      0.151469
    40     1      0.527643      0.661700      0.152472
    41     1      0.469615      0.514216      0.320130
    42     1      0.722771      0.764517      0.319985
    43     1      0.707235      0.941797      0.484254
    44     1      0.457371      0.690994      0.485543
    45     1      0.407829      0.541811      0.652703
    46     1      0.655600      0.792180      0.652814
    47     1      0.823037      0.899891      0.821521
    48     1      0.572797      0.650350      0.822692
ITEM: TIMESTEP
64350
ITEM: NUMBER OF ATOMS
48
ITEM: BOX BOUNDS xy xz yz  pp  pp  pp
     -0.003081      2.203080      0.000000
     -0.005336      3.815850      0.000000
     -0.007546      5.396420      0.000000
ITEM: ATOMS id type xs ys zs
     1     1      0.045639      0.990054      0.986419
     2     1      0.294665      0.240355      0.986896
     3     1      0.277099      0.412145      0.151914
     4     1      0.027532      0.161617      0.151523
     5     1      0.970804      0.015119      0.319354
     6     1      0.220163      0.264789      0.318913
     7     1      0.206950      0.440606      0.485622
     8     1      0.957756      0.190848      0.484996
     9     1      0.906800      0.040855      0.652743
    10     1      0.155796      0.291195      0.652833
    11     1      0.320095      0.402337      0.822331
    12     1      0.072801      0.150514      0.822110
    13     1      0.044586      0.490936      0.986863
    14     1      0.296225      0.740107      0.987295
    15     1      0.277867      0.912294      0.151640
    16     1      0.027882      0.661894      0.151991
    17     1      0.971137      0.515014      0.320654
    18     1      0.222638      0.765037      0.319917
    19     1      0.207088      0.940942      0.484657
    20     1      0.956954      0.690998      0.485386
    21     1      0.907006      0.541193      0.653108
    22     1      0.156879      0.791152      0.652023
    23     1      0.322469      0.900538      0.821386
    24     1      0.071599      0.651104      0.822450
    25     1      0.545899      0.989461      0.986650
    26     1      0.796070      0.239903      0.986207
    27     1      0.775707      0.411045      0.152862
    28     1      0.526377      0.162031      0.151672
    29     1      0.471019      0.014551      0.319709
    30     1      0.720488      0.264468      0.319796
    31     1      0.706300      0.441093      0.485482
    32     1      0.455604      0.191037      0.484783
    33     1      0.406425      0.041547      0.652227
    34     1      0.655567      0.291292      0.652196
    35     1      0.822427      0.400941      0.821951
    36     1      0.572747      0.151262      0.821781
    37     1      0.546019      0.489865      0.987339
    38     1      0.796854      0.739525      0.987050
    39     1      0.777353      0.911252      0.151938
    40     1      0.528554      0.661361      0.152413
    41     1      0.469730      0.515024      0.320053
    42     1      0.721180      0.764935      0.319986
    43     1      0.707933      0.941361      0.484686
    44     1      0.457188      0.690730      0.485821
    45     1      0.408574      0.540751      0.652840
    46     1      0.656727      0.791246      0.653313
    47     1      0.823061      0.900107      0.821806
    48     1      0.571927      0.650325      0.822478
ITEM: TIMESTEP
64400
ITEM: NUMBER OF ATOMS
48
ITEM: BOX BOUNDS xy xz yz  pp  pp  pp
     -0.003081      2.203080      0.000000
     -0.005336      3.815850      0.000000
     -0.007546      5.396420      0.000000
ITEM: ATOMS id type xs ys zs
     1     1      0.046964      0.990294      0.986784
     2     1      0.293432      0.240723      0.986890
     3     1      0.278501      0.412108      0.151761
     4     1      0.027858      0.162290      0.151601
     5     1      0.971112      0.015120      0.319461
     6     1      0.220870      0.264302      0.319273
     7     1      0.207694      0.440460      0.485582
     8     1      0.956441      0.190648      0.485103
     9     1      0.907858      0.040006      0.652421
    10     1      0.156464      0.290523      0.652975
    11     1      0.318661      0.401719      0.822614
    12     1      0.071564      0.150723      0.822160
    13     1      0.045092      0.491170      0.987349
    14     1      0.296546      0.740703      0.986511
    15     1      0.278050      0.912391      0.151784
    16     1      0.027224      0.662338      0.152373
    17     1      0.970570      0.515177      0.320498
    18     1      0.221929      0.764345      0.319940
    19     1      0.207240      0.941187      0.484796
    20     1      0.956273      0.690742      0.485390
    21     1      0.907194      0.540569      0.652912
    22     1      0.157085      0.790560      0.651778
    23     1      0.321489      0.901049      0.821388
    24     1      0.071363      0.651572      0.821471
    25     1      0.546414      0.990321      0.987067
    26     1      0.794944      0.240731      0.986977
    27     1      0.775891      0.411238      0.152427
    28     1      0.527109      0.162064      0.151740
    29     1      0.470434      0.016114      0.319766
    30     1      0.721462      0.265157      0.320254
    31     1      0.706706      0.440658      0.485397
    32     1      0.457427      0.191490      0.484689
    33     1      0.406641      0.041124      0.652236
    34     1      0.656684      0.290820      0.651872
    35     1      0.819162      0.401480      0.821989
    36     1      0.571007      0.150629      0.821563
    37     1      0.546155      0.490574      0.987400
    38     1      0.796432      0.739805      0.986604
    39     1      0.778852      0.911481      0.151642
    40     1      0.528293      0.661925      0.151945
    41     1      0.470202      0.514362      0.320175
    42     1      0.721772      0.765606      0.320392
    43     1      0.706831      0.941355      0.484805
    44     1      0.456751      0.690674      0.485692
    45     1      0.407559      0.539965      0.653122
    46     1      0.656122      0.790538      0.652953
    47     1      0.822011      0.901607      0.822269
    48     1      0.571027      0.650306      0.822274
ITEM: TIMESTEP
64450
ITEM: NUMBER OF ATOMS
48
ITEM: BOX BOUNDS xy xz yz  pp  pp  pp
     -0.003081      2.203080      0.000000
     -0.005336      3.815850      0.000000
     -0.007546      5.396420      0.000000
ITEM: ATOMS id type xs ys zs
     1     1      0.045696      0.991159      0.987049
     2     1      0.295071      0.241231      0.987217
     3     1      0.276357      0.412282      0.151864
     4     1      0.026509      0.162781      0.151577
     5     1      0.970894      0.015152      0.319401
     6     1      0.221441      0.265352      0.319678
     7     1      0.206759      0.439602      0.485741
     8     1      0.958457      0.190961      0.484801
     9     1      0.907371      0.039519      0.652926
    10     1      0.156899      0.290082      0.652746
    11     1      0.320269      0.401194      0.822755
    12     1      0.069937      0.151293      0.822442
    13     1      0.046603      0.492467      0.987190
    14     1      0.295656      0.741230      0.986492
    15     1      0.277749      0.912462      0.151422
    16     1      0.025691      0.661988      0.152323
    17     1      0.971316      0.514402      0.320566
    18     1      0.222673      0.765012      0.319980
    19     1      0.206416      0.939955      0.484916
    20     1      0.955992      0.689795      0.485270
    21     1      0.907038      0.539327      0.653073
    22     1      0.156011      0.789849      0.652200
    23     1      0.321129      0.901399      0.821636
    24     1      0.069817      0.651526      0.821587
    25     1      0.547255      0.989817      0.987049
    26     1      0.793950      0.240501      0.986366
    27     1      0.776356      0.411162      0.152248
    28     1      0.528400      0.161341      0.151528
    29     1      0.470555      0.016487      0.320160
    30     1      0.721334      0.265350      0.320051
    31     1      0.706540      0.440368      0.485337
    32     1      0.456267      0.190492      0.485156
    33     1      0.408800      0.039036      0.651724
    34     1      0.655995      0.289890      0.652339
    35     1      0.819485      0.401720      0.822614
    36     1      0.569261      0.150203      0.821553
    37     1      0.546571      0.491054      0.987830
    38     1      0.795407      0.740355      0.986949
    39     1      0.778648      0.910693      0.151578
    40     1      0.526353      0.661861      0.152342
    41     1      0.470176      0.514167      0.320395
    42     1      0.722353      0.765726      0.320708
    43     1      0.706433      0.941007      0.485584
    44     1      0.456574      0.689849      0.485338
    45     1      0.407733      0.539868      0.653179
    46     1      0.655689      0.789930      0.652521
    47     1      0.820940      0.901810      0.822258
    48     1      0.570391      0.651430      0.822468
ITEM: TIMESTEP
64500
ITEM: NUMBER OF ATOMS
48
ITEM: BOX BOUNDS xy xz yz  pp  pp  pp
     -0.003081      2.203080      0.000000
     -0.005336      3.815850      0.000000
     -0.007546      5.396420      0.000000
ITEM: ATOMS id type xs ys zs
     1     1      0.044719      0.990665      0.987111
     2     1      0.294730      0.241701      0.987139
     3     1      0.278289      0.412226      0.152425
     4     1      0.027010      0.162700      0.151900
     5     1      0.971885      0.014797      0.319120
     6     1      0.221370      0.265241      0.319757
     7     1      0.206252      0.439994      0.485294
     8     1      0.958620      0.190329      0.484566
     9     1      0.909716      0.039484      0.652885
    10     1      0.156886      0.289099      0.653068
    11     1      0.319577      0.401656      0.822464
    12     1      0.068448      0.151503      0.823110
    13     1      0.045765      0.492526      0.987013
    14     1      0.296764      0.741009      0.986427
    15     1      0.277804      0.912592      0.151954
    16     1      0.027052      0.661513      0.151980
    17     1      0.971162      0.515400      0.320365