ITEM: TIMESTEP
64001
ITEM: NUMBER OF ATOMS
48
ITEM: BOX BOUNDS xy xz yz  pp  pp  pp
     -0.003081      2.203080      0.000000
     -0.005336      3.815850      0.000000
     -0.007546      5.396420      0.000000
ITEM: ATOMS id type xs ys zs
     1     1      0.048804      0.988137      0.986935
     2     1      0.293271      0.237278      0.986085
     3     1      0.272368      0.408719      0.151606
     4     1      0.022189      0.159389      0.150291
     5     1      0.967258      0.015518      0.319118
     6     1      0.220222      0.262811      0.318856
     7     1      0.212142      0.443209      0.485093
     8     1      0.959256      0.195718      0.485131
     9     1      0.907608      0.044678      0.651805
    10     1      0.153633      0.294606      0.653660
    11     1      0.322767      0.400787      0.822802
    12     1      0.073666      0.149331      0.821840
    13     1      0.038923      0.487108      0.987059
    14     1      0.292279      0.735876      0.987006
    15     1      0.277957      0.908658      0.151321
    16     1      0.026140      0.657970      0.152752
    17     1      0.972074      0.513289      0.320660
    18     1      0.219213      0.764471      0.319792
    19     1      0.208795      0.944106      0.484339
    20     1      0.963847      0.693019      0.485675
    21     1      0.904677      0.544281      0.652502
    22     1      0.157540      0.794889      0.653290
    23     1      0.329094      0.899272      0.821763
    24     1      0.073769      0.649187      0.821752
    25     1      0.549017      0.987094      0.986048
    26     1      0.791401      0.237974      0.985460
    27     1      0.772627      0.409984      0.153160
    28     1      0.523543      0.159672      0.151399
    29     1      0.468071      0.015942      0.319801
    30     1      0.720717      0.264980      0.320128
    31     1      0.710094      0.444824      0.484616
    32     1      0.459027      0.193577      0.484179
    33     1      0.408876      0.042708      0.650932
    34     1      0.652259      0.294850      0.651233
    35     1      0.823632      0.399324      0.820526
    36     1      0.572614      0.150199      0.820121
    37     1      0.541855      0.488499      0.988114
    38     1      0.793764      0.737940      0.988864
    39     1      0.776523      0.909156      0.152420
    40     1      0.525792      0.659858      0.152878
    41     1      0.469655      0.513549      0.319422
    42     1      0.720833      0.764021      0.320581
    43     1      0.712159      0.943297      0.484048
    44     1      0.462104      0.694639      0.485159
    45     1      0.404640      0.544501      0.653273
    46     1      0.658477      0.793639      0.653172
    47     1      0.829103      0.898821      0.822417
    48     1      0.575759      0.649037      0.822994
ITEM: TIMESTEP
64050
ITEM: NUMBER OF ATOMS
48
ITEM: BOX BOUNDS xy xz yz  pp  pp  pp
     -0.003081      2.203080      0.000000
     -0.005336      3.815850      0.000000
     -0.007546      5.396420      0.000000
ITEM: ATOMS id type xs ys zs
     1     1      0.047484      0.988357      0.987040
     2     1      0.293842      0.237951      0.986664
     3     1      0.272919      0.409481      0.151559
     4     1      0.023240      0.160270      0.151100
     5     1      0.967829      0.015595      0.319549
     6     1      0.220168      0.263851      0.318813
     7     1      0.210947      0.443522      0.484923
     8     1      0.960035      0.194978      0.484760
     9     1      0.906978      0.044372      0.652061
    10     1      0.153302      0.294794      0.653098
    11     1      0.322037      0.400804      0.822836
    12     1      0.073763      0.149791      0.821446
    13     1      0.039448      0.487193      0.986778
    14     1      0.291901      0.737346      0.986741
    15     1      0.277198      0.908587      0.151313
    16     1      0.025468      0.658519      0.152605
    17     1      0.971760      0.514134      0.320727
    18     1      0.219592      0.764843      0.319673
    19     1      0.207292      0.944153      0.484744
    20     1      0.962026      0.692916      0.485762
    21     1      0.904218      0.544083      0.652754
    22     1      0.156630      0.794981      0.652944
    23     1      0.327038      0.899626      0.821563
    24     1      0.073046      0.649574      0.821706
    25     1      0.548738      0.987290      0.985835
    26     1      0.793547      0.238323      0.985879
    27     1      0.773948      0.410759      0.152358
    28     1      0.524451      0.160405      0.151334
    29     1      0.469419      0.015471      0.319237
    30     1      0.720136      0.264691      0.320410
    31     1      0.709552      0.444049      0.485186
    32     1      0.458318      0.192543      0.483817
    33     1      0.407939      0.043879      0.650921
    34     1      0.653731      0.294019      0.651410
    35     1      0.822517      0.399439      0.820783
    36     1      0.571820      0.150372      0.820209
    37     1      0.541243      0.489043      0.988102
    38     1      0.794163      0.738302      0.988480
    39     1      0.778112      0.910110      0.152342
    40     1      0.525314      0.660215      0.152684
    41     1      0.470230      0.513783      0.319478
    42     1      0.721707      0.764114      0.320586
    43     1      0.710703      0.942776      0.484595
    44     1      0.461413      0.693949      0.485361
    45     1      0.405734      0.544107      0.653681
    46     1      0.657901      0.794243      0.652680
    47     1      0.826692      0.898816      0.822332
    48     1      0.576331      0.649657      0.822522
ITEM: TIMESTEP
64100
ITEM: NUMBER OF ATOMS
48
ITEM: BOX BOUNDS xy xz yz  pp  pp  pp
     -0.003081      2.203080      0.000000
     -0.005336      3.815850      0.000000
     -0.007546      5.396420      0.000000
ITEM: ATOMS id type xs ys zs
     1     1      0.046703      0.988793      0.987494
     2     1      0.293758      0.238197      0.986896
     3     1      0.274356      0.410170      0.151161
     4     1      0.024266      0.160594      0.151384
     5     1      0.968677      0.016548      0.320128
     6     1      0.218460      0.264582      0.319891
     7     1      0.207477      0.445405      0.508917
     8     1      0.919883      0.214978      0.500830
     9     1      0.906833      0.043232      0.652434
    10     1      0.161496      0.291982      0.655969
    11     1      0.338085      0.400241      0.822916
    12     1      0.084323      0.139987      0.822558
    13     1      0.038896      0.486982      0.984791
    14     1      0.294049      0.737685      0.986415
    15     1      0.277678      0.909309      0.151184
    16     1      0.026968      0.657945      0.152094
    17     1      0.972426      0.513844      0.320724
    18     1      0.220910      0.765230      0.319782
    19     1      0.206823      0.943671      0.484934
    20     1      0.961065      0.693196      0.485273
    21     1      0.900828      0.543808      0.649088
    22     1      0.157089      0.795596      0.650989
    23     1      0.327388      0.898134      0.821550
    24     1      0.075578      0.648552      0.798308
    25     1      0.547685      0.987923      0.986620
    26     1      0.793186      0.238667      0.985114
    27     1      0.775569      0.410787      0.152427
    28     1      0.524536      0.161447      0.152180
    29     1      0.470046      0.015118      0.319657
    30     1      0.720453      0.264992      0.321339
    31     1      0.699749      0.453264      0.484373
    32     1      0.446014      0.191805      0.483486
    33     1      0.406836      0.042031      0.651834
    34     1      0.638094      0.293230      0.650701
    35     1      0.868977      0.377805      0.804486
    36     1      0.572107      0.149525      0.821212
    37     1      0.542473      0.488373      0.988140
    38     1      0.795830      0.738743      0.987299
    39     1      0.777893      0.910178      0.152451
    40     1      0.526419      0.660695      0.152536
    41     1      0.469020      0.514002      0.319596
    42     1      0.720661      0.764341      0.320673
    43     1      0.710361      0.943394      0.484338
    44     1      0.458277      0.694731      0.485289
    45     1      0.408921      0.545322      0.655154
    46     1      0.656300      0.793596      0.653003
    47     1      0.827008      0.899438      0.821722
    48     1      0.575845      0.648838      0.822801
ITEM: TIMESTEP
64150
ITEM: NUMBER OF ATOMS
48
ITEM: BOX BOUNDS xy xz yz  pp  pp  pp
     -0.003081      2.203080      0.000000
     -0.005336      3.815850      0.000000
     -0.007546      5.396420      0.000000
ITEM: ATOMS id type xs ys zs
     1     1      0.045961      0.988670      0.987904
     2     1      0.293647      0.239601      0.987271
     3     1      0.273357      0.410471      0.151026
     4     1      0.024599      0.160188      0.151484
     5     1      0.968924      0.016785      0.320888
     6     1      0.216355      0.265893      0.320711
     7     1      0.203629      0.445053      0.497429
     8     1      0.930813      0.207130      0.495078
     9     1      0.907476      0.042848      0.653489
    10     1      0.157861      0.290179      0.658632
    11     1      0.344232      0.398512      0.823058
    12     1      0.085316      0.139997      0.822797
    13     1      0.039118      0.487932      0.982793
    14     1      0.291466      0.737627      0.984649
    15     1      0.279374      0.909764      0.151094
    16     1      0.028102      0.660283      0.151784
    17     1      0.973413      0.514810      0.322276
    18     1      0.221303      0.765180      0.319713
    19     1      0.206514      0.944788      0.484904
    20     1      0.959317      0.694761      0.484701
    21     1      0.969613      0.541218      0.647289
    22     1      0.158701      0.796331      0.649310
    23     1      0.328461      0.897295      0.820864
    24     1      0.078675      0.647491      0.809289
    25     1      0.547719      0.988477      0.986781
    26     1      0.793880      0.239129      0.984790
    27     1      0.775163      0.410507      0.153223
    28     1      0.524942      0.160657      0.152208
    29     1      0.470081      0.013934      0.319279
    30     1      0.718627      0.265483      0.321685
    31     1      0.627886      0.450093      0.483733
    32     1      0.443015      0.192391      0.484324
    33     1      0.408535      0.041630      0.651977
    34     1      0.642088      0.292772      0.650068
    35     1      0.858127      0.385151      0.810256
    36     1      0.577256      0.148503      0.820559
    37     1      0.542938      0.488854      0.988468
    38     1      0.795453      0.738380      0.987167
    39     1      0.778231      0.910071      0.152691
    40     1      0.525967      0.660874      0.152745
    41     1      0.468052      0.513671      0.319835
    42     1      0.720670      0.764726      0.320865
    43     1      0.708293      0.943110      0.484913
    44     1      0.456219      0.694551      0.486067
    45     1      0.409061      0.546465      0.656879
    46     1      0.657997      0.793463      0.653099
    47     1      0.825696      0.898908      0.822028
    48     1      0.579818      0.649490      0.823838
ITEM: TIMESTEP
64200
ITEM: NUMBER OF ATOMS
48
ITEM: BOX BOUNDS xy xz yz  pp  pp  pp
     -0.003081      2.203080      0.000000
     -0.005336      3.815850      0.000000
     -0.007546      5.396420      0.000000
ITEM: ATOMS id type xs ys zs
     1     1      0.045947      0.988430      0.987662
     2     1      0.292983      0.239734      0.986966
     3     1      0.272846      0.409747      0.150665
     4     1      0.024115      0.161042      0.151064
     5     1      0.967794      0.017063      0.320476
     6     1      0.215904      0.265982      0.320673
     7     1      0.189864      0.443409      0.491583
     8     1      0.934846      0.203907      0.492212
     9     1      0.970729      0.005546      0.626374
    10     1      0.158612      0.288274      0.657888
    11     1      0.344009      0.398400      0.822441
    12     1      0.084056      0.142193      0.822291
    13     1      0.041041      0.488458      0.982748
    14     1      0.291422      0.737944      0.984354
    15     1      0.280179      0.910576      0.151252
    16     1      0.027778      0.659754      0.152026
    17     1      0.969516      0.515072      0.322445
    18     1      0.221487      0.764937      0.319627
    19     1      0.203774      0.947956      0.482821
    20     1      0.954121      0.693883      0.483978
    21     1      0.936478      0.538741      0.646823
    22     1      0.160289      0.793126      0.651789
    23     1      0.328270      0.897243      0.820630
    24     1      0.079606      0.649301      0.815273
    25     1      0.546584      0.989006      0.986353
    26     1      0.793231      0.240228      0.985331
    27     1      0.776355      0.410587      0.153109
    28     1      0.525108      0.161154      0.152232
    29     1      0.468929      0.014783      0.319706
    30     1      0.716405      0.265439      0.321708
    31     1      0.666062      0.447744      0.486364
    32     1      0.439894      0.191415      0.485053
    33     1      0.411243      0.041389      0.652259
    34     1      0.646894      0.293268      0.650242
    35     1      0.852003      0.390074      0.813025
    36     1      0.578445      0.148360      0.820117
    37     1      0.543823      0.489479      0.988419
    38     1      0.794695      0.738595      0.987371
    39     1      0.779556      0.910319      0.152317
    40     1      0.525911      0.661641      0.151417
    41     1      0.465281      0.514628      0.317344
    42     1      0.719654      0.764952      0.320411
    43     1      0.707372      0.944265      0.484835
    44     1      0.388200      0.734431      0.513265
    45     1      0.421576      0.544613      0.655289
    46     1      0.662216      0.791843      0.653371
    47     1      0.825625      0.898422      0.822731
    48     1      0.581480      0.648727      0.823374
ITEM: TIMESTEP
64250
ITEM: NUMBER OF ATOMS
48
ITEM: BOX BOUNDS xy xz yz  pp  pp  pp
     -0.003081      2.203080      0.000000
     -0.005336      3.815850      0.000000
     -0.007546      5.396420      0.000000
ITEM: ATOMS id type xs ys zs
     1     1      0.046184      0.989341      0.987317
     2     1      0.294699      0.239524      0.985328
     3     1      0.271761      0.411116      0.150163
     4     1      0.026344      0.160831      0.151131
     5     1      0.967334      0.016953      0.319852
     6     1      0.216495      0.265406      0.320921
     7     1      0.181324      0.454960      0.489627
     8     1      0.934844      0.201243      0.481082
     9     1      0.931479      0.021782      0.639687
    10     1      0.163425      0.291506      0.660403
    11     1      0.342285      0.398091      0.822590
    12     1      0.084899      0.115249      0.800126
    13     1      0.041827      0.489552      0.983604
    14     1      0.291904      0.738892      0.985378
    15     1      0.280268      0.910425      0.151650
    16     1      0.028091      0.660619      0.152058
    17     1      0.966603      0.515265      0.321720
    18     1      0.221009      0.764979      0.320943
    19     1      0.207118      0.980429      0.495341
    20     1      0.939806      0.696412      0.484953
    21     1      0.924786      0.537917      0.648085
    22     1      0.163645      0.786807      0.655966
    23     1      0.332860      0.892854      0.822110
    24     1      0.077105      0.647703      0.818897
    25     1      0.545951      0.989147      0.986644
    26     1      0.795463      0.240253      0.984986
    27     1      0.775965      0.410940      0.152872
    28     1      0.525397      0.161152      0.151875
    29     1      0.467269      0.016335      0.319880
    30     1      0.713698      0.266698      0.320799
    31     1      0.675406      0.450615      0.487165
    32     1      0.398459      0.221278      0.502523
    33     1      0.426660      0.038120      0.655861
    34     1      0.703430      0.262160      0.638932
    35     1      0.846508      0.389596      0.813105
    36     1      0.580639      0.149286      0.819795
    37     1      0.543398      0.489215      0.988809
    38     1      0.794938      0.739387      0.987458
    39     1      0.779609      0.911396      0.152637
    40     1      0.526767      0.662134      0.151259
    41     1      0.464055      0.515421      0.318371
    42     1      0.716500      0.765357      0.320377
    43     1      0.699192      0.945048      0.482469
    44     1      0.418275      0.715863      0.499056
    45     1      0.423924      0.540861      0.654382
    46     1      0.668110      0.790738      0.655622
    47     1      0.823456      0.896193      0.822459
    48     1      0.581235      0.647458      0.823409
ITEM: TIMESTEP
64300
ITEM: NUMBER OF ATOMS
48
ITEM: BOX BOUNDS xy xz yz  pp  pp  pp
     -0.003081      2.203080      0.000000
     -0.005336      3.815850      0.000000
     -0.007546      5.396420      0.000000
ITEM: ATOMS id type xs ys zs
     1     1      0.046832      0.990026      0.986237
     2     1      0.291719      0.238023      0.984208
     3     1      0.272694      0.410601      0.150371
     4     1      0.025907      0.161698      0.151790
     5     1      0.967929      0.016838      0.320248
     6     1      0.214835      0.266195      0.320343
     7     1      0.182049      0.455927      0.489145
     8     1      0.933069      0.201865      0.482531
     9     1      0.925459      0.025808      0.642942
    10     1      0.171483      0.292074      0.656991
    11     1      0.341159      0.398485      0.822915
    12     1      0.086738      0.127706      0.809063
    13     1      0.042194      0.488575      0.984793
    14     1      0.292673      0.738886      0.986303
    15     1      0.279977      0.910873      0.151352
    16     1      0.027713      0.660192      0.151701
    17     1      0.962960      0.515887      0.321170
    18     1      0.217443      0.766558      0.320756
    19     1      0.203682      0.967023      0.488689
    20     1      0.936443      0.699552      0.486313
    21     1      0.921722      0.537955      0.649311
    22     1      0.165924      0.786608      0.654697
    23     1      0.335557      0.891888      0.821917
    24     1      0.077576      0.645813      0.820592
    25     1      0.547617      0.989536      0.986182
    26     1      0.795771      0.240842      0.985242
    27     1      0.775543      0.411069      0.152085
    28     1      0.525916      0.161513      0.150780
    29     1      0.465831      0.017912      0.319694
    30     1      0.710899      0.267283      0.319796
    31     1      0.679611      0.451820      0.487280
    32     1      0.415793      0.214861      0.495618
    33     1      0.425143      0.036675      0.655124
    34     1      0.693728      0.272106      0.646309
    35     1      0.846029      0.391002      0.814708
    36     1      0.582830      0.148719      0.820716
    37     1      0.545807      0.489703      0.988610
    38     1      0.795109      0.740479      0.988194
    39     1      0.779227      0.911570      0.152915
    40     1      0.526521      0.662184      0.151185
    41     1      0.462757      0.516389      0.318330
    42     1      0.713957      0.766612      0.320073
    43     1      0.695287      0.946579      0.482277
    44     1      0.425179      0.711435      0.494242
    45     1      0.424756      0.538124      0.653480
    46     1      0.666901      0.788256      0.654387
    47     1      0.825684      0.895729      0.822674
    48     1      0.582857      0.645557      0.823269
ITEM: TIMESTEP
64350
ITEM: NUMBER OF ATOMS
48
ITEM: BOX BOUNDS xy xz yz  pp  pp  pp
     -0.003081      2.203080      0.000000
     -0.005336      3.815850      0.000000
     -0.007546      5.396420      0.000000
ITEM: ATOMS id type xs ys zs
     1     1      0.045971      0.990111      0.985913
     2     1      0.291629      0.237951      0.984275
     3     1      0.275103      0.411119      0.150218
     4     1      0.025594      0.162019      0.151828
     5     1      0.965821      0.016928      0.320496
     6     1      0.211446      0.266857      0.320263
     7     1      0.182934      0.454778      0.489071
     8     1      0.933291      0.201649      0.483842
     9     1      0.923381      0.028812      0.645131
    10     1      0.172565      0.289926      0.654969
    11     1      0.337905      0.397604      0.822155
    12     1      0.088889      0.134868      0.812983
    13     1      0.043141      0.489339      0.984952
    14     1      0.292142      0.738802      0.986480
    15     1      0.279349      0.910757      0.151618
    16     1      0.028380      0.661181      0.152122
    17     1      0.961079      0.516960      0.321317
    18     1      0.214146      0.768014      0.321118
    19     1      0.199549      0.960229      0.488141
    20     1      0.938075      0.700949      0.486762
    21     1      0.919300      0.538118      0.649722
    22     1      0.166996      0.786477      0.653262
    23     1      0.334826      0.892089      0.821522
    24     1      0.079429      0.645154      0.821110
    25     1      0.546529      0.990189      0.986855
    26     1      0.795361      0.240533      0.985232
    27     1      0.776535      0.411880      0.151842
    28     1      0.527184      0.161636      0.150466
    29     1      0.463834      0.018301      0.319650
    30     1      0.708039      0.267906      0.319500
    31     1      0.682599      0.451547      0.486585
    32     1      0.425655      0.209573      0.491799
    33     1      0.424337      0.036210      0.654365
    34     1      0.687876      0.277309      0.648424
    35     1      0.843822      0.390944      0.815856
    36     1      0.583543      0.148180      0.821431
    37     1      0.545039      0.490164      0.987557
    38     1      0.793183      0.740791      0.987868
    39     1      0.780464      0.911764      0.152373
    40     1      0.528098      0.661735      0.150758
    41     1      0.461023      0.516216      0.318773
    42     1      0.711532      0.766040      0.319559
    43     1      0.695595      0.947912      0.483133
    44     1      0.430777      0.707229      0.491509
    45     1      0.425358      0.536580      0.652928
    46     1      0.666861      0.786606      0.654044
    47     1      0.829009      0.895667      0.821804
    48     1      0.582614      0.644361      0.822865
ITEM: TIMESTEP
64400
ITEM: NUMBER OF ATOMS
48
ITEM: BOX BOUNDS xy xz yz  pp  pp  pp
     -0.003081      2.203080      0.000000
     -0.005336      3.815850      0.000000
     -0.007546      5.396420      0.000000
ITEM: ATOMS id type xs ys zs
     1     1      0.045455      0.990356      0.986415
     2     1      0.292679      0.238150      0.984584
     3     1      0.276093      0.411163      0.149824
     4     1      0.025588      0.161552      0.151674
     5     1      0.963540      0.017541      0.320405
     6     1      0.208621      0.268724      0.320418
     7     1      0.185067      0.452406      0.488641
     8     1      0.935859      0.201467      0.484832
     9     1      0.927832      0.032572      0.648843
    10     1      0.172896      0.289083      0.652800
    11     1      0.336310      0.397089      0.822492
    12     1      0.088146      0.138557      0.815284
    13     1      0.043482      0.490329      0.985471
    14     1      0.293299      0.739116      0.986564
    15     1      0.280320      0.911439      0.151690
    16     1      0.027864      0.661958      0.152587
    17     1      0.960753      0.517251      0.320648
    18     1      0.213143      0.768629      0.321220
    19     1      0.197238      0.956066      0.487225
    20     1      0.938704      0.700889      0.486454
    21     1      0.919752      0.538306      0.650487
    22     1      0.166486      0.785089      0.650189
    23     1      0.336735      0.892466      0.797623
    24     1      0.079076      0.645790      0.820954
    25     1      0.547779      0.989655      0.986677
    26     1      0.795517      0.241228      0.985785
    27     1      0.777127      0.412225      0.151859
    28     1      0.526851      0.161898      0.149995
    29     1      0.463219      0.018287      0.319932
    30     1      0.706311      0.268256      0.319450
    31     1      0.684953      0.451381      0.486971
    32     1      0.433828      0.205565      0.489661
    33     1      0.424898      0.038374      0.652264
    34     1      0.682550      0.281902      0.649945
    35     1      0.842588      0.391702      0.817923
    36     1      0.583979      0.147332      0.821304
    37     1      0.547041      0.489848      0.987690
    38     1      0.794961      0.740101      0.987191
    39     1      0.780353      0.912318      0.152943
    40     1      0.528156      0.661182      0.151227
    41     1      0.458637      0.517780      0.319853
    42     1      0.710454      0.766361      0.319859
    43     1      0.691439      0.947937      0.508428
    44     1      0.434830      0.704376      0.489882
    45     1      0.424172      0.535986      0.652652
    46     1      0.667971      0.785595      0.654470
    47     1      0.831137      0.896098      0.821681
    48     1      0.581970      0.644681      0.821983
ITEM: TIMESTEP
64450
ITEM: NUMBER OF ATOMS
48
ITEM: BOX BOUNDS xy xz yz  pp  pp  pp
     -0.003081      2.203080      0.000000
     -0.005336      3.815850      0.000000
     -0.007546      5.396420      0.000000
ITEM: ATOMS id type xs ys zs
     1     1      0.044923      0.989849      0.986531
     2     1      0.293035      0.238144      0.984826
     3     1      0.276089      0.411692      0.149839
     4     1      0.026774      0.161716      0.151826
     5     1      0.959675      0.017450      0.321317
     6     1      0.206783      0.268821      0.320137
     7     1      0.185211      0.452029      0.488416
     8     1      0.938978      0.199927      0.485706
     9     1      0.930579      0.034622      0.651559
    10     1      0.172950      0.288213      0.652536
    11     1      0.336793      0.396863      0.821531
    12     1      0.089165      0.140586      0.818236
    13     1      0.043468      0.491209      0.985129
    14     1      0.294425      0.741273      0.985295
    15     1      0.280312      0.912220      0.151076
    16     1      0.028630      0.662427      0.152774
    17     1      0.958347      0.518530      0.320985
    18     1      0.210587      0.769864      0.321141
    19     1      0.196477      0.953153      0.486598
    20     1      0.937363      0.700058      0.485505
    21     1      0.918972      0.536956      0.650662
    22     1      0.163878      0.783557      0.647353
    23     1      0.338349      0.892133      0.810113
    24     1      0.079571      0.646434      0.819907
    25     1      0.546721      0.988782      0.985119
    26     1      0.795262      0.241246      0.986487
    27     1      0.777771      0.412336      0.151953
    28     1      0.527590      0.161537      0.150298
    29     1      0.464043      0.018592      0.321496
    30     1      0.706621      0.268612      0.319807
    31     1      0.685322      0.450973      0.487254
    32     1      0.435696      0.203677      0.487734
    33     1      0.425619      0.041080      0.650995
    34     1      0.680585      0.282993      0.649590
    35     1      0.840800      0.392855      0.818291
    36     1      0.584007      0.146954      0.821269
    37     1      0.546649      0.489648      0.987582
    38     1      0.795417      0.739535      0.987518
    39     1      0.780271      0.913057      0.152071
    40     1      0.527467      0.662344      0.151733
    41     1      0.458005      0.518927      0.319967
    42     1      0.708958      0.767858      0.320254
    43     1      0.690958      0.948443      0.495801
    44     1      0.437628      0.701510      0.488769
    45     1      0.422924      0.535064      0.652736
    46     1      0.667710      0.784310      0.655565
    47     1      0.832335      0.896246      0.821663
    48     1      0.583102      0.643734      0.822475
ITEM: TIMESTEP
64500
ITEM: NUMBER OF ATOMS
48
ITEM: BOX BOUNDS xy xz yz  pp  pp  pp
     -0.003081      2.203080      0.000000
     -0.005336      3.815850      0.000000
     -0.007546      5.396420      0.000000
ITEM: ATOMS id type xs ys zs
     1     1      0.046887      0.989828      0.986706
     2     1      0.294288      0.238865      0.985642
     3     1      0.276330      0.411416      0.150741
     4     1      0.027186      0.161811      0.151415
     5     1      0.959226      0.018605      0.321556
     6     1      0.207549      0.269148      0.320295
     7     1      0.186452      0.450664      0.488077
     8     1      0.939593      0.199139      0.485834
     9     1      0.928212      0.034648      0.651654
    10     1      0.172635      0.286912      0.652148
    11     1      0.336592      0.395945      0.821336
    12     1      0.087779      0.142881      0.819308
    13     1      0.045735      0.490978      0.985079
    14     1      0.295631      0.741375      0.984476
    15     1      0.278923      0.912737      0.151164
    16     1      0.028958      0.662305      0.151959
    17     1      0.956517      0.518817      0.321039