ITEM: TIMESTEP
64001
ITEM: NUMBER OF ATOMS
48
ITEM: BOX BOUNDS xy xz yz  pp  pp  pp
     -0.003081      2.203080      0.000000
     -0.005336      3.815850      0.000000
     -0.007546      5.396420      0.000000
ITEM: ATOMS id type xs ys zs
     1     1      0.048611      0.988300      0.986882
     2     1      0.292982      0.237243      0.986317
     3     1      0.272463      0.408630      0.151740
     4     1      0.022513      0.159282      0.150359
     5     1      0.967335      0.015481      0.319012
     6     1      0.220452      0.262888      0.318902
     7     1      0.212158      0.443384      0.485029
     8     1      0.959332      0.195815      0.485170
     9     1      0.907969      0.044565      0.651890
    10     1      0.153616      0.294570      0.653533
    11     1      0.322913      0.401046      0.822872
    12     1      0.073492      0.149359      0.821909
    13     1      0.039350      0.487191      0.987072
    14     1      0.292152      0.735929      0.986881
    15     1      0.277791      0.908644      0.151314
    16     1      0.026254      0.657915      0.152884
    17     1      0.972237      0.513408      0.320721
    18     1      0.219076      0.764519      0.319814
    19     1      0.208749      0.943963      0.484217
    20     1      0.963714      0.692978      0.485672
    21     1      0.904694      0.544358      0.652519
    22     1      0.157656      0.794802      0.653269
    23     1      0.329497      0.899250      0.821686
    24     1      0.073623      0.649178      0.821625
    25     1      0.549225      0.987240      0.986245
    26     1      0.791350      0.237922      0.985470
    27     1      0.772875      0.409980      0.153188
    28     1      0.523685      0.159617      0.151387
    29     1      0.467705      0.016047      0.319762
    30     1      0.720448      0.265175      0.320234
    31     1      0.709536      0.444861      0.484549
    32     1      0.459032      0.193544      0.484310
    33     1      0.409466      0.042779      0.650953
    34     1      0.651662      0.294889      0.651280
    35     1      0.823719      0.399522      0.820456
    36     1      0.572508      0.150171      0.820102
    37     1      0.542039      0.488533      0.988072
    38     1      0.794109      0.737966      0.989031
    39     1      0.776454      0.908933      0.152403
    40     1      0.525582      0.659716      0.152835
    41     1      0.469679      0.513555      0.319440
    42     1      0.720502      0.764370      0.320600
    43     1      0.712116      0.943279      0.483959
    44     1      0.462299      0.694500      0.485166
    45     1      0.404440      0.544519      0.653226
    46     1      0.658439      0.793680      0.653144
    47     1      0.828865      0.898864      0.822493
    48     1      0.575819      0.649190      0.822904
ITEM: TIMESTEP
64050
ITEM: NUMBER OF ATOMS
48
ITEM: BOX BOUNDS xy xz yz  pp  pp  pp
     -0.003081      2.203080      0.000000
     -0.005336      3.815850      0.000000
     -0.007546      5.396420      0.000000
ITEM: ATOMS id type xs ys zs
     1     1      0.047344      0.988714      0.986425
     2     1      0.295177      0.237906      0.986129
     3     1      0.273571      0.409504      0.151318
     4     1      0.023077      0.159759      0.150786
     5     1      0.968719      0.016048      0.319217
     6     1      0.220427      0.263920      0.319055
     7     1      0.211324      0.442819      0.485265
     8     1      0.959464      0.195013      0.485042
     9     1      0.908484      0.043766      0.652552
    10     1      0.154178      0.294061      0.653595
    11     1      0.322251      0.401084      0.822972
    12     1      0.072941      0.149443      0.821495
    13     1      0.041714      0.488391      0.986983
    14     1      0.293979      0.737223      0.987403
    15     1      0.278081      0.909462      0.151052
    16     1      0.028107      0.658784      0.152904
    17     1      0.970900      0.514258      0.320543
    18     1      0.219817      0.765033      0.320115
    19     1      0.209573      0.942704      0.484461
    20     1      0.962808      0.692206      0.485129
    21     1      0.905751      0.543197      0.652240
    22     1      0.156376      0.794091      0.652982
    23     1      0.328078      0.899725      0.821232
    24     1      0.072836      0.649669      0.821656
    25     1      0.548154      0.987428      0.986244
    26     1      0.793213      0.239061      0.985893
    27     1      0.773024      0.409965      0.153112
    28     1      0.524145      0.159077      0.151481
    29     1      0.468393      0.014982      0.319814
    30     1      0.719752      0.265085      0.319929
    31     1      0.709020      0.443987      0.484512
    32     1      0.458903      0.192085      0.484161
    33     1      0.407294      0.042402      0.651319
    34     1      0.652810      0.293788      0.651280
    35     1      0.823083      0.399701      0.821020
    36     1      0.571456      0.150259      0.820198
    37     1      0.542775      0.489060      0.988406
    38     1      0.793624      0.738791      0.988249
    39     1      0.777179      0.909678      0.152128
    40     1      0.527241      0.661120      0.152695
    41     1      0.470104      0.514610      0.319565
    42     1      0.720745      0.764671      0.320358
    43     1      0.712344      0.942414      0.484402
    44     1      0.461304      0.693380      0.485416
    45     1      0.404714      0.544299      0.653339
    46     1      0.657626      0.793409      0.653046
    47     1      0.827713      0.899182      0.822086
    48     1      0.575955      0.649040      0.822584
ITEM: TIMESTEP
64100
ITEM: NUMBER OF ATOMS
48
ITEM: BOX BOUNDS xy xz yz  pp  pp  pp
     -0.003081      2.203080      0.000000
     -0.005336      3.815850      0.000000
     -0.007546      5.396420      0.000000
ITEM: ATOMS id type xs ys zs
     1     1      0.046887      0.988474      0.986684
     2     1      0.296038      0.237498      0.986575
     3     1      0.273196      0.410098      0.151145
     4     1      0.024026      0.161138      0.151306
     5     1      0.970520      0.016095      0.319340
     6     1      0.221201      0.264485      0.318980
     7     1      0.210892      0.441747      0.485487
     8     1      0.959166      0.193582      0.485381
     9     1      0.906509      0.044023      0.652858
    10     1      0.154147      0.293151      0.653630
    11     1      0.322281      0.400850      0.822781
    12     1      0.073651      0.149395      0.822105
    13     1      0.041926      0.488524      0.986706
    14     1      0.293689      0.738587      0.987095
    15     1      0.278021      0.909778      0.151228
    16     1      0.026965      0.660316      0.152266
    17     1      0.970817      0.513517      0.320115
    18     1      0.219248      0.765455      0.319988
    19     1      0.208113      0.942131      0.484807
    20     1      0.962052      0.692158      0.485423
    21     1      0.904165      0.543329      0.652132
    22     1      0.156672      0.792809      0.652917
    23     1      0.327486      0.898806      0.821240
    24     1      0.073467      0.650422      0.821473
    25     1      0.547893      0.988535      0.986776
    26     1      0.793866      0.238624      0.985715
    27     1      0.773357      0.410838      0.152160
    28     1      0.525438      0.159324      0.151373
    29     1      0.469034      0.014399      0.320031
    30     1      0.721216      0.264799      0.319991
    31     1      0.707536      0.442985      0.484430
    32     1      0.457625      0.191512      0.484472
    33     1      0.408775      0.042144      0.651493
    34     1      0.652990      0.293689      0.651722
    35     1      0.823471      0.400116      0.820829
    36     1      0.572198      0.149884      0.820686
    37     1      0.542475      0.489681      0.987651
    38     1      0.795085      0.739314      0.987601
    39     1      0.777134      0.910435      0.152255
    40     1      0.527567      0.660661      0.152424
    41     1      0.468961      0.514803      0.319510
    42     1      0.720484      0.764975      0.320073
    43     1      0.710465      0.942077      0.484822
    44     1      0.459691      0.692952      0.485375
    45     1      0.404422      0.543943      0.653460
    46     1      0.656059      0.794228      0.652543
    47     1      0.826330      0.900091      0.822399
    48     1      0.573742      0.649792      0.822353
ITEM: TIMESTEP
64150
ITEM: NUMBER OF ATOMS
48
ITEM: BOX BOUNDS xy xz yz  pp  pp  pp
     -0.003081      2.203080      0.000000
     -0.005336      3.815850      0.000000
     -0.007546      5.396420      0.000000
ITEM: ATOMS id type xs ys zs
     1     1      0.047668      0.989907      0.986651
     2     1      0.296734      0.238510      0.986543
     3     1      0.273469      0.410573      0.151403
     4     1      0.024552      0.161602      0.151381
     5     1      0.970590      0.015029      0.319394
     6     1      0.220903      0.264257      0.319337
     7     1      0.208699      0.441584      0.485436
     8     1      0.957874      0.193553      0.485026
     9     1      0.906585      0.043882      0.653033
    10     1      0.153940      0.293203      0.653553
    11     1      0.322251      0.399961      0.822441
    12     1      0.074130      0.149311      0.822193
    13     1      0.041713      0.489310      0.986593
    14     1      0.295341      0.740591      0.987138
    15     1      0.278505      0.911126      0.151217
    16     1      0.027636      0.660874      0.152157
    17     1      0.970390      0.514189      0.319543
    18     1      0.221149      0.765666      0.320340
    19     1      0.207636      0.942913      0.485081
    20     1      0.959864      0.692008      0.485121
    21     1      0.904118      0.542703      0.651985
    22     1      0.155818      0.792874      0.652497
    23     1      0.325776      0.898814      0.821088
    24     1      0.073000      0.649922      0.821509
    25     1      0.547552      0.989214      0.986170
    26     1      0.794157      0.239002      0.986242
    27     1      0.774562      0.410549      0.152267
    28     1      0.525208      0.159780      0.152014
    29     1      0.470807      0.015420      0.319946
    30     1      0.720844      0.264578      0.319358
    31     1      0.707813      0.441778      0.485136
    32     1      0.456466      0.191713      0.484450
    33     1      0.407918      0.041780      0.651934
    34     1      0.652750      0.292402      0.651427
    35     1      0.822140      0.399837      0.820905
    36     1      0.573048      0.149729      0.820791
    37     1      0.541761      0.489762      0.987617
    38     1      0.794773      0.740216      0.987207
    39     1      0.777660      0.909976      0.151829
    40     1      0.527690      0.660640      0.152479
    41     1      0.469904      0.514153      0.320229
    42     1      0.720289      0.764790      0.319936
    43     1      0.709971      0.941574      0.485074
    44     1      0.459446      0.692426      0.485381
    45     1      0.404086      0.543733      0.653191
    46     1      0.654530      0.793533      0.653279
    47     1      0.825547      0.900165      0.821736
    48     1      0.574187      0.649917      0.822099
ITEM: TIMESTEP
64200
ITEM: NUMBER OF ATOMS
48
ITEM: BOX BOUNDS xy xz yz  pp  pp  pp
     -0.003081      2.203080      0.000000
     -0.005336      3.815850      0.000000
     -0.007546      5.396420      0.000000
ITEM: ATOMS id type xs ys zs
     1     1      0.048601      0.990123      0.986746
     2     1      0.296552      0.238800      0.986455
     3     1      0.275476      0.410736      0.152059
     4     1      0.025942      0.160903      0.151696
     5     1      0.970392      0.014314      0.319379
     6     1      0.221304      0.263964      0.319337
     7     1      0.208712      0.441380      0.485217
     8     1      0.957736      0.193219      0.485231
     9     1      0.905726      0.042786      0.652406
    10     1      0.154276      0.293316      0.653056
    11     1      0.321889      0.400658      0.822425
    12     1      0.074039      0.149561      0.822198
    13     1      0.042955      0.490352      0.987100
    14     1      0.296364      0.740945      0.987237
    15     1      0.277867      0.911653      0.151741
    16     1      0.028050      0.661070      0.151172
    17     1      0.971348      0.514850      0.319410
    18     1      0.220310      0.764829      0.319089
    19     1      0.208165      0.942190      0.485028
    20     1      0.959020      0.691825      0.484778
    21     1      0.905914      0.542492      0.652048
    22     1      0.154785      0.792459      0.652875
    23     1      0.324584      0.900644      0.821506
    24     1      0.073985      0.649906      0.822221
    25     1      0.547170      0.990183      0.986659
    26     1      0.794542      0.240174      0.986222
    27     1      0.776078      0.410758      0.152269
    28     1      0.526320      0.160481      0.151904
    29     1      0.470958      0.015285      0.319995
    30     1      0.721345      0.264473      0.320113
    31     1      0.709221      0.442432      0.484703
    32     1      0.458247      0.191306      0.484510
    33     1      0.405780      0.042741      0.652266
    34     1      0.653978      0.291416      0.651462
    35     1      0.822403      0.400187      0.821346
    36     1      0.572778      0.150155      0.821144
    37     1      0.543055      0.490059      0.987695
    38     1      0.793987      0.740535      0.987431
    39     1      0.777513      0.910224      0.152191
    40     1      0.526081      0.661429      0.152949
    41     1      0.471062      0.514452      0.320694
    42     1      0.721041      0.764853      0.319927
    43     1      0.708738      0.941622      0.484502
    44     1      0.458413      0.692522      0.485231
    45     1      0.405003      0.542217      0.652800
    46     1      0.655876      0.792847      0.653472
    47     1      0.825956      0.900179      0.822052
    48     1      0.572073      0.650521      0.822174
ITEM: TIMESTEP
64250
ITEM: NUMBER OF ATOMS
48
ITEM: BOX BOUNDS xy xz yz  pp  pp  pp
     -0.003081      2.203080      0.000000
     -0.005336      3.815850      0.000000
     -0.007546      5.396420      0.000000
ITEM: ATOMS id type xs ys zs
     1     1      0.047063      0.990857      0.986953
     2     1      0.295964      0.240027      0.986565
     3     1      0.275616      0.410564      0.151815
     4     1      0.024687      0.161876      0.151921
     5     1      0.971053      0.014245      0.319505
     6     1      0.220933      0.263621      0.319738
     7     1      0.208766      0.440799      0.485344
     8     1      0.959021      0.191596      0.485038
     9     1      0.905395      0.042143      0.652677
    10     1      0.154780      0.292798      0.653241
    11     1      0.322979      0.400281      0.822113
    12     1      0.073154      0.150168      0.821958
    13     1      0.042926      0.490539      0.986605
    14     1      0.296665      0.740800      0.986765
    15     1      0.276791      0.911901      0.151819
    16     1      0.029387      0.660923      0.150972
    17     1      0.971691      0.515390      0.319041
    18     1      0.219696      0.764305      0.319650
    19     1      0.207431      0.941432      0.484719
    20     1      0.956792      0.691994      0.484625
    21     1      0.904932      0.541850      0.652127
    22     1      0.155046      0.791450      0.652517
    23     1      0.323515      0.901337      0.821900
    24     1      0.072992      0.650696      0.821711
    25     1      0.547688      0.991115      0.986428
    26     1      0.795139      0.240331      0.986804
    27     1      0.777605      0.411767      0.151354
    28     1      0.525128      0.161243      0.152016
    29     1      0.471592      0.014213      0.319974
    30     1      0.720636      0.265251      0.319668
    31     1      0.709449      0.440643      0.484964
    32     1      0.458372      0.191008      0.484378
    33     1      0.405909      0.042216      0.652134
    34     1      0.654894      0.291024      0.651887
    35     1      0.822011      0.400501      0.821517
    36     1      0.573842      0.150468      0.821170
    37     1      0.542622      0.491161      0.987282
    38     1      0.794613      0.740851      0.987349
    39     1      0.776687      0.910849      0.151489
    40     1      0.527231      0.662220      0.153198
    41     1      0.471727      0.514616      0.320030
    42     1      0.720356      0.765232      0.320374
    43     1      0.708026      0.941958      0.485039
    44     1      0.456615      0.691730      0.485205
    45     1      0.405645      0.541863      0.652759
    46     1      0.655240      0.791930      0.653130
    47     1      0.823872      0.900305      0.821685
    48     1      0.572088      0.650206      0.822132
ITEM: TIMESTEP
64300
ITEM: NUMBER OF ATOMS
48
ITEM: BOX BOUNDS xy xz yz  pp  pp  pp
     -0.003081      2.203080      0.000000
     -0.005336      3.815850      0.000000
     -0.007546      5.396420      0.000000
ITEM: ATOMS id type xs ys zs
     1     1      0.047579      0.991095      0.986798
     2     1      0.295768      0.240118      0.986489
     3     1      0.277044      0.410969      0.151945
     4     1      0.025342      0.162545      0.152217
     5     1      0.970469      0.014141      0.319907
     6     1      0.222563      0.265048      0.319800
     7     1      0.209945      0.441558      0.484578
     8     1      0.958308      0.191714      0.485092
     9     1      0.904342      0.041889      0.652231
    10     1      0.155406      0.292999      0.652871
    11     1      0.320421      0.400853      0.822698
    12     1      0.072208      0.150716      0.822026
    13     1      0.043924      0.490779      0.987133
    14     1      0.296258      0.741174      0.986962
    15     1      0.277155      0.911828      0.151520
    16     1      0.029151      0.661849      0.151819
    17     1      0.971962      0.515162      0.319505
    18     1      0.220386      0.764654      0.319920
    19     1      0.206649      0.941722      0.485205
    20     1      0.956844      0.691184      0.485023
    21     1      0.905145      0.541331      0.652362
    22     1      0.155074      0.791215      0.652594
    23     1      0.322120      0.900616      0.821718
    24     1      0.072845      0.650796      0.822355
    25     1      0.548111      0.990813      0.986854
    26     1      0.795701      0.240534      0.986640
    27     1      0.776277      0.411656      0.151635
    28     1      0.526858      0.160952      0.152201
    29     1      0.470400      0.013922      0.320589
    30     1      0.721444      0.264439      0.319817
    31     1      0.710051      0.440543      0.484691
    32     1      0.457849      0.191014      0.484530
    33     1      0.404582      0.042027      0.652388
    34     1      0.655106      0.290684      0.652109
    35     1      0.820906      0.400465      0.821659
    36     1      0.572403      0.150751      0.821309
    37     1      0.543822      0.490954      0.987635
    38     1      0.795687      0.740749      0.986950
    39     1      0.777386      0.911357      0.151426
    40     1      0.527653      0.662424      0.152289
    41     1      0.470984      0.515156      0.319715
    42     1      0.719683      0.765234      0.320248
    43     1      0.708586      0.941248      0.485287
    44     1      0.456883      0.690284      0.485098
    45     1      0.406688      0.541439      0.652898
    46     1      0.654523      0.791127      0.652895
    47     1      0.822302      0.901190      0.821919
    48     1      0.572788      0.650748      0.822572
ITEM: TIMESTEP
64350
ITEM: NUMBER OF ATOMS
48
ITEM: BOX BOUNDS xy xz yz  pp  pp  pp
     -0.003081      2.203080      0.000000
     -0.005336      3.815850      0.000000
     -0.007546      5.396420      0.000000
ITEM: ATOMS id type xs ys zs
     1     1      0.046932      0.990661      0.986581
     2     1      0.297825      0.240778      0.986950
     3     1      0.276765      0.410929      0.151980
     4     1      0.025681      0.161862      0.152107
     5     1      0.969842      0.015116      0.320280
     6     1      0.221697      0.264885      0.319694
     7     1      0.209491      0.441054      0.485085
     8     1      0.957630      0.190143      0.484553
     9     1      0.903996      0.041948      0.652743
    10     1      0.155862      0.291761      0.653212
    11     1      0.319781      0.401573      0.822411
    12     1      0.071389      0.150950      0.822309
    13     1      0.043992      0.490339      0.986880
    14     1      0.295800      0.740241      0.986883
    15     1      0.278171      0.912223      0.151219
    16     1      0.029096      0.660646      0.151794
    17     1      0.972659      0.515492      0.319585
    18     1      0.221706      0.765394      0.320143
    19     1      0.208077      0.941435      0.485419
    20     1      0.956413      0.690686      0.485018
    21     1      0.904345      0.540930      0.652959
    22     1      0.154361      0.791328      0.653164
    23     1      0.322104      0.901024      0.821934
    24     1      0.071851      0.650653      0.822663
    25     1      0.547024      0.990842      0.986687
    26     1      0.795171      0.240878      0.986868
    27     1      0.776769      0.411472      0.151767
    28     1      0.526389      0.161119      0.152034
    29     1      0.469399      0.015082      0.320122
    30     1      0.721537      0.264680      0.319364
    31     1      0.710360      0.439383      0.484527
    32     1      0.456631      0.190409      0.485020
    33     1      0.404615      0.041103      0.652710
    34     1      0.655072      0.291131      0.652384
    35     1      0.819423      0.401435      0.821683
    36     1      0.570764      0.150713      0.821616
    37     1      0.544268      0.491023      0.987571
    38     1      0.796193      0.741161      0.987232
    39     1      0.777725      0.911860      0.151618
    40     1      0.528741      0.662617      0.152139
    41     1      0.472237      0.515337      0.319996
    42     1      0.721135      0.765174      0.319792
    43     1      0.707351      0.941048      0.485638
    44     1      0.457071      0.690841      0.485402
    45     1      0.405714      0.540807      0.653314
    46     1      0.655373      0.791080      0.652856
    47     1      0.820327      0.900931      0.822215
    48     1      0.571325      0.651158      0.822686
ITEM: TIMESTEP
64400
ITEM: NUMBER OF ATOMS
48
ITEM: BOX BOUNDS xy xz yz  pp  pp  pp
     -0.003081      2.203080      0.000000
     -0.005336      3.815850      0.000000
     -0.007546      5.396420      0.000000
ITEM: ATOMS id type xs ys zs
     1     1      0.047153      0.991379      0.986423
     2     1      0.298001      0.241615      0.986609
     3     1      0.276795      0.411014      0.152016
     4     1      0.027197      0.161628      0.152236
     5     1      0.970080      0.015699      0.320358
     6     1      0.220565      0.265785      0.320173
     7     1      0.208275      0.440158      0.484666
     8     1      0.956823      0.189656      0.484842
     9     1      0.904175      0.041788      0.652786
    10     1      0.155901      0.290742      0.653119
    11     1      0.320690      0.401414      0.822483
    12     1      0.071640      0.151372      0.822439
    13     1      0.044354      0.490431      0.986771
    14     1      0.296368      0.740402      0.987027
    15     1      0.278783      0.911089      0.150651
    16     1      0.028611      0.660926      0.151743
    17     1      0.972039      0.514447      0.319964
    18     1      0.221918      0.765142      0.320046
    19     1      0.206251      0.941075      0.485163
    20     1      0.956557      0.690745      0.485164
    21     1      0.906066      0.541228      0.652135
    22     1      0.155239      0.791484      0.653192
    23     1      0.322017      0.901499      0.821744
    24     1      0.070068      0.650849      0.822412
    25     1      0.547713      0.990577      0.986221
    26     1      0.797051      0.241520      0.986530
    27     1      0.776262      0.410857      0.151826
    28     1      0.527352      0.161568      0.151849
    29     1      0.470748      0.014363      0.319583
    30     1      0.720806      0.264765      0.320161
    31     1      0.709146      0.440205      0.484901
    32     1      0.456495      0.190443      0.484771
    33     1      0.404765      0.040654      0.652578
    34     1      0.654170      0.290771      0.652845
    35     1      0.818963      0.401970      0.821570
    36     1      0.571010      0.150256      0.821725
    37     1      0.545647      0.491246      0.986948
    38     1      0.795647      0.741406      0.987099
    39     1      0.777576      0.912209      0.151960
    40     1      0.528992      0.662334      0.151412
    41     1      0.471556      0.514501      0.319643
    42     1      0.722057      0.765600      0.319992
    43     1      0.707734      0.941064      0.485530
    44     1      0.458318      0.690414      0.485177
    45     1      0.406180      0.541312      0.653020
    46     1      0.656339      0.791155      0.652830
    47     1      0.822208      0.901416      0.821599
    48     1      0.569563      0.652110      0.822711
ITEM: TIMESTEP
64450
ITEM: NUMBER OF ATOMS
48
ITEM: BOX BOUNDS xy xz yz  pp  pp  pp
     -0.003081      2.203080      0.000000
     -0.005336      3.815850      0.000000
     -0.007546      5.396420      0.000000
ITEM: ATOMS id type xs ys zs
     1     1      0.046547      0.991990      0.986090
     2     1      0.297233      0.241131      0.987067
     3     1      0.276966      0.411761      0.151923
     4     1      0.028070      0.160976      0.151448
     5     1      0.970957      0.015378      0.320668
     6     1      0.221674      0.265573      0.319402
     7     1      0.207101      0.440120      0.484702
     8     1      0.955598      0.189999      0.484320
     9     1      0.903309      0.041255      0.652910
    10     1      0.155574      0.290904      0.652574
    11     1      0.319688      0.402253      0.822225
    12     1      0.070625      0.152246      0.821661
    13     1      0.044222      0.490366      0.986929
    14     1      0.295590      0.740961      0.986832
    15     1      0.278455      0.911158      0.151160
    16     1      0.029197      0.661789      0.151356
    17     1      0.971771      0.515363      0.319695
    18     1      0.221608      0.765734      0.319979
    19     1      0.207270      0.940419      0.484983
    20     1      0.957180      0.691588      0.485044
    21     1      0.906642      0.540872      0.651994
    22     1      0.155662      0.790928      0.652608
    23     1      0.320553      0.901809      0.821703
    24     1      0.069439      0.651728      0.822697
    25     1      0.547061      0.990425      0.986323
    26     1      0.796773      0.241144      0.986050
    27     1      0.775532      0.411294      0.151623
    28     1      0.528752      0.160936      0.152032
    29     1      0.471102      0.014553      0.318969
    30     1      0.719622      0.264295      0.319234
    31     1      0.708044      0.440248      0.484869
    32     1      0.455313      0.190718      0.484270
    33     1      0.405820      0.040808      0.652578
    34     1      0.655156      0.290487      0.652832
    35     1      0.819897      0.401239      0.821067
    36     1      0.571069      0.150466      0.822571
    37     1      0.545481      0.491859      0.986796
    38     1      0.796381      0.740922      0.986316
    39     1      0.777859      0.912241      0.151755
    40     1      0.528066      0.662022      0.151555
    41     1      0.472164      0.515003      0.319569
    42     1      0.722105      0.765201      0.319915
    43     1      0.705959      0.941506      0.485687
    44     1      0.457434      0.690582      0.484679
    45     1      0.406634      0.541657      0.652670
    46     1      0.657082      0.790241      0.652789
    47     1      0.820713      0.900980      0.821949
    48     1      0.567715      0.652130      0.822626
ITEM: TIMESTEP
64500
ITEM: NUMBER OF ATOMS
48
ITEM: BOX BOUNDS xy xz yz  pp  pp  pp
     -0.003081      2.203080      0.000000
     -0.005336      3.815850      0.000000
     -0.007546      5.396420      0.000000
ITEM: ATOMS id type xs ys zs
     1     1      0.047497      0.990856      0.986841
     2     1      0.297877      0.241382      0.987013
     3     1      0.278434      0.411861      0.151754
     4     1      0.027946      0.161195      0.151565
     5     1      0.970466      0.014444      0.320925
     6     1      0.221097      0.264861      0.319313
     7     1      0.205863      0.439601      0.484838
     8     1      0.955010      0.190407      0.484337
     9     1      0.903152      0.041227      0.652880
    10     1      0.155793      0.290434      0.652242
    11     1      0.321306      0.402032      0.822134
    12     1      0.071268      0.152025      0.821872
    13     1      0.045924      0.490139      0.987244
    14     1      0.295259      0.741122      0.986399
    15     1      0.277930      0.911475      0.151094
    16     1      0.028320      0.661458      0.151565
    17     1      0.971786      0.515453      0.320062