ITEM: TIMESTEP
64001
ITEM: NUMBER OF ATOMS
48
ITEM: BOX BOUNDS xy xz yz  pp  pp  pp
     -0.003081      2.203080      0.000000
     -0.005336      3.815850      0.000000
     -0.007546      5.396420      0.000000
ITEM: ATOMS id type xs ys zs
     1     1      0.049007      0.988365      0.986965
     2     1      0.293169      0.237213      0.986124
     3     1      0.272397      0.408524      0.151687
     4     1      0.022483      0.159195      0.150376
     5     1      0.967475      0.015497      0.318994
     6     1      0.220117      0.262947      0.318750
     7     1      0.212452      0.443068      0.485077
     8     1      0.959357      0.195900      0.485236
     9     1      0.907912      0.044660      0.651924
    10     1      0.153417      0.294582      0.653482
    11     1      0.322792      0.400881      0.822782
    12     1      0.073775      0.149350      0.821867
    13     1      0.039055      0.487192      0.987090
    14     1      0.292320      0.735855      0.986864
    15     1      0.278067      0.908716      0.151228
    16     1      0.026358      0.657917      0.152840
    17     1      0.972206      0.513405      0.320748
    18     1      0.219479      0.764516      0.319921
    19     1      0.209058      0.943793      0.484274
    20     1      0.963795      0.692961      0.485626
    21     1      0.904304      0.544414      0.652511
    22     1      0.157680      0.794808      0.653329
    23     1      0.329345      0.899395      0.821687
    24     1      0.073793      0.648940      0.821691
    25     1      0.549200      0.987235      0.986193
    26     1      0.791347      0.238043      0.985524
    27     1      0.772964      0.409895      0.153179
    28     1      0.523708      0.159666      0.151447
    29     1      0.468178      0.016024      0.319791
    30     1      0.720595      0.265138      0.320197
    31     1      0.709798      0.444747      0.484594
    32     1      0.459152      0.193451      0.484239
    33     1      0.408972      0.042730      0.650908
    34     1      0.651857      0.295033      0.651292
    35     1      0.823653      0.399369      0.820463
    36     1      0.572629      0.150256      0.820183
    37     1      0.542017      0.488380      0.987988
    38     1      0.794126      0.737916      0.988997
    39     1      0.776577      0.909097      0.152409
    40     1      0.526008      0.659820      0.152876
    41     1      0.469604      0.513687      0.319476
    42     1      0.720662      0.763959      0.320501
    43     1      0.712116      0.943280      0.483856
    44     1      0.462502      0.694558      0.485230
    45     1      0.404463      0.544571      0.653264
    46     1      0.658381      0.793827      0.653232
    47     1      0.828771      0.898777      0.822416
    48     1      0.575675      0.649154      0.822905
ITEM: TIMESTEP
64050
ITEM: NUMBER OF ATOMS
48
ITEM: BOX BOUNDS xy xz yz  pp  pp  pp
     -0.003081      2.203080      0.000000
     -0.005336      3.815850      0.000000
     -0.007546      5.396420      0.000000
ITEM: ATOMS id type xs ys zs
     1     1      0.049955      0.988331      0.986435
     2     1      0.292918      0.237192      0.986235
     3     1      0.272808      0.408860      0.151595
     4     1      0.024952      0.158779      0.151026
     5     1      0.970109      0.015192      0.319119
     6     1      0.220088      0.263613      0.319526
     7     1      0.211793      0.442832      0.485691
     8     1      0.958096      0.194498      0.485058
     9     1      0.907736      0.043649      0.651455
    10     1      0.153676      0.293648      0.653190
    11     1      0.323387      0.400903      0.822512
    12     1      0.074131      0.148909      0.821449
    13     1      0.040951      0.488035      0.986689
    14     1      0.293340      0.737645      0.987072
    15     1      0.279609      0.908915      0.151652
    16     1      0.026929      0.658401      0.152587
    17     1      0.972071      0.513965      0.320883
    18     1      0.220870      0.763798      0.319862
    19     1      0.208693      0.943221      0.483688
    20     1      0.962301      0.693164      0.485860
    21     1      0.904520      0.543570      0.652815
    22     1      0.157395      0.795217      0.652722
    23     1      0.327392      0.899695      0.821788
    24     1      0.073819      0.649772      0.821743
    25     1      0.549179      0.987371      0.986540
    26     1      0.791921      0.239352      0.986360
    27     1      0.774739      0.409939      0.152705
    28     1      0.525451      0.160101      0.151507
    29     1      0.468835      0.015714      0.319463
    30     1      0.721083      0.264566      0.320129
    31     1      0.709878      0.443861      0.485071
    32     1      0.459777      0.192372      0.484044
    33     1      0.408747      0.042809      0.650925
    34     1      0.651995      0.294397      0.651681
    35     1      0.822973      0.399267      0.820971
    36     1      0.573260      0.149918      0.820511
    37     1      0.541859      0.488453      0.987640
    38     1      0.794652      0.739245      0.988888
    39     1      0.776812      0.910118      0.152862
    40     1      0.525917      0.660144      0.152638
    41     1      0.471209      0.513305      0.319243
    42     1      0.721253      0.763020      0.320089
    43     1      0.710723      0.942196      0.484161
    44     1      0.461659      0.693389      0.485034
    45     1      0.404917      0.543984      0.653637
    46     1      0.658221      0.793195      0.653050
    47     1      0.827115      0.899580      0.822188
    48     1      0.575520      0.650171      0.823160
ITEM: TIMESTEP
64100
ITEM: NUMBER OF ATOMS
48
ITEM: BOX BOUNDS xy xz yz  pp  pp  pp
     -0.003081      2.203080      0.000000
     -0.005336      3.815850      0.000000
     -0.007546      5.396420      0.000000
ITEM: ATOMS id type xs ys zs
     1     1      0.049838      0.988814      0.986392
     2     1      0.293134      0.237514      0.986421
     3     1      0.273592      0.409280      0.151348
     4     1      0.025600      0.159766      0.150869
     5     1      0.970889      0.015256      0.319568
     6     1      0.219057      0.263408      0.320531
     7     1      0.210236      0.442089      0.486371
     8     1      0.955101      0.194789      0.500565
     9     1      0.905877      0.039781      0.655518
    10     1      0.158716      0.295100      0.656956
    11     1      0.323830      0.400992      0.822585
    12     1      0.073184      0.149545      0.821966
    13     1      0.040935      0.488748      0.985077
    14     1      0.294302      0.738352      0.986726
    15     1      0.279620      0.909142      0.151762
    16     1      0.028217      0.658817      0.152180
    17     1      0.972168      0.513943      0.320756
    18     1      0.221809      0.764505      0.319771
    19     1      0.207725      0.942855      0.483878
    20     1      0.962137      0.693671      0.485266
    21     1      0.908159      0.546224      0.648846
    22     1      0.156884      0.793975      0.652555
    23     1      0.326748      0.900155      0.821954
    24     1      0.072956      0.649631      0.821540
    25     1      0.548840      0.988032      0.986563
    26     1      0.792586      0.239659      0.985022
    27     1      0.774992      0.409725      0.152833
    28     1      0.525664      0.159801      0.151889
    29     1      0.470425      0.014829      0.319708
    30     1      0.723404      0.263954      0.320855
    31     1      0.708697      0.443809      0.484325
    32     1      0.457747      0.191551      0.483557
    33     1      0.406978      0.042329      0.651382
    34     1      0.646841      0.290189      0.647974
    35     1      0.826318      0.398731      0.805508
    36     1      0.573335      0.150205      0.820801
    37     1      0.543250      0.489282      0.987573
    38     1      0.795621      0.739437      0.988608
    39     1      0.776453      0.910035      0.152289
    40     1      0.527718      0.660677      0.152317
    41     1      0.471226      0.513400      0.319898
    42     1      0.723182      0.764002      0.319870
    43     1      0.709847      0.942627      0.484700
    44     1      0.459309      0.693717      0.485134
    45     1      0.406151      0.543187      0.653231
    46     1      0.657304      0.793405      0.652765
    47     1      0.825355      0.899463      0.822472
    48     1      0.575957      0.650003      0.822895
ITEM: TIMESTEP
64150
ITEM: NUMBER OF ATOMS
48
ITEM: BOX BOUNDS xy xz yz  pp  pp  pp
     -0.003081      2.203080      0.000000
     -0.005336      3.815850      0.000000
     -0.007546      5.396420      0.000000
ITEM: ATOMS id type xs ys zs
     1     1      0.047372      0.988597      0.986641
     2     1      0.294962      0.237967      0.986850
     3     1      0.272854      0.410067      0.151835
     4     1      0.025753      0.159053      0.151072
     5     1      0.970437      0.015699      0.320148
     6     1      0.218658      0.263890      0.320951
     7     1      0.209049      0.441619      0.486539
     8     1      0.954693      0.194619      0.494443
     9     1      0.905277      0.039458      0.655498
    10     1      0.155645      0.295536      0.656790
    11     1      0.325012      0.401405      0.823606
    12     1      0.073749      0.149704      0.822610
    13     1      0.042724      0.489128      0.984596
    14     1      0.295621      0.738304      0.986943
    15     1      0.279013      0.909625      0.152011
    16     1      0.026991      0.659148      0.152257
    17     1      0.972465      0.514110      0.320785
    18     1      0.223385      0.764517      0.319627
    19     1      0.207505      0.942708      0.484325
    20     1      0.960344      0.693924      0.484667
    21     1      0.907368      0.545058      0.648713
    22     1      0.155846      0.793568      0.652877
    23     1      0.325741      0.900438      0.822273
    24     1      0.073270      0.650252      0.820604
    25     1      0.548139      0.989677      0.987062
    26     1      0.794844      0.241105      0.984699
    27     1      0.775238      0.410215      0.152515
    28     1      0.525569      0.160930      0.152423
    29     1      0.471406      0.015150      0.320067
    30     1      0.722717      0.264061      0.321337
    31     1      0.707456      0.442199      0.484212
    32     1      0.456579      0.190632      0.484121
    33     1      0.406194      0.041896      0.651794
    34     1      0.650035      0.290659      0.648662
    35     1      0.826759      0.399582      0.812462
    36     1      0.573426      0.151297      0.820824
    37     1      0.544717      0.489338      0.987542
    38     1      0.796480      0.739125      0.987684
    39     1      0.777941      0.910836      0.152341
    40     1      0.528776      0.660677      0.152141
    41     1      0.471456      0.514092      0.319930
    42     1      0.722840      0.764406      0.320273
    43     1      0.709184      0.942626      0.485580
    44     1      0.459246      0.691742      0.485194
    45     1      0.407294      0.542130      0.653184
    46     1      0.656497      0.792593      0.653175
    47     1      0.823942      0.899609      0.823150
    48     1      0.574504      0.649390      0.822780
ITEM: TIMESTEP
64200
ITEM: NUMBER OF ATOMS
48
ITEM: BOX BOUNDS xy xz yz  pp  pp  pp
     -0.003081      2.203080      0.000000
     -0.005336      3.815850      0.000000
     -0.007546      5.396420      0.000000
ITEM: ATOMS id type xs ys zs
     1     1      0.047203      0.989885      0.987270
     2     1      0.297522      0.238177      0.974578
     3     1      0.273678      0.409294      0.150894
     4     1      0.025429      0.160114      0.150600
     5     1      0.970819      0.015910      0.320050
     6     1      0.216703      0.264677      0.320500
     7     1      0.208445      0.441537      0.485948
     8     1      0.954280      0.193772      0.490952
     9     1      0.903693      0.039417      0.654214
    10     1      0.152602      0.293894      0.656008
    11     1      0.328472      0.404112      0.820245
    12     1      0.066820      0.147381      0.819004
    13     1      0.043426      0.489833      0.985218
    14     1      0.295511      0.738744      0.987246
    15     1      0.278806      0.909869      0.152125
    16     1      0.026515      0.660013      0.151433
    17     1      0.971165      0.514220      0.320498
    18     1      0.222581      0.764474      0.319962
    19     1      0.208181      0.942725      0.484597
    20     1      0.960838      0.693086      0.484251
    21     1      0.905953      0.544149      0.650224
    22     1      0.156143      0.792858      0.651926
    23     1      0.325024      0.900356      0.822434
    24     1      0.073537      0.650441      0.820508
    25     1      0.547560      0.990039      0.987210
    26     1      0.795839      0.241448      0.985294
    27     1      0.774824      0.410717      0.152739
    28     1      0.523434      0.161775      0.150509
    29     1      0.473184      0.015038      0.319853
    30     1      0.720418      0.264361      0.320977
    31     1      0.706086      0.440964      0.485455
    32     1      0.457134      0.191278      0.485353
    33     1      0.405234      0.041572      0.651966
    34     1      0.647638      0.291705      0.662483
    35     1      0.831309      0.402528      0.820038
    36     1      0.573234      0.146956      0.823218
    37     1      0.544690      0.489739      0.987559
    38     1      0.796203      0.740329      0.987675
    39     1      0.779387      0.910556      0.152344
    40     1      0.527784      0.660478      0.151794
    41     1      0.469867      0.514323      0.319738
    42     1      0.722227      0.764115      0.320475
    43     1      0.709952      0.941912      0.485703
    44     1      0.458530      0.691364      0.485136
    45     1      0.407278      0.542226      0.652205
    46     1      0.654968      0.792084      0.652997
    47     1      0.821221      0.899007      0.823227
    48     1      0.574401      0.650054      0.822715
ITEM: TIMESTEP
64250
ITEM: NUMBER OF ATOMS
48
ITEM: BOX BOUNDS xy xz yz  pp  pp  pp
     -0.003081      2.203080      0.000000
     -0.005336      3.815850      0.000000
     -0.007546      5.396420      0.000000
ITEM: ATOMS id type xs ys zs
     1     1      0.046852      0.989907      0.987243
     2     1      0.297945      0.239331      0.980118
     3     1      0.274593      0.409880      0.149770
     4     1      0.026210      0.161009      0.150465
     5     1      0.971364      0.016151      0.320451
     6     1      0.218340      0.264169      0.320331
     7     1      0.207894      0.440966      0.486111
     8     1      0.955550      0.192648      0.489030
     9     1      0.903655      0.039572      0.653535
    10     1      0.151827      0.293002      0.654372
    11     1      0.322096      0.400610      0.817126
    12     1      0.069977      0.148127      0.819506
    13     1      0.046180      0.489785      0.985722
    14     1      0.297468      0.739578      0.987055
    15     1      0.277630      0.910586      0.151964
    16     1      0.027135      0.659994      0.151806
    17     1      0.970263      0.514596      0.320439
    18     1      0.220835      0.764906      0.320209
    19     1      0.207883      0.941397      0.484389
    20     1      0.958688      0.690758      0.486052
    21     1      0.903114      0.543630      0.666879
    22     1      0.154987      0.792257      0.652141
    23     1      0.323283      0.900783      0.822106
    24     1      0.076685      0.654004      0.824907
    25     1      0.546852      0.989893      0.987561
    26     1      0.796117      0.240538      0.985488
    27     1      0.772991      0.411371      0.150838
    28     1      0.524431      0.162393      0.150821
    29     1      0.471780      0.014722      0.319263
    30     1      0.719986      0.264231      0.320841
    31     1      0.708584      0.441782      0.487066
    32     1      0.457025      0.191292      0.485970
    33     1      0.403468      0.042360      0.652388
    34     1      0.650885      0.291476      0.657874
    35     1      0.829557      0.397502      0.823530
    36     1      0.571484      0.147644      0.823150
    37     1      0.548424      0.488765      0.971943
    38     1      0.796319      0.739464      0.987465
    39     1      0.779055      0.910439      0.152342
    40     1      0.527262      0.660547      0.151294
    41     1      0.469364      0.513816      0.319730
    42     1      0.721257      0.764330      0.319932
    43     1      0.708984      0.942016      0.485908
    44     1      0.458567      0.691729      0.484625
    45     1      0.405694      0.543021      0.651892
    46     1      0.654297      0.791847      0.653249
    47     1      0.821521      0.899793      0.822949
    48     1      0.573747      0.653478      0.819746
ITEM: TIMESTEP
64300
ITEM: NUMBER OF ATOMS
48
ITEM: BOX BOUNDS xy xz yz  pp  pp  pp
     -0.003081      2.203080      0.000000
     -0.005336      3.815850      0.000000
     -0.007546      5.396420      0.000000
ITEM: ATOMS id type xs ys zs
     1     1      0.047037      0.990140      0.986445
     2     1      0.297202      0.240135      0.982550
     3     1      0.275698      0.410439      0.150310
     4     1      0.026442      0.161231      0.150919
     5     1      0.970842      0.015999      0.320681
     6     1      0.219848      0.264475      0.320436
     7     1      0.208070      0.440342      0.485343
     8     1      0.956601      0.191890      0.487489
     9     1      0.902599      0.040223      0.652953
    10     1      0.151853      0.291829      0.653267
    11     1      0.322030      0.400465      0.817542
    12     1      0.071147      0.147778      0.820198
    13     1      0.047177      0.489230      0.986740
    14     1      0.299470      0.739961      0.987401
    15     1      0.278822      0.910583      0.151930
    16     1      0.026118      0.661317      0.152141
    17     1      0.968997      0.514235      0.320023
    18     1      0.221154      0.764395      0.320251
    19     1      0.208568      0.941140      0.484832
    20     1      0.957928      0.689874      0.486787
    21     1      0.901796      0.543557      0.660569
    22     1      0.155165      0.792148      0.653081
    23     1      0.321813      0.900983      0.821834
    24     1      0.074623      0.653211      0.825065
    25     1      0.548093      0.989785      0.987008
    26     1      0.796436      0.239740      0.986234
    27     1      0.773861      0.411527      0.150422
    28     1      0.524977      0.162306      0.150991
    29     1      0.471808      0.015181      0.319981
    30     1      0.719681      0.264637      0.320045
    31     1      0.707415      0.442073      0.487986
    32     1      0.458237      0.191876      0.485867
    33     1      0.403067      0.041903      0.652523
    34     1      0.650119      0.292035      0.655412
    35     1      0.827702      0.396726      0.823667
    36     1      0.570838      0.148330      0.822302
    37     1      0.548612      0.488877      0.979205
    38     1      0.796636      0.739100      0.987410
    39     1      0.779229      0.910678      0.152701
    40     1      0.526637      0.659868      0.151285
    41     1      0.468192      0.514049      0.319924
    42     1      0.721369      0.764509      0.320499
    43     1      0.709326      0.941014      0.485277
    44     1      0.459015      0.692014      0.484683
    45     1      0.404042      0.543151      0.651573
    46     1      0.653622      0.792619      0.652209
    47     1      0.820078      0.900138      0.823107
    48     1      0.574152      0.652719      0.819633
ITEM: TIMESTEP
64350
ITEM: NUMBER OF ATOMS
48
ITEM: BOX BOUNDS xy xz yz  pp  pp  pp
     -0.003081      2.203080      0.000000
     -0.005336      3.815850      0.000000
     -0.007546      5.396420      0.000000
ITEM: ATOMS id type xs ys zs
     1     1      0.047128      0.990391      0.986859
     2     1      0.296267      0.239898      0.983551
     3     1      0.276875      0.410244      0.150510
     4     1      0.025882      0.161229      0.151821
     5     1      0.970090      0.015661      0.320157
     6     1      0.219471      0.264625      0.320166
     7     1      0.206804      0.440141      0.484737
     8     1      0.956756      0.191249      0.485913
     9     1      0.902675      0.040045      0.652763
    10     1      0.150382      0.291056      0.652638
    11     1      0.322849      0.400550      0.818697
    12     1      0.071819      0.149008      0.821123
    13     1      0.047471      0.489169      0.986733
    14     1      0.298262      0.740916      0.987806
    15     1      0.279636      0.910817      0.152179
    16     1      0.026691      0.660846      0.152542
    17     1      0.969182      0.514361      0.319597
    18     1      0.221862      0.765011      0.319703
    19     1      0.207834      0.941021      0.484895
    20     1      0.957281      0.689367      0.486547
    21     1      0.902412      0.542808      0.657482
    22     1      0.154373      0.791308      0.653039
    23     1      0.320074      0.900638      0.821675
    24     1      0.073739      0.652106      0.824499
    25     1      0.546756      0.990206      0.987432
    26     1      0.798700      0.239229      0.986827
    27     1      0.774676      0.411885      0.150646
    28     1      0.525289      0.161928      0.151219
    29     1      0.470954      0.015416      0.319639
    30     1      0.720121      0.265100      0.320296
    31     1      0.707021      0.442332      0.487618
    32     1      0.458102      0.191638      0.485542
    33     1      0.403472      0.041678      0.652556
    34     1      0.651894      0.291567      0.654747
    35     1      0.826021      0.397490      0.823009
    36     1      0.571332      0.148631      0.822467
    37     1      0.546765      0.489292      0.982257
    38     1      0.797592      0.739577      0.986667
    39     1      0.777647      0.910861      0.152548
    40     1      0.528253      0.659745      0.151337
    41     1      0.470285      0.513841      0.319777
    42     1      0.721709      0.764648      0.320666
    43     1      0.708303      0.941688      0.484727
    44     1      0.458629      0.690756      0.484946
    45     1      0.402737      0.542130      0.651161
    46     1      0.655469      0.792324      0.652071
    47     1      0.820427      0.900795      0.822490
    48     1      0.573327      0.651413      0.819986
ITEM: TIMESTEP
64400
ITEM: NUMBER OF ATOMS
48
ITEM: BOX BOUNDS xy xz yz  pp  pp  pp
     -0.003081      2.203080      0.000000
     -0.005336      3.815850      0.000000
     -0.007546      5.396420      0.000000
ITEM: ATOMS id type xs ys zs
     1     1      0.047701      0.990424      0.986734
     2     1      0.296510      0.240052      0.983967
     3     1      0.277949      0.410579      0.151036
     4     1      0.027061      0.160706      0.151292
     5     1      0.970317      0.015262      0.320365
     6     1      0.220639      0.265178      0.319711
     7     1      0.206628      0.440294      0.484716
     8     1      0.957015      0.191183      0.485428
     9     1      0.903699      0.040181      0.652378
    10     1      0.150473      0.291442      0.652572
    11     1      0.322327      0.400349      0.819506
    12     1      0.071803      0.149283      0.820816
    13     1      0.048184      0.489886      0.987004
    14     1      0.297667      0.740879      0.987309
    15     1      0.280392      0.911324      0.151917
    16     1      0.028517      0.660853      0.151943
    17     1      0.969174      0.514390      0.320199
    18     1      0.222226      0.765096      0.319600
    19     1      0.208394      0.939849      0.484530
    20     1      0.956877      0.689828      0.485741
    21     1      0.901869      0.542117      0.655745
    22     1      0.155392      0.791328      0.653099
    23     1      0.320295      0.900160      0.822078
    24     1      0.072838      0.651470      0.823829
    25     1      0.546957      0.990420      0.987229
    26     1      0.798317      0.240379      0.986553
    27     1      0.776499      0.411310      0.151063
    28     1      0.528079      0.162509      0.151663
    29     1      0.470506      0.016205      0.319473
    30     1      0.720411      0.265359      0.320021
    31     1      0.706864      0.441464      0.487428
    32     1      0.455927      0.191640      0.485185
    33     1      0.401908      0.041509      0.653020
    34     1      0.651438      0.290680      0.654187
    35     1      0.823879      0.398592      0.822569
    36     1      0.571197      0.149018      0.822203
    37     1      0.547805      0.489845      0.984334
    38     1      0.796423      0.740669      0.986258
    39     1      0.779219      0.910837      0.152178
    40     1      0.528532      0.660616      0.151619
    41     1      0.471009      0.513645      0.320138
    42     1      0.722123      0.764434      0.320118
    43     1      0.707470      0.941582      0.484341
    44     1      0.457106      0.690744      0.484440
    45     1      0.402279      0.541462      0.651276
    46     1      0.654425      0.791647      0.651721
    47     1      0.818494      0.900165      0.822198
    48     1      0.573105      0.650826      0.819953
ITEM: TIMESTEP
64450
ITEM: NUMBER OF ATOMS
48
ITEM: BOX BOUNDS xy xz yz  pp  pp  pp
     -0.003081      2.203080      0.000000
     -0.005336      3.815850      0.000000
     -0.007546      5.396420      0.000000
ITEM: ATOMS id type xs ys zs
     1     1      0.047022      0.990674      0.986562
     2     1      0.298344      0.240262      0.985108
     3     1      0.278243      0.410938      0.151122
     4     1      0.028701      0.161453      0.151597
     5     1      0.970582      0.015765      0.320231
     6     1      0.219293      0.265500      0.319869
     7     1      0.206369      0.439701      0.485099
     8     1      0.956151      0.191232      0.485191
     9     1      0.903216      0.040336      0.652635
    10     1      0.151971      0.291575      0.651983
    11     1      0.322232      0.400983      0.820360
    12     1      0.071219      0.150084      0.820749
    13     1      0.048051      0.489820      0.986853
    14     1      0.298427      0.740797      0.987493
    15     1      0.280678      0.911652      0.152102
    16     1      0.028538      0.661452      0.151810
    17     1      0.970531      0.515079      0.320139
    18     1      0.221599      0.764537      0.320022
    19     1      0.208584      0.939902      0.484774
    20     1      0.957425      0.689918      0.485680
    21     1      0.903776      0.541592      0.654289
    22     1      0.154735      0.790623      0.653526
    23     1      0.320719      0.900274      0.821634
    24     1      0.073268      0.651235      0.823495
    25     1      0.547165      0.990297      0.987153
    26     1      0.797785      0.239507      0.986730
    27     1      0.777179      0.411297      0.151286
    28     1      0.528978      0.162163      0.151646
    29     1      0.469745      0.015952      0.319368
    30     1      0.719000      0.265751      0.320525
    31     1      0.705771      0.441677      0.486850
    32     1      0.457133      0.191247      0.485053
    33     1      0.402796      0.041217      0.653168
    34     1      0.652768      0.290335      0.653967
    35     1      0.822258      0.398976      0.822153
    36     1      0.569555      0.149544      0.822870
    37     1      0.547714      0.490790      0.985449
    38     1      0.798221      0.740117      0.986959
    39     1      0.780210      0.911048      0.151801
    40     1      0.528711      0.660232      0.151992
    41     1      0.470733      0.514601      0.320163
    42     1      0.722629      0.765285      0.319912
    43     1      0.706783      0.942139      0.484380
    44     1      0.456224      0.691140      0.484487
    45     1      0.404253      0.541612      0.651559
    46     1      0.654458      0.791914      0.651703
    47     1      0.818971      0.900984      0.822268
    48     1      0.572738      0.650790      0.820602
ITEM: TIMESTEP
64500
ITEM: NUMBER OF ATOMS
48
ITEM: BOX BOUNDS xy xz yz  pp  pp  pp
     -0.003081      2.203080      0.000000
     -0.005336      3.815850      0.000000
     -0.007546      5.396420      0.000000
ITEM: ATOMS id type xs ys zs
     1     1      0.047712      0.990544      0.986788
     2     1      0.298986      0.240383      0.985778
     3     1      0.279184      0.411620      0.151429
     4     1      0.029787      0.162130      0.151476
     5     1      0.970781      0.015910      0.319588
     6     1      0.218920      0.265041      0.319978
     7     1      0.206456      0.439661      0.484946
     8     1      0.957438      0.190773      0.484786
     9     1      0.904110      0.040294      0.652348
    10     1      0.151697      0.290971      0.651893
    11     1      0.322135      0.401678      0.821268
    12     1      0.071790      0.150931      0.820646
    13     1      0.048636      0.490155      0.986950
    14     1      0.297752      0.740412      0.987083
    15     1      0.279636      0.911223      0.151512
    16     1      0.027872      0.661542      0.151875
    17     1      0.971426      0.514984      0.320316