ITEM: TIMESTEP
64001
ITEM: NUMBER OF ATOMS
48
ITEM: BOX BOUNDS xy xz yz  pp  pp  pp
     -0.003081      2.203080      0.000000
     -0.005336      3.815850      0.000000
     -0.007546      5.396420      0.000000
ITEM: ATOMS id type xs ys zs
     1     1      0.048681      0.988231      0.986956
     2     1      0.292841      0.237334      0.986213
     3     1      0.272579      0.408677      0.151667
     4     1      0.022296      0.159276      0.150359
     5     1      0.967290      0.015516      0.319069
     6     1      0.220478      0.262944      0.318749
     7     1      0.212156      0.443300      0.484991
     8     1      0.959163      0.195815      0.485125
     9     1      0.907884      0.044595      0.651854
    10     1      0.153556      0.294553      0.653559
    11     1      0.323001      0.401036      0.822800
    12     1      0.073763      0.149367      0.821773
    13     1      0.038931      0.487167      0.986906
    14     1      0.292478      0.735912      0.986879
    15     1      0.277862      0.908682      0.151287
    16     1      0.026482      0.657905      0.152858
    17     1      0.972129      0.513535      0.320611
    18     1      0.219209      0.764599      0.319786
    19     1      0.208762      0.944039      0.484332
    20     1      0.963793      0.692905      0.485574
    21     1      0.904721      0.544271      0.652381
    22     1      0.157801      0.794854      0.653303
    23     1      0.329359      0.899308      0.821780
    24     1      0.073800      0.649326      0.821697
    25     1      0.549130      0.987228      0.986264
    26     1      0.791194      0.237823      0.985477
    27     1      0.772877      0.409965      0.153126
    28     1      0.523825      0.159612      0.151462
    29     1      0.467593      0.015931      0.319715
    30     1      0.720454      0.264890      0.320122
    31     1      0.709899      0.444903      0.484555
    32     1      0.459014      0.193603      0.484294
    33     1      0.409010      0.042860      0.650991
    34     1      0.651948      0.294786      0.651124
    35     1      0.823910      0.399298      0.820464
    36     1      0.572594      0.150200      0.820124
    37     1      0.541809      0.488567      0.988017
    38     1      0.794098      0.737973      0.988914
    39     1      0.776364      0.908958      0.152421
    40     1      0.525946      0.659877      0.152892
    41     1      0.469437      0.513594      0.319507
    42     1      0.721060      0.764062      0.320402
    43     1      0.712137      0.943169      0.483936
    44     1      0.462440      0.694440      0.485174
    45     1      0.404601      0.544581      0.653371
    46     1      0.658690      0.793821      0.653149
    47     1      0.828976      0.898865      0.822479
    48     1      0.575522      0.649364      0.822901
ITEM: TIMESTEP
64050
ITEM: NUMBER OF ATOMS
48
ITEM: BOX BOUNDS xy xz yz  pp  pp  pp
     -0.003081      2.203080      0.000000
     -0.005336      3.815850      0.000000
     -0.007546      5.396420      0.000000
ITEM: ATOMS id type xs ys zs
     1     1      0.048722      0.988673      0.986603
     2     1      0.294294      0.237386      0.986622
     3     1      0.273539      0.409338      0.152153
     4     1      0.023118      0.159120      0.150405
     5     1      0.968643      0.014810      0.319405
     6     1      0.220559      0.264393      0.319383
     7     1      0.210688      0.442931      0.484991
     8     1      0.959691      0.194412      0.485197
     9     1      0.907547      0.043452      0.652449
    10     1      0.153948      0.294352      0.653329
    11     1      0.322771      0.401067      0.822734
    12     1      0.073225      0.149931      0.822225
    13     1      0.040667      0.486696      0.986832
    14     1      0.293403      0.737018      0.987228
    15     1      0.277823      0.908772      0.151373
    16     1      0.026220      0.658923      0.153087
    17     1      0.970565      0.514021      0.320616
    18     1      0.220366      0.764687      0.320087
    19     1      0.209542      0.944144      0.484546
    20     1      0.963473      0.692933      0.485265
    21     1      0.906173      0.544173      0.652635
    22     1      0.157224      0.794288      0.653136
    23     1      0.328697      0.899873      0.821578
    24     1      0.075044      0.649863      0.822050
    25     1      0.549218      0.988722      0.986651
    26     1      0.792619      0.238729      0.985559
    27     1      0.774214      0.410254      0.152220
    28     1      0.523672      0.159411      0.151797
    29     1      0.467472      0.015401      0.319877
    30     1      0.720992      0.264948      0.320031
    31     1      0.710711      0.444363      0.485175
    32     1      0.458257      0.193333      0.484110
    33     1      0.408004      0.042956      0.651579
    34     1      0.653872      0.294888      0.651760
    35     1      0.822765      0.400035      0.820744
    36     1      0.573153      0.150359      0.820420
    37     1      0.542263      0.488152      0.987492
    38     1      0.794065      0.738087      0.988270
    39     1      0.775798      0.910237      0.152272
    40     1      0.527180      0.659576      0.152191
    41     1      0.470757      0.514658      0.319497
    42     1      0.721158      0.763670      0.320579
    43     1      0.711334      0.942749      0.483954
    44     1      0.461924      0.693490      0.485188
    45     1      0.405267      0.543152      0.652883
    46     1      0.657674      0.793250      0.652739
    47     1      0.827544      0.899049      0.822199
    48     1      0.576125      0.649323      0.822892
ITEM: TIMESTEP
64100
ITEM: NUMBER OF ATOMS
48
ITEM: BOX BOUNDS xy xz yz  pp  pp  pp
     -0.003081      2.203080      0.000000
     -0.005336      3.815850      0.000000
     -0.007546      5.396420      0.000000
ITEM: ATOMS id type xs ys zs
     1     1      0.048152      0.989443      0.986545
     2     1      0.294147      0.237912      0.987024
     3     1      0.274642      0.409544      0.151825
     4     1      0.024054      0.160116      0.150518
     5     1      0.968699      0.016195      0.319420
     6     1      0.219432      0.264096      0.319047
     7     1      0.210637      0.442620      0.484722
     8     1      0.955817      0.194834      0.503058
     9     1      0.905543      0.038994      0.655741
    10     1      0.158338      0.296023      0.656373
    11     1      0.322840      0.400241      0.823170
    12     1      0.074154      0.149317      0.822390
    13     1      0.041619      0.487272      0.986077
    14     1      0.294703      0.738278      0.987452
    15     1      0.276641      0.909288      0.151621
    16     1      0.026242      0.658825      0.152429
    17     1      0.970800      0.513937      0.320840
    18     1      0.220824      0.764770      0.319779
    19     1      0.207996      0.943492      0.484744
    20     1      0.962664      0.692459      0.485211
    21     1      0.908108      0.547449      0.649503
    22     1      0.157906      0.793537      0.653302
    23     1      0.326253      0.899420      0.821885
    24     1      0.075154      0.649030      0.821892
    25     1      0.548968      0.988701      0.986761
    26     1      0.794146      0.239676      0.985012
    27     1      0.776344      0.409793      0.151802
    28     1      0.524023      0.159756      0.151981
    29     1      0.468133      0.015420      0.319668
    30     1      0.722183      0.264529      0.321130
    31     1      0.711787      0.443413      0.484397
    32     1      0.457621      0.191795      0.483720
    33     1      0.406390      0.042169      0.651920
    34     1      0.647942      0.291310      0.648562
    35     1      0.825350      0.399403      0.803409
    36     1      0.573810      0.150754      0.820546
    37     1      0.543742      0.488535      0.987408
    38     1      0.795248      0.739417      0.987831
    39     1      0.776903      0.910355      0.152537
    40     1      0.526342      0.660519      0.151752
    41     1      0.470383      0.514242      0.319536
    42     1      0.721884      0.763241      0.320234
    43     1      0.711368      0.942392      0.484019
    44     1      0.460560      0.692340      0.485140
    45     1      0.405641      0.543330      0.653567
    46     1      0.656772      0.792953      0.652412
    47     1      0.826560      0.899631      0.822690
    48     1      0.577247      0.649392      0.822113
ITEM: TIMESTEP
64150
ITEM: NUMBER OF ATOMS
48
ITEM: BOX BOUNDS xy xz yz  pp  pp  pp
     -0.003081      2.203080      0.000000
     -0.005336      3.815850      0.000000
     -0.007546      5.396420      0.000000
ITEM: ATOMS id type xs ys zs
     1     1      0.048832      0.990253      0.987146
     2     1      0.332013      0.238084      0.973651
     3     1      0.275437      0.409702      0.150272
     4     1      0.025624      0.159979      0.150743
     5     1      0.968954      0.015735      0.319775
     6     1      0.218792      0.263489      0.320341
     7     1      0.210545      0.441924      0.485388
     8     1      0.954062      0.193704      0.493843
     9     1      0.903258      0.039492      0.655276
    10     1      0.134502      0.296817      0.657119
    11     1      0.322307      0.404422      0.819946
    12     1      0.074721      0.148852      0.821083
    13     1      0.043994      0.487759      0.985109
    14     1      0.294218      0.738215      0.987203
    15     1      0.277132      0.909987      0.151961
    16     1      0.027906      0.658937      0.152029
    17     1      0.973140      0.513697      0.320730
    18     1      0.221811      0.764138      0.320294
    19     1      0.206824      0.942538      0.484931
    20     1      0.962332      0.693924      0.484061
    21     1      0.907474      0.545720      0.648936
    22     1      0.158109      0.792913      0.653105
    23     1      0.323832      0.899060      0.822236
    24     1      0.073604      0.651121      0.821601
    25     1      0.550795      0.987517      0.987091
    26     1      0.811479      0.240832      0.984926
    27     1      0.775298      0.409703      0.152149
    28     1      0.524741      0.160768      0.150570
    29     1      0.469748      0.015194      0.319460
    30     1      0.721017      0.263760      0.321466
    31     1      0.709335      0.441508      0.485309
    32     1      0.457945      0.191801      0.485444
    33     1      0.402831      0.040466      0.652702
    34     1      0.607759      0.294233      0.661923
    35     1      0.830590      0.400819      0.813753
    36     1      0.581883      0.142715      0.820884
    37     1      0.545072      0.489868      0.987565
    38     1      0.796263      0.739294      0.987705
    39     1      0.777620      0.910090      0.152273
    40     1      0.527418      0.661298      0.152003
    41     1      0.470960      0.514274      0.319191
    42     1      0.723021      0.764044      0.319973
    43     1      0.709223      0.942302      0.484672
    44     1      0.461822      0.692194      0.485261
    45     1      0.403797      0.545375      0.652660
    46     1      0.656202      0.792824      0.653113
    47     1      0.825416      0.898415      0.823170
    48     1      0.577255      0.650111      0.822403
ITEM: TIMESTEP
64200
ITEM: NUMBER OF ATOMS
48
ITEM: BOX BOUNDS xy xz yz  pp  pp  pp
     -0.003081      2.203080      0.000000
     -0.005336      3.815850      0.000000
     -0.007546      5.396420      0.000000
ITEM: ATOMS id type xs ys zs
     1     1      0.050069      0.990047      0.986669
     2     1      0.320460      0.238655      0.978923
     3     1      0.277727      0.409523      0.149984
     4     1      0.028252      0.161346      0.150805
     5     1      0.969056      0.015288      0.320243
     6     1      0.219287      0.263667      0.320297
     7     1      0.209277      0.441402      0.485400
     8     1      0.954500      0.191827      0.490184
     9     1      0.900101      0.040435      0.654499
    10     1      0.131662      0.295834      0.656258
    11     1      0.325675      0.403041      0.819513
    12     1      0.077958      0.148080      0.821764
    13     1      0.045932      0.488244      0.985401
    14     1      0.294569      0.737926      0.987235
    15     1      0.277446      0.909934      0.151940
    16     1      0.028199      0.659278      0.151980
    17     1      0.972454      0.514732      0.320478
    18     1      0.222261      0.764466      0.319576
    19     1      0.207042      0.941661      0.484506
    20     1      0.962176      0.692761      0.484097
    21     1      0.905106      0.544862      0.649702
    22     1      0.157671      0.792746      0.653034
    23     1      0.324544      0.899113      0.822988
    24     1      0.071704      0.650503      0.821663
    25     1      0.549843      0.987223      0.987094
    26     1      0.810757      0.240552      0.984655
    27     1      0.776258      0.410097      0.152225
    28     1      0.525814      0.161377      0.150013
    29     1      0.470014      0.015288      0.319674
    30     1      0.721675      0.265335      0.321573
    31     1      0.707675      0.440781      0.486132
    32     1      0.456680      0.191120      0.485607
    33     1      0.399842      0.040845      0.652826
    34     1      0.619788      0.294337      0.657111
    35     1      0.828708      0.399737      0.816533
    36     1      0.582884      0.143599      0.821302
    37     1      0.546514      0.490483      0.987426
    38     1      0.796960      0.739123      0.987375
    39     1      0.780077      0.910328      0.152060
    40     1      0.528680      0.660707      0.152039
    41     1      0.469329      0.513444      0.320001
    42     1      0.722981      0.764701      0.319031
    43     1      0.709832      0.941487      0.485160
    44     1      0.462365      0.691847      0.484264
    45     1      0.403633      0.546233      0.651853
    46     1      0.654552      0.792286      0.653311
    47     1      0.825350      0.898036      0.823112
    48     1      0.574778      0.650198      0.822295
ITEM: TIMESTEP
64250
ITEM: NUMBER OF ATOMS
48
ITEM: BOX BOUNDS xy xz yz  pp  pp  pp
     -0.003081      2.203080      0.000000
     -0.005336      3.815850      0.000000
     -0.007546      5.396420      0.000000
ITEM: ATOMS id type xs ys zs
     1     1      0.050616      0.989198      0.987084
     2     1      0.314666      0.239241      0.981550
     3     1      0.278128      0.409439      0.149879
     4     1      0.029529      0.160712      0.151042
     5     1      0.970016      0.014773      0.319498
     6     1      0.220125      0.264155      0.319648
     7     1      0.208593      0.440243      0.486388
     8     1      0.954182      0.191694      0.488274
     9     1      0.898353      0.041598      0.654997
    10     1      0.132585      0.295292      0.655554
    11     1      0.325933      0.402248      0.820040
    12     1      0.079878      0.148560      0.821362
    13     1      0.047525      0.489353      0.985563
    14     1      0.296112      0.738495      0.986926
    15     1      0.278780      0.910085      0.152000
    16     1      0.028105      0.659400      0.152218
    17     1      0.971240      0.514783      0.320911
    18     1      0.223066      0.764873      0.319541
    19     1      0.205868      0.941075      0.484694
    20     1      0.960432      0.691988      0.484348
    21     1      0.903616      0.544294      0.650955
    22     1      0.156122      0.793464      0.652945
    23     1      0.326100      0.898757      0.822563
    24     1      0.072908      0.650791      0.820782
    25     1      0.550871      0.987541      0.987482
    26     1      0.809410      0.240667      0.984552
    27     1      0.778372      0.410064      0.152262
    28     1      0.527039      0.161458      0.150611
    29     1      0.471595      0.014415      0.319421
    30     1      0.721153      0.264367      0.321374
    31     1      0.707748      0.440036      0.485754
    32     1      0.456788      0.190172      0.485010
    33     1      0.399489      0.040866      0.653254
    34     1      0.626459      0.294147      0.654897
    35     1      0.826169      0.399352      0.818539
    36     1      0.583011      0.144925      0.820905
    37     1      0.547696      0.489713      0.987050
    38     1      0.797377      0.738741      0.986993
    39     1      0.779894      0.910439      0.152303
    40     1      0.528454      0.660254      0.151834
    41     1      0.471538      0.512838      0.319546
    42     1      0.722551      0.764657      0.319598
    43     1      0.709089      0.941113      0.485051
    44     1      0.461838      0.691930      0.484418
    45     1      0.403062      0.545711      0.652443
    46     1      0.654741      0.792926      0.653179
    47     1      0.827364      0.897914      0.822726
    48     1      0.573653      0.650559      0.823106
ITEM: TIMESTEP
64300
ITEM: NUMBER OF ATOMS
48
ITEM: BOX BOUNDS xy xz yz  pp  pp  pp
     -0.003081      2.203080      0.000000
     -0.005336      3.815850      0.000000
     -0.007546      5.396420      0.000000
ITEM: ATOMS id type xs ys zs
     1     1      0.050652      0.989796      0.987335
     2     1      0.309493      0.238901      0.983709
     3     1      0.279204      0.410277      0.150119
     4     1      0.029957      0.160426      0.150665
     5     1      0.969817      0.015276      0.320018
     6     1      0.219053      0.264274      0.320149
     7     1      0.208111      0.440451      0.486132
     8     1      0.955389      0.190944      0.487071
     9     1      0.898377      0.042345      0.654874
    10     1      0.135127      0.295719      0.655291
    11     1      0.325454      0.401544      0.820668
    12     1      0.080141      0.148472      0.822108
    13     1      0.048644      0.489427      0.985604
    14     1      0.296623      0.738588      0.986536
    15     1      0.279797      0.910449      0.151985
    16     1      0.029615      0.659727      0.152093
    17     1      0.971091      0.514770      0.320719
    18     1      0.222360      0.763727      0.319649
    19     1      0.207070      0.941186      0.484498
    20     1      0.960618      0.691066      0.485032
    21     1      0.901674      0.543596      0.651690
    22     1      0.154740      0.792696      0.652806
    23     1      0.326021      0.898991      0.822270
    24     1      0.071995      0.650550      0.821516
    25     1      0.550050      0.988813      0.987221
    26     1      0.807628      0.240261      0.984570
    27     1      0.778860      0.409524      0.152444
    28     1      0.527745      0.160547      0.150751
    29     1      0.471608      0.014857      0.320071
    30     1      0.721046      0.264299      0.320973
    31     1      0.706481      0.440081      0.486155
    32     1      0.456904      0.189058      0.484809
    33     1      0.397753      0.042009      0.653352
    34     1      0.630836      0.293645      0.654136
    35     1      0.825913      0.400156      0.819363
    36     1      0.581564      0.147041      0.821035
    37     1      0.548644      0.489347      0.986947
    38     1      0.796877      0.739384      0.987574
    39     1      0.779192      0.910401      0.151972
    40     1      0.528072      0.660637      0.152367
    41     1      0.470668      0.513219      0.319809
    42     1      0.721776      0.764035      0.319991
    43     1      0.708052      0.940673      0.485524
    44     1      0.461217      0.691238      0.484366
    45     1      0.402436      0.545187      0.652759
    46     1      0.654501      0.792306      0.653152
    47     1      0.826858      0.898999      0.823231
    48     1      0.573204      0.650221      0.822469
ITEM: TIMESTEP
64350
ITEM: NUMBER OF ATOMS
48
ITEM: BOX BOUNDS xy xz yz  pp  pp  pp
     -0.003081      2.203080      0.000000
     -0.005336      3.815850      0.000000
     -0.007546      5.396420      0.000000
ITEM: ATOMS id type xs ys zs
     1     1      0.050814      0.989795      0.987576
     2     1      0.307339      0.239050      0.984573
     3     1      0.279406      0.408973      0.151007
     4     1      0.029592      0.160621      0.150705
     5     1      0.970387      0.015385      0.320115
     6     1      0.220194      0.264359      0.319948
     7     1      0.208596      0.439973      0.485903
     8     1      0.956231      0.190637      0.486835
     9     1      0.897895      0.043282      0.654106
    10     1      0.137435      0.295079      0.654992
    11     1      0.325817      0.401168      0.821169
    12     1      0.079201      0.148261      0.822061
    13     1      0.048693      0.489725      0.986192
    14     1      0.296198      0.739000      0.986830
    15     1      0.278605      0.910352      0.152581
    16     1      0.030259      0.659599      0.152026
    17     1      0.971811      0.513918      0.321030
    18     1      0.222612      0.763920      0.319766
    19     1      0.208128      0.940184      0.484510
    20     1      0.960011      0.690221      0.484238
    21     1      0.901086      0.543398      0.651893
    22     1      0.153799      0.792248      0.652408
    23     1      0.325768      0.899269      0.822360
    24     1      0.073584      0.650649      0.820998
    25     1      0.549907      0.989734      0.986923
    26     1      0.805773      0.240891      0.984990
    27     1      0.778714      0.410395      0.151981
    28     1      0.529341      0.161279      0.151412
    29     1      0.470494      0.014845      0.320081
    30     1      0.720597      0.264550      0.320412
    31     1      0.707113      0.439909      0.485928
    32     1      0.455550      0.189040      0.484895
    33     1      0.397793      0.041983      0.653262
    34     1      0.635006      0.293705      0.653612
    35     1      0.825788      0.399856      0.819458
    36     1      0.580529      0.149037      0.821471
    37     1      0.549638      0.490027      0.986077
    38     1      0.796534      0.740079      0.988141
    39     1      0.780001      0.910996      0.152715
    40     1      0.527851      0.661011      0.152646
    41     1      0.470819      0.513504      0.320222
    42     1      0.722394      0.763883      0.320672
    43     1      0.707956      0.940648      0.485174
    44     1      0.460661      0.690713      0.484647
    45     1      0.400632      0.544401      0.652527
    46     1      0.653981      0.792523      0.653319
    47     1      0.826115      0.898852      0.822956
    48     1      0.574727      0.650522      0.822235
ITEM: TIMESTEP
64400
ITEM: NUMBER OF ATOMS
48
ITEM: BOX BOUNDS xy xz yz  pp  pp  pp
     -0.003081      2.203080      0.000000
     -0.005336      3.815850      0.000000
     -0.007546      5.396420      0.000000
ITEM: ATOMS id type xs ys zs
     1     1      0.048652      0.990654      0.987072
     2     1      0.306314      0.239372      0.984902
     3     1      0.279664      0.409250      0.150861
     4     1      0.030815      0.161031      0.151409
     5     1      0.970803      0.016090      0.320889
     6     1      0.219916      0.264651      0.319678
     7     1      0.208467      0.440345      0.485552
     8     1      0.956800      0.190587      0.485380
     9     1      0.898004      0.042575      0.653940
    10     1      0.138974      0.295080      0.654542
    11     1      0.325637      0.401022      0.821210
    12     1      0.078625      0.148024      0.821814
    13     1      0.049391      0.489950      0.985561
    14     1      0.296346      0.740139      0.987030
    15     1      0.280559      0.910121      0.152126
    16     1      0.029924      0.659329      0.152530
    17     1      0.971138      0.513962      0.320906
    18     1      0.222980      0.764731      0.319896
    19     1      0.208526      0.940737      0.484629
    20     1      0.959441      0.689882      0.484898
    21     1      0.899190      0.543596      0.651945
    22     1      0.152810      0.793205      0.652542
    23     1      0.326217      0.899334      0.821889
    24     1      0.075241      0.650821      0.820745
    25     1      0.549478      0.989793      0.987314
    26     1      0.804588      0.240746      0.985597
    27     1      0.778337      0.411315      0.151958
    28     1      0.531410      0.160828      0.151778
    29     1      0.470303      0.014645      0.319920
    30     1      0.720144      0.265337      0.320275
    31     1      0.705348      0.439750      0.484925
    32     1      0.456527      0.189237      0.484682
    33     1      0.398501      0.041549      0.653067
    34     1      0.638612      0.293711      0.653334
    35     1      0.825698      0.400262      0.820022
    36     1      0.578795      0.149279      0.821267
    37     1      0.549981      0.490413      0.986379
    38     1      0.796813      0.739996      0.987956
    39     1      0.779815      0.910822      0.152877
    40     1      0.528298      0.660530      0.152536
    41     1      0.470245      0.513589      0.320206
    42     1      0.722109      0.763766      0.319975
    43     1      0.709404      0.940383      0.485536
    44     1      0.459093      0.690090      0.485046
    45     1      0.398982      0.543963      0.652889
    46     1      0.654268      0.792620      0.653335
    47     1      0.826683      0.898766      0.822960
    48     1      0.574111      0.650021      0.821691
ITEM: TIMESTEP
64450
ITEM: NUMBER OF ATOMS
48
ITEM: BOX BOUNDS xy xz yz  pp  pp  pp
     -0.003081      2.203080      0.000000
     -0.005336      3.815850      0.000000
     -0.007546      5.396420      0.000000
ITEM: ATOMS id type xs ys zs
     1     1      0.049163      0.990517      0.987199
     2     1      0.304969      0.240221      0.985065
     3     1      0.281296      0.409215      0.150771
     4     1      0.032091      0.160640      0.151222
     5     1      0.969757      0.015763      0.320272
     6     1      0.220745      0.264767      0.319721
     7     1      0.205509      0.440117      0.508370
     8     1      0.956524      0.190873      0.485411
     9     1      0.898108      0.042226      0.653766
    10     1      0.138989      0.291446      0.656080
    11     1      0.324892      0.400261      0.820757
    12     1      0.079414      0.149231      0.821561
    13     1      0.048900      0.490004      0.985628
    14     1      0.297204      0.739951      0.987603
    15     1      0.280495      0.910130      0.151906
    16     1      0.030377      0.659768      0.152490
    17     1      0.971246      0.512926      0.320922
    18     1      0.222454      0.764534      0.319827
    19     1      0.206438      0.940242      0.484881
    20     1      0.958374      0.690296      0.484722
    21     1      0.899551      0.545962      0.650432
    22     1      0.151754      0.792568      0.652063
    23     1      0.325741      0.899241      0.821802
    24     1      0.075119      0.651598      0.821425
    25     1      0.549299      0.989291      0.987275
    26     1      0.805268      0.240867      0.986012
    27     1      0.778764      0.411014      0.151327
    28     1      0.532421      0.160256      0.151615
    29     1      0.470798      0.015713      0.319986
    30     1      0.720930      0.265091      0.320036
    31     1      0.707252      0.439180      0.484797
    32     1      0.456490      0.189078      0.484631
    33     1      0.397668      0.041885      0.653004
    34     1      0.638251      0.290982      0.650585
    35     1      0.827525      0.399667      0.798053
    36     1      0.578103      0.149401      0.821513
    37     1      0.550872      0.490833      0.985861
    38     1      0.798004      0.739707      0.987868
    39     1      0.780653      0.910707      0.152273
    40     1      0.529232      0.660202      0.152641
    41     1      0.468844      0.513843      0.320640
    42     1      0.721346      0.764551      0.320307
    43     1      0.708999      0.940972      0.485064
    44     1      0.458912      0.689305      0.485203
    45     1      0.402244      0.545221      0.655487
    46     1      0.653584      0.792720      0.653014
    47     1      0.826386      0.899593      0.822772
    48     1      0.574066      0.650454      0.822025
ITEM: TIMESTEP
64500
ITEM: NUMBER OF ATOMS
48
ITEM: BOX BOUNDS xy xz yz  pp  pp  pp
     -0.003081      2.203080      0.000000
     -0.005336      3.815850      0.000000
     -0.007546      5.396420      0.000000
ITEM: ATOMS id type xs ys zs
     1     1      0.050461      0.989456      0.987170
     2     1      0.304468      0.240148      0.985593
     3     1      0.282226      0.409670      0.150812
     4     1      0.032468      0.160775      0.151391
     5     1      0.971963      0.015429      0.320351
     6     1      0.219051      0.265433      0.320373
     7     1      0.204307      0.441014      0.496798
     8     1      0.959264      0.190239      0.485411
     9     1      0.897787      0.041580      0.653708
    10     1      0.137978      0.289709      0.656712
    11     1      0.326098      0.399746      0.821648
    12     1      0.077923      0.148421      0.822261
    13     1      0.048581      0.489628      0.984375
    14     1      0.297070      0.740362      0.987265
    15     1      0.280512      0.911267      0.152581
    16     1      0.030850      0.659184      0.152667
    17     1      0.971527      0.512456      0.323154