ITEM: TIMESTEP
64001
ITEM: NUMBER OF ATOMS
48
ITEM: BOX BOUNDS xy xz yz  pp  pp  pp
     -0.003081      2.203080      0.000000
     -0.005336      3.815850      0.000000
     -0.007546      5.396420      0.000000
ITEM: ATOMS id type xs ys zs
     1     1      0.048665      0.988349      0.986965
     2     1      0.293114      0.237335      0.986219
     3     1      0.272259      0.408722      0.151611
     4     1      0.022373      0.159237      0.150311
     5     1      0.967258      0.015509      0.318969
     6     1      0.220474      0.262762      0.318711
     7     1      0.211680      0.443129      0.485037
     8     1      0.958857      0.195766      0.485227
     9     1      0.907885      0.044716      0.651820
    10     1      0.154024      0.294458      0.653416
    11     1      0.322586      0.400967      0.822803
    12     1      0.073980      0.149355      0.821741
    13     1      0.038580      0.487084      0.987029
    14     1      0.292522      0.735873      0.987011
    15     1      0.277979      0.908815      0.151335
    16     1      0.026091      0.657907      0.152753
    17     1      0.971862      0.513404      0.320760
    18     1      0.219175      0.764552      0.319892
    19     1      0.208789      0.943858      0.484312
    20     1      0.963702      0.692950      0.485582
    21     1      0.904657      0.544323      0.652491
    22     1      0.157695      0.794832      0.653295
    23     1      0.329581      0.899208      0.821612
    24     1      0.073781      0.649272      0.821656
    25     1      0.548928      0.987198      0.986169
    26     1      0.791335      0.237971      0.985439
    27     1      0.772582      0.410027      0.153181
    28     1      0.523681      0.159795      0.151563
    29     1      0.467671      0.015991      0.319869
    30     1      0.720721      0.265112      0.320294
    31     1      0.709926      0.444843      0.484640
    32     1      0.458922      0.193346      0.484176
    33     1      0.409175      0.042682      0.650869
    34     1      0.651874      0.294841      0.651272
    35     1      0.823594      0.399451      0.820544
    36     1      0.572770      0.150200      0.820043
    37     1      0.541929      0.488395      0.987897
    38     1      0.794077      0.737923      0.988939
    39     1      0.776648      0.909187      0.152393
    40     1      0.525888      0.660013      0.152820
    41     1      0.469437      0.513534      0.319476
    42     1      0.720821      0.763984      0.320576
    43     1      0.712399      0.943446      0.484028
    44     1      0.462377      0.694509      0.485061
    45     1      0.404422      0.544594      0.653285
    46     1      0.658703      0.793703      0.653116
    47     1      0.829166      0.898899      0.822428
    48     1      0.575833      0.649401      0.822901
ITEM: TIMESTEP
64050
ITEM: NUMBER OF ATOMS
48
ITEM: BOX BOUNDS xy xz yz  pp  pp  pp
     -0.003081      2.203080      0.000000
     -0.005336      3.815850      0.000000
     -0.007546      5.396420      0.000000
ITEM: ATOMS id type xs ys zs
     1     1      0.048587      0.988605      0.986700
     2     1      0.295196      0.238036      0.986264
     3     1      0.273727      0.409519      0.151498
     4     1      0.023502      0.159841      0.150910
     5     1      0.968189      0.014760      0.319094
     6     1      0.220122      0.263643      0.318786
     7     1      0.209355      0.443150      0.485448
     8     1      0.959979      0.194741      0.484981
     9     1      0.909140      0.043911      0.652352
    10     1      0.154115      0.294065      0.652810
    11     1      0.322551      0.400665      0.822757
    12     1      0.074152      0.149966      0.821755
    13     1      0.040154      0.487635      0.986939
    14     1      0.293646      0.736857      0.987792
    15     1      0.277648      0.909286      0.151700
    16     1      0.026358      0.659394      0.152967
    17     1      0.971265      0.512855      0.320617
    18     1      0.219840      0.764677      0.319416
    19     1      0.208523      0.943396      0.484207
    20     1      0.963412      0.692850      0.485513
    21     1      0.905628      0.544048      0.652624
    22     1      0.157426      0.793753      0.653160
    23     1      0.328063      0.898908      0.821989
    24     1      0.075185      0.649351      0.821999
    25     1      0.548586      0.987418      0.986201
    26     1      0.792094      0.238126      0.986191
    27     1      0.772220      0.409941      0.152575
    28     1      0.524925      0.160016      0.151649
    29     1      0.467871      0.015616      0.320528
    30     1      0.720714      0.265184      0.320133
    31     1      0.708374      0.444508      0.484725
    32     1      0.458799      0.192859      0.484386
    33     1      0.407721      0.042138      0.651379
    34     1      0.655210      0.293404      0.651754
    35     1      0.821933      0.399525      0.820527
    36     1      0.572484      0.149623      0.820034
    37     1      0.542924      0.488408      0.988030
    38     1      0.792785      0.738113      0.988241
    39     1      0.776980      0.908433      0.152020
    40     1      0.525844      0.660045      0.153079
    41     1      0.468948      0.514022      0.319491
    42     1      0.720298      0.763982      0.320702
    43     1      0.711681      0.943563      0.485211
    44     1      0.461922      0.694090      0.484820
    45     1      0.404924      0.544191      0.653459
    46     1      0.658643      0.793308      0.652893
    47     1      0.827224      0.898927      0.822259
    48     1      0.576314      0.648935      0.822749
ITEM: TIMESTEP
64100
ITEM: NUMBER OF ATOMS
48
ITEM: BOX BOUNDS xy xz yz  pp  pp  pp
     -0.003081      2.203080      0.000000
     -0.005336      3.815850      0.000000
     -0.007546      5.396420      0.000000
ITEM: ATOMS id type xs ys zs
     1     1      0.048859      0.988942      0.986868
     2     1      0.294675      0.238456      0.986629
     3     1      0.272901      0.409843      0.152222
     4     1      0.024336      0.160800      0.151532
     5     1      0.967440      0.014659      0.319604
     6     1      0.220181      0.263221      0.318726
     7     1      0.208945      0.443066      0.485338
     8     1      0.959827      0.193635      0.484884
     9     1      0.907170      0.043069      0.652120
    10     1      0.154585      0.293718      0.652889
    11     1      0.323333      0.401139      0.822611
    12     1      0.073987      0.149895      0.821935
    13     1      0.041801      0.488231      0.987145
    14     1      0.293643      0.737794      0.987596
    15     1      0.277734      0.909688      0.151805
    16     1      0.026419      0.660032      0.152672
    17     1      0.969981      0.514122      0.320446
    18     1      0.220235      0.763961      0.319579
    19     1      0.208703      0.942742      0.484454
    20     1      0.962962      0.692666      0.485627
    21     1      0.905187      0.543264      0.652883
    22     1      0.158115      0.793648      0.652856
    23     1      0.326478      0.899382      0.821964
    24     1      0.075121      0.649457      0.821881
    25     1      0.548008      0.987954      0.986746
    26     1      0.793484      0.238841      0.986591
    27     1      0.772625      0.409870      0.152980
    28     1      0.524818      0.160596      0.151909
    29     1      0.468526      0.014606      0.320116
    30     1      0.720055      0.265406      0.320283
    31     1      0.707744      0.443932      0.485074
    32     1      0.458774      0.192518      0.484271
    33     1      0.407551      0.042045      0.652293
    34     1      0.654661      0.292925      0.651639
    35     1      0.822234      0.400006      0.821170
    36     1      0.573068      0.150529      0.820612
    37     1      0.541976      0.489156      0.988217
    38     1      0.794002      0.738816      0.988053
    39     1      0.777577      0.909361      0.152071
    40     1      0.525960      0.661142      0.153185
    41     1      0.470216      0.513957      0.319636
    42     1      0.720874      0.764125      0.321136
    43     1      0.710479      0.943188      0.484929
    44     1      0.460415      0.694091      0.485410
    45     1      0.405031      0.543375      0.653213
    46     1      0.657788      0.792547      0.653684
    47     1      0.826803      0.899762      0.822446
    48     1      0.577287      0.649971      0.822590
ITEM: TIMESTEP
64150
ITEM: NUMBER OF ATOMS
48
ITEM: BOX BOUNDS xy xz yz  pp  pp  pp
     -0.003081      2.203080      0.000000
     -0.005336      3.815850      0.000000
     -0.007546      5.396420      0.000000
ITEM: ATOMS id type xs ys zs
     1     1      0.047439      0.990018      0.986875
     2     1      0.294909      0.238215      0.986888
     3     1      0.273934      0.411161      0.152558
     4     1      0.025476      0.160968      0.151923
     5     1      0.967970      0.013935      0.320279
     6     1      0.220368      0.263864      0.319439
     7     1      0.206267      0.442646      0.485520
     8     1      0.959009      0.193183      0.485009
     9     1      0.906351      0.042654      0.652314
    10     1      0.154968      0.293154      0.653224
    11     1      0.321674      0.401133      0.822409
    12     1      0.072761      0.149994      0.821699
    13     1      0.042406      0.488902      0.987761
    14     1      0.294286      0.738521      0.987685
    15     1      0.276685      0.910554      0.152273
    16     1      0.026101      0.660515      0.152473
    17     1      0.971571      0.513751      0.319949
    18     1      0.221412      0.764223      0.320418
    19     1      0.208828      0.942557      0.484432
    20     1      0.961809      0.691902      0.485286
    21     1      0.905019      0.542904      0.652996
    22     1      0.157787      0.792470      0.653509
    23     1      0.326988      0.899600      0.822571
    24     1      0.072675      0.650584      0.821957
    25     1      0.548202      0.988658      0.986993
    26     1      0.793823      0.239862      0.986861
    27     1      0.774058      0.410655      0.152539
    28     1      0.525538      0.160900      0.152010
    29     1      0.468970      0.014673      0.319882
    30     1      0.720780      0.264628      0.319931
    31     1      0.707457      0.443445      0.484956
    32     1      0.457945      0.192483      0.484691
    33     1      0.407030      0.041579      0.652361
    34     1      0.655547      0.292077      0.651657
    35     1      0.820805      0.399550      0.821578
    36     1      0.573003      0.150032      0.820874
    37     1      0.542673      0.489504      0.988044
    38     1      0.795164      0.738907      0.987969
    39     1      0.777701      0.910407      0.152493
    40     1      0.526413      0.661609      0.153320
    41     1      0.470431      0.513765      0.320532
    42     1      0.721095      0.763883      0.320481
    43     1      0.709141      0.942247      0.485244
    44     1      0.458262      0.692086      0.485783
    45     1      0.405306      0.542469      0.652940
    46     1      0.657754      0.791936      0.653452
    47     1      0.827604      0.900213      0.822835
    48     1      0.574848      0.650699      0.822712
ITEM: TIMESTEP
64200
ITEM: NUMBER OF ATOMS
48
ITEM: BOX BOUNDS xy xz yz  pp  pp  pp
     -0.003081      2.203080      0.000000
     -0.005336      3.815850      0.000000
     -0.007546      5.396420      0.000000
ITEM: ATOMS id type xs ys zs
     1     1      0.047923      0.990548      0.987472
     2     1      0.295599      0.239011      0.986746
     3     1      0.275313      0.411531      0.152302
     4     1      0.026455      0.160718      0.152537
     5     1      0.969453      0.014224      0.319826
     6     1      0.220590      0.265078      0.319620
     7     1      0.208270      0.442762      0.485532
     8     1      0.957198      0.192464      0.484971
     9     1      0.907011      0.041995      0.652749
    10     1      0.154687      0.292229      0.652909
    11     1      0.320721      0.400413      0.822511
    12     1      0.071228      0.150051      0.822191
    13     1      0.042476      0.488837      0.987030
    14     1      0.293767      0.738537      0.987742
    15     1      0.276818      0.910018      0.152703
    16     1      0.026851      0.660126      0.152377
    17     1      0.970431      0.513674      0.320297
    18     1      0.220797      0.764208      0.320429
    19     1      0.206960      0.942128      0.485078
    20     1      0.958921      0.691838      0.485639
    21     1      0.905432      0.542424      0.653049
    22     1      0.156364      0.792123      0.653626
    23     1      0.326682      0.900333      0.822337
    24     1      0.072411      0.651004      0.822309
    25     1      0.547240      0.988719      0.987062
    26     1      0.794290      0.239856      0.987417
    27     1      0.773795      0.411388      0.152375
    28     1      0.525197      0.160546      0.152075
    29     1      0.470185      0.014042      0.320236
    30     1      0.721017      0.264433      0.319784
    31     1      0.708194      0.443443      0.485101
    32     1      0.455590      0.192542      0.484501
    33     1      0.407169      0.041821      0.652378
    34     1      0.655971      0.291802      0.651589
    35     1      0.820514      0.399762      0.821666
    36     1      0.571164      0.150498      0.821362
    37     1      0.542500      0.489092      0.987675
    38     1      0.795356      0.739634      0.987258
    39     1      0.776676      0.910731      0.152772
    40     1      0.525544      0.661140      0.153401
    41     1      0.470412      0.513913      0.320435
    42     1      0.720557      0.764573      0.321056
    43     1      0.707014      0.941989      0.485291
    44     1      0.459312      0.691949      0.485668
    45     1      0.406242      0.542087      0.653265
    46     1      0.657361      0.791792      0.653552
    47     1      0.826072      0.900336      0.822435
    48     1      0.573662      0.650761      0.822453
ITEM: TIMESTEP
64250
ITEM: NUMBER OF ATOMS
48
ITEM: BOX BOUNDS xy xz yz  pp  pp  pp
     -0.003081      2.203080      0.000000
     -0.005336      3.815850      0.000000
     -0.007546      5.396420      0.000000
ITEM: ATOMS id type xs ys zs
     1     1      0.046975      0.990178      0.987514
     2     1      0.294885      0.240072      0.986605
     3     1      0.275783      0.411698      0.152130
     4     1      0.027230      0.160265      0.151717
     5     1      0.971440      0.014691      0.319900
     6     1      0.220669      0.264991      0.319359
     7     1      0.209219      0.441027      0.485130
     8     1      0.956640      0.191438      0.484664
     9     1      0.907058      0.041696      0.652108
    10     1      0.156337      0.291919      0.652462
    11     1      0.321621      0.400739      0.821942
    12     1      0.070223      0.150053      0.821643
    13     1      0.043537      0.489652      0.986729
    14     1      0.293834      0.739445      0.987066
    15     1      0.277750      0.910591      0.152480
    16     1      0.028337      0.660783      0.152394
    17     1      0.972439      0.514565      0.319867
    18     1      0.220895      0.764708      0.320599
    19     1      0.207374      0.940457      0.484905
    20     1      0.959361      0.690939      0.485841
    21     1      0.906382      0.541719      0.652762
    22     1      0.156370      0.792088      0.653583
    23     1      0.325668      0.900431      0.822658
    24     1      0.070703      0.651294      0.822349
    25     1      0.548880      0.989396      0.987638
    26     1      0.794789      0.240542      0.987277
    27     1      0.776263      0.410786      0.152100
    28     1      0.526404      0.160721      0.151454
    29     1      0.469805      0.015206      0.320067
    30     1      0.722554      0.263993      0.318734
    31     1      0.709084      0.441845      0.484780
    32     1      0.456088      0.191824      0.484669
    33     1      0.407906      0.041394      0.652358
    34     1      0.656993      0.291397      0.652161
    35     1      0.819686      0.400268      0.821507
    36     1      0.570732      0.150554      0.821911
    37     1      0.544725      0.489309      0.987121
    38     1      0.794305      0.739998      0.987755
    39     1      0.777576      0.911490      0.152603
    40     1      0.527377      0.661131      0.152574
    41     1      0.470785      0.514509      0.319889
    42     1      0.721060      0.765660      0.321294
    43     1      0.707082      0.940880      0.485167
    44     1      0.458639      0.691391      0.485111
    45     1      0.407450      0.541833      0.653216
    46     1      0.656086      0.792353      0.653157
    47     1      0.824029      0.901067      0.821959
    48     1      0.572995      0.650779      0.822008
ITEM: TIMESTEP
64300
ITEM: NUMBER OF ATOMS
48
ITEM: BOX BOUNDS xy xz yz  pp  pp  pp
     -0.003081      2.203080      0.000000
     -0.005336      3.815850      0.000000
     -0.007546      5.396420      0.000000
ITEM: ATOMS id type xs ys zs
     1     1      0.046819      0.989355      0.987492
     2     1      0.294029      0.240009      0.986697
     3     1      0.275792      0.410431      0.151565
     4     1      0.026243      0.160781      0.151809
     5     1      0.971475      0.014566      0.320277
     6     1      0.221142      0.264591      0.319632
     7     1      0.208571      0.441209      0.485213
     8     1      0.956071      0.191397      0.484948
     9     1      0.907408      0.040633      0.652205
    10     1      0.156819      0.290922      0.652525
    11     1      0.320122      0.400527      0.822214
    12     1      0.068621      0.150815      0.822104
    13     1      0.042661      0.490160      0.986718
    14     1      0.295425      0.738904      0.987093
    15     1      0.277836      0.911244      0.152641
    16     1      0.029403      0.660940      0.152326
    17     1      0.971328      0.514733      0.319661
    18     1      0.221097      0.764714      0.320781
    19     1      0.207383      0.940861      0.485189
    20     1      0.958384      0.691367      0.485894
    21     1      0.906291      0.540784      0.652838
    22     1      0.156344      0.791902      0.653902
    23     1      0.323714      0.901090      0.822072
    24     1      0.071435      0.650257      0.822084
    25     1      0.547210      0.989950      0.987570
    26     1      0.793963      0.240641      0.987266
    27     1      0.777152      0.411420      0.152046
    28     1      0.526439      0.160801      0.151861
    29     1      0.469959      0.014269      0.320369
    30     1      0.720722      0.264442      0.319139
    31     1      0.709111      0.441083      0.484632
    32     1      0.456111      0.191510      0.484842
    33     1      0.408448      0.041084      0.652352
    34     1      0.657273      0.291131      0.652036
    35     1      0.818123      0.400236      0.821968
    36     1      0.568567      0.150822      0.822690
    37     1      0.544221      0.489571      0.987269
    38     1      0.794911      0.740474      0.987313
    39     1      0.779053      0.911175      0.152664
    40     1      0.529149      0.660845      0.152059
    41     1      0.470521      0.515129      0.320154
    42     1      0.721444      0.764794      0.320597
    43     1      0.706302      0.940596      0.485162
    44     1      0.457886      0.691002      0.486021
    45     1      0.408332      0.541075      0.653193
    46     1      0.657308      0.791419      0.653404
    47     1      0.822178      0.900955      0.822458
    48     1      0.572863      0.650747      0.822244
ITEM: TIMESTEP
64350
ITEM: NUMBER OF ATOMS
48
ITEM: BOX BOUNDS xy xz yz  pp  pp  pp
     -0.003081      2.203080      0.000000
     -0.005336      3.815850      0.000000
     -0.007546      5.396420      0.000000
ITEM: ATOMS id type xs ys zs
     1     1      0.046445      0.989043      0.987863
     2     1      0.293504      0.240764      0.986172
     3     1      0.277640      0.410860      0.151509
     4     1      0.027255      0.160742      0.151818
     5     1      0.971564      0.015169      0.319969
     6     1      0.220828      0.265254      0.319687
     7     1      0.209417      0.441102      0.485446
     8     1      0.956705      0.190529      0.485086
     9     1      0.910121      0.039403      0.652405
    10     1      0.156258      0.290857      0.652717
    11     1      0.317847      0.400947      0.822548
    12     1      0.068339      0.150651      0.822437
    13     1      0.041823      0.490468      0.986913
    14     1      0.296537      0.739226      0.986733
    15     1      0.278791      0.910132      0.152517
    16     1      0.028976      0.661442      0.152305
    17     1      0.971672      0.514805      0.320077
    18     1      0.221390      0.764952      0.320931
    19     1      0.207706      0.940364      0.485288
    20     1      0.957574      0.690815      0.485730
    21     1      0.906116      0.540079      0.652649
    22     1      0.158977      0.791105      0.653232
    23     1      0.322418      0.900512      0.822667
    24     1      0.072687      0.650622      0.821984
    25     1      0.546372      0.990933      0.986898
    26     1      0.795420      0.241183      0.986526
    27     1      0.776738      0.410905      0.152440
    28     1      0.526484      0.160672      0.151627
    29     1      0.471350      0.014603      0.320418
    30     1      0.721244      0.263753      0.319062
    31     1      0.709359      0.439824      0.484356
    32     1      0.456279      0.190832      0.484536
    33     1      0.408991      0.040610      0.652219
    34     1      0.657456      0.290690      0.651619
    35     1      0.817077      0.400898      0.821798
    36     1      0.568798      0.151093      0.822322
    37     1      0.542940      0.489865      0.987047
    38     1      0.795516      0.740318      0.987349
    39     1      0.778531      0.911029      0.152100
    40     1      0.528743      0.661104      0.151362
    41     1      0.469656      0.515068      0.320552
    42     1      0.721844      0.764691      0.320390
    43     1      0.706665      0.940790      0.485609
    44     1      0.457474      0.690206      0.486055
    45     1      0.406392      0.539884      0.652924
    46     1      0.659147      0.790630      0.653351
    47     1      0.823376      0.900868      0.822712
    48     1      0.571695      0.650887      0.822292
ITEM: TIMESTEP
64400
ITEM: NUMBER OF ATOMS
48
ITEM: BOX BOUNDS xy xz yz  pp  pp  pp
     -0.003081      2.203080      0.000000
     -0.005336      3.815850      0.000000
     -0.007546      5.396420      0.000000
ITEM: ATOMS id type xs ys zs
     1     1      0.045081      0.989787      0.987882
     2     1      0.295097      0.240751      0.986309
     3     1      0.277141      0.411161      0.151922
     4     1      0.027543      0.160977      0.151716
     5     1      0.971891      0.014677      0.320216
     6     1      0.221089      0.264658      0.320006
     7     1      0.208489      0.441345      0.485577
     8     1      0.954735      0.191059      0.485300
     9     1      0.910764      0.039435      0.652534
    10     1      0.156767      0.289560      0.652634
    11     1      0.316571      0.401734      0.822456
    12     1      0.068287      0.150599      0.822219
    13     1      0.042490      0.491206      0.986945
    14     1      0.297696      0.740244      0.986596
    15     1      0.278674      0.910993      0.152463
    16     1      0.029120      0.661445      0.152371
    17     1      0.970845      0.514800      0.319243
    18     1      0.222288      0.765540      0.320579
    19     1      0.207493      0.939633      0.484905
    20     1      0.957632      0.690432      0.485370
    21     1      0.907351      0.539851      0.652363
    22     1      0.160351      0.790501      0.653119
    23     1      0.322517      0.901368      0.822648
    24     1      0.070556      0.651377      0.821720
    25     1      0.545183      0.991182      0.987614
    26     1      0.795672      0.240901      0.986543
    27     1      0.776945      0.410664      0.152301
    28     1      0.527121      0.161909      0.151240
    29     1      0.472130      0.015356      0.319800
    30     1      0.719942      0.264038      0.319777
    31     1      0.708681      0.440192      0.484634
    32     1      0.454914      0.190888      0.484344
    33     1      0.408550      0.040351      0.652082
    34     1      0.655738      0.289780      0.651641
    35     1      0.816284      0.401273      0.821832
    36     1      0.568108      0.152125      0.821965
    37     1      0.542181      0.490159      0.987274
    38     1      0.795068      0.740202      0.986811
    39     1      0.777874      0.911305      0.152375
    40     1      0.530433      0.660977      0.151528
    41     1      0.471215      0.515243      0.320776
    42     1      0.721102      0.765082      0.320569
    43     1      0.705659      0.940629      0.485265
    44     1      0.456963      0.690715      0.485797
    45     1      0.407333      0.539385      0.653311
    46     1      0.660075      0.791002      0.652635
    47     1      0.822457      0.901181      0.822578
    48     1      0.570830      0.650994      0.822310
ITEM: TIMESTEP
64450
ITEM: NUMBER OF ATOMS
48
ITEM: BOX BOUNDS xy xz yz  pp  pp  pp
     -0.003081      2.203080      0.000000
     -0.005336      3.815850      0.000000
     -0.007546      5.396420      0.000000
ITEM: ATOMS id type xs ys zs
     1     1      0.044519      0.990144      0.987232
     2     1      0.294573      0.240989      0.986495
     3     1      0.276343      0.412197      0.152058
     4     1      0.026065      0.161606      0.151820
     5     1      0.970690      0.015155      0.320294
     6     1      0.220835      0.266116      0.319518
     7     1      0.208876      0.440855      0.485816
     8     1      0.955119      0.190460      0.484958
     9     1      0.910379      0.039772      0.652645
    10     1      0.156013      0.290009      0.652918
    11     1      0.315395      0.401876      0.822838
    12     1      0.067895      0.150906      0.822549
    13     1      0.042166      0.490721      0.987142
    14     1      0.295450      0.740299      0.987425
    15     1      0.278935      0.911118      0.152175
    16     1      0.028735      0.662276      0.151988
    17     1      0.970733      0.514435      0.319826
    18     1      0.222069      0.765690      0.320515
    19     1      0.208116      0.939624      0.484738
    20     1      0.956982      0.690638      0.485322
    21     1      0.907611      0.540291      0.652374
    22     1      0.161313      0.790339      0.653152
    23     1      0.321664      0.902158      0.822879
    24     1      0.070001      0.651953      0.821891
    25     1      0.544602      0.990777      0.987250
    26     1      0.795525      0.240985      0.986765
    27     1      0.777709      0.412239      0.151899
    28     1      0.526064      0.161626      0.151896
    29     1      0.472420      0.015203      0.319966
    30     1      0.719987      0.265114      0.319648
    31     1      0.708735      0.439178      0.484589
    32     1      0.454817      0.189928      0.484382
    33     1      0.409601      0.039520      0.651641
    34     1      0.657121      0.289111      0.651138
    35     1      0.815154      0.401509      0.821921
    36     1      0.568640      0.152336      0.821932
    37     1      0.543174      0.490773      0.986895
    38     1      0.795523      0.740769      0.987120
    39     1      0.777185      0.911496      0.152075
    40     1      0.530606      0.661430      0.152059
    41     1      0.470948      0.516059      0.320450
    42     1      0.722692      0.765383      0.320428
    43     1      0.706419      0.940496      0.485155
    44     1      0.457055      0.689766      0.486098
    45     1      0.407711      0.538858      0.653759
    46     1      0.660153      0.790136      0.652731
    47     1      0.819820      0.901742      0.822443
    48     1      0.569750      0.652048      0.822117
ITEM: TIMESTEP
64500
ITEM: NUMBER OF ATOMS
48
ITEM: BOX BOUNDS xy xz yz  pp  pp  pp
     -0.003081      2.203080      0.000000
     -0.005336      3.815850      0.000000
     -0.007546      5.396420      0.000000
ITEM: ATOMS id type xs ys zs
     1     1      0.045944      0.990919      0.987305
     2     1      0.296082      0.240791      0.987217
     3     1      0.276415      0.412525      0.151671
     4     1      0.026627      0.162062      0.151782
     5     1      0.970707      0.015241      0.320565
     6     1      0.221141      0.265596      0.319707
     7     1      0.207585      0.439752      0.485719
     8     1      0.955852      0.190028      0.484960
     9     1      0.910564      0.040470      0.653133
    10     1      0.157022      0.289195      0.652654
    11     1      0.315959      0.401753      0.823200
    12     1      0.067564      0.151260      0.822644
    13     1      0.044206      0.490911      0.986670
    14     1      0.295360      0.740206      0.987183
    15     1      0.278188      0.912156      0.152096
    16     1      0.028454      0.661779      0.152308
    17     1      0.970944      0.515305      0.320316