ITEM: TIMESTEP
64001
ITEM: NUMBER OF ATOMS
48
ITEM: BOX BOUNDS xy xz yz  pp  pp  pp
     -0.003081      2.203080      0.000000
     -0.005336      3.815850      0.000000
     -0.007546      5.396420      0.000000
ITEM: ATOMS id type xs ys zs
     1     1      0.048655      0.988087      0.986964
     2     1      0.293006      0.237253      0.986125
     3     1      0.272325      0.408584      0.151677
     4     1      0.022464      0.159329      0.150404
     5     1      0.967257      0.015559      0.319078
     6     1      0.220301      0.262905      0.318821
     7     1      0.212184      0.443001      0.484983
     8     1      0.958975      0.195920      0.485164
     9     1      0.907831      0.044569      0.651802
    10     1      0.153936      0.294596      0.653501
    11     1      0.322586      0.401048      0.822771
    12     1      0.073472      0.149427      0.821743
    13     1      0.039041      0.487087      0.987100
    14     1      0.292124      0.736008      0.986879
    15     1      0.277818      0.908656      0.151276
    16     1      0.026197      0.657898      0.152832
    17     1      0.971697      0.513363      0.320667
    18     1      0.219458      0.764548      0.319865
    19     1      0.208957      0.943962      0.484253
    20     1      0.963640      0.693069      0.485641
    21     1      0.904799      0.544330      0.652339
    22     1      0.157605      0.794779      0.653236
    23     1      0.329530      0.899178      0.821577
    24     1      0.073775      0.649138      0.821578
    25     1      0.548972      0.987131      0.986151
    26     1      0.791273      0.238111      0.985522
    27     1      0.772765      0.410004      0.153145
    28     1      0.523841      0.159741      0.151460
    29     1      0.468085      0.015977      0.319819
    30     1      0.720544      0.265180      0.320117
    31     1      0.710002      0.444801      0.484618
    32     1      0.459242      0.193360      0.484221
    33     1      0.408896      0.042843      0.650812
    34     1      0.651937      0.294771      0.651407
    35     1      0.823432      0.399275      0.820512
    36     1      0.572176      0.150243      0.820177
    37     1      0.542049      0.488359      0.988004
    38     1      0.793633      0.738047      0.988778
    39     1      0.776810      0.909043      0.152435
    40     1      0.525727      0.659915      0.152894
    41     1      0.469485      0.513571      0.319464
    42     1      0.720726      0.763960      0.320568
    43     1      0.711746      0.943312      0.484050
    44     1      0.462209      0.694627      0.485213
    45     1      0.404585      0.544503      0.653341
    46     1      0.658589      0.793784      0.653058
    47     1      0.828963      0.898931      0.822364
    48     1      0.575706      0.649165      0.822938
ITEM: TIMESTEP
64050
ITEM: NUMBER OF ATOMS
48
ITEM: BOX BOUNDS xy xz yz  pp  pp  pp
     -0.003081      2.203080      0.000000
     -0.005336      3.815850      0.000000
     -0.007546      5.396420      0.000000
ITEM: ATOMS id type xs ys zs
     1     1      0.048696      0.987615      0.987183
     2     1      0.292984      0.238532      0.986306
     3     1      0.272348      0.409754      0.151647
     4     1      0.023402      0.159830      0.151002
     5     1      0.967827      0.015191      0.319428
     6     1      0.220743      0.263469      0.319222
     7     1      0.212763      0.442782      0.485394
     8     1      0.958657      0.194833      0.484553
     9     1      0.908084      0.043531      0.651904
    10     1      0.153296      0.292594      0.652635
    11     1      0.321807      0.401040      0.822067
    12     1      0.073408      0.148887      0.821797
    13     1      0.040452      0.487479      0.986590
    14     1      0.292556      0.737058      0.987082
    15     1      0.278555      0.909063      0.151426
    16     1      0.024180      0.658298      0.152677
    17     1      0.970249      0.514098      0.320509
    18     1      0.220604      0.764683      0.319590
    19     1      0.208469      0.943197      0.484453
    20     1      0.961623      0.691852      0.485357
    21     1      0.905087      0.543199      0.652973
    22     1      0.156907      0.793768      0.652835
    23     1      0.327149      0.898993      0.821649
    24     1      0.073926      0.649900      0.821179
    25     1      0.546869      0.988485      0.986355
    26     1      0.791703      0.238486      0.986293
    27     1      0.772565      0.410372      0.152477
    28     1      0.524255      0.160270      0.151590
    29     1      0.468794      0.014281      0.319608
    30     1      0.721761      0.264505      0.320293
    31     1      0.709856      0.443481      0.484751
    32     1      0.458377      0.192769      0.484065
    33     1      0.408394      0.042276      0.651336
    34     1      0.652437      0.294557      0.651489
    35     1      0.821631      0.399246      0.820976
    36     1      0.572163      0.149101      0.820494
    37     1      0.541792      0.488306      0.987899
    38     1      0.793722      0.738169      0.988238
    39     1      0.777074      0.910058      0.152104
    40     1      0.525202      0.660065      0.152504
    41     1      0.470131      0.513375      0.320108
    42     1      0.721676      0.764237      0.320267
    43     1      0.710204      0.942595      0.484896
    44     1      0.462445      0.693541      0.484764
    45     1      0.403823      0.544111      0.653197
    46     1      0.657907      0.792419      0.653702
    47     1      0.827863      0.899474      0.822624
    48     1      0.574711      0.648659      0.822948
ITEM: TIMESTEP
64100
ITEM: NUMBER OF ATOMS
48
ITEM: BOX BOUNDS xy xz yz  pp  pp  pp
     -0.003081      2.203080      0.000000
     -0.005336      3.815850      0.000000
     -0.007546      5.396420      0.000000
ITEM: ATOMS id type xs ys zs
     1     1      0.048352      0.988853      0.987224
     2     1      0.293571      0.238599      0.986354
     3     1      0.272882      0.410309      0.151777
     4     1      0.024640      0.159894      0.151385
     5     1      0.968806      0.015251      0.319917
     6     1      0.221080      0.264882      0.319189
     7     1      0.212229      0.442301      0.485702
     8     1      0.957399      0.193453      0.484772
     9     1      0.906625      0.043625      0.651941
    10     1      0.153506      0.292885      0.652886
    11     1      0.321888      0.400108      0.821922
    12     1      0.072546      0.148978      0.821397
    13     1      0.041422      0.488276      0.986199
    14     1      0.293415      0.738106      0.987314
    15     1      0.279983      0.909882      0.151286
    16     1      0.025714      0.659628      0.152934
    17     1      0.969665      0.514952      0.320936
    18     1      0.221081      0.764948      0.320717
    19     1      0.209457      0.942689      0.484543
    20     1      0.960021      0.691727      0.485506
    21     1      0.904977      0.542972      0.652939
    22     1      0.156788      0.793665      0.652299
    23     1      0.327378      0.899532      0.821585
    24     1      0.073117      0.649864      0.821798
    25     1      0.547082      0.988431      0.986905
    26     1      0.793090      0.239136      0.986067
    27     1      0.772756      0.410731      0.152670
    28     1      0.524613      0.160783      0.151685
    29     1      0.469973      0.014182      0.319352
    30     1      0.720496      0.265544      0.320033
    31     1      0.709907      0.443793      0.485206
    32     1      0.456709      0.191812      0.483691
    33     1      0.407227      0.042292      0.651556
    34     1      0.653449      0.292826      0.651420
    35     1      0.821763      0.398986      0.821318
    36     1      0.570348      0.150349      0.820714
    37     1      0.541409      0.487837      0.987854
    38     1      0.794156      0.738347      0.988066
    39     1      0.777675      0.909765      0.152399
    40     1      0.525171      0.660093      0.152303
    41     1      0.469824      0.514378      0.319873
    42     1      0.722275      0.764073      0.320072
    43     1      0.709607      0.942480      0.484442
    44     1      0.460411      0.693378      0.485250
    45     1      0.404448      0.542883      0.653506
    46     1      0.657943      0.791609      0.653533
    47     1      0.825905      0.900020      0.821756
    48     1      0.574323      0.648611      0.822871
ITEM: TIMESTEP
64150
ITEM: NUMBER OF ATOMS
48
ITEM: BOX BOUNDS xy xz yz  pp  pp  pp
     -0.003081      2.203080      0.000000
     -0.005336      3.815850      0.000000
     -0.007546      5.396420      0.000000
ITEM: ATOMS id type xs ys zs
     1     1      0.046484      0.988734      0.987053
     2     1      0.294201      0.238462      0.986190
     3     1      0.273138      0.411064      0.151762
     4     1      0.024553      0.160171      0.150980
     5     1      0.970162      0.014736      0.319849
     6     1      0.220652      0.265246      0.318913
     7     1      0.210754      0.442512      0.484713
     8     1      0.956518      0.192868      0.485236
     9     1      0.906007      0.041750      0.652158
    10     1      0.154250      0.292746      0.652427
    11     1      0.322058      0.399521      0.821491
    12     1      0.073083      0.148517      0.821151
    13     1      0.043078      0.488426      0.986212
    14     1      0.294473      0.738634      0.986872
    15     1      0.278993      0.910328      0.151610
    16     1      0.027104      0.659890      0.152542
    17     1      0.969777      0.515697      0.320725
    18     1      0.221858      0.765195      0.319983
    19     1      0.208409      0.942600      0.484579
    20     1      0.959547      0.691588      0.485832
    21     1      0.905435      0.542848      0.652950
    22     1      0.157395      0.793251      0.652241
    23     1      0.326191      0.899430      0.821887
    24     1      0.072805      0.650086      0.821135
    25     1      0.547278      0.989494      0.987335
    26     1      0.793577      0.239314      0.986058
    27     1      0.774816      0.410990      0.152516
    28     1      0.524793      0.161677      0.152068
    29     1      0.469818      0.014334      0.319255
    30     1      0.719495      0.265529      0.320373
    31     1      0.709234      0.442678      0.485208
    32     1      0.456881      0.191346      0.484175
    33     1      0.406679      0.041764      0.651852
    34     1      0.653830      0.291955      0.651421
    35     1      0.821503      0.399276      0.820701
    36     1      0.571431      0.149938      0.820797
    37     1      0.542918      0.487924      0.987412
    38     1      0.794698      0.739170      0.987744
    39     1      0.776681      0.910211      0.152501
    40     1      0.526043      0.660263      0.151962
    41     1      0.470924      0.514578      0.320028
    42     1      0.721566      0.764595      0.320202
    43     1      0.709261      0.942426      0.484812
    44     1      0.460852      0.692292      0.485026
    45     1      0.403867      0.543299      0.653511
    46     1      0.658055      0.791793      0.652898
    47     1      0.823702      0.899896      0.821965
    48     1      0.574092      0.649179      0.822861
ITEM: TIMESTEP
64200
ITEM: NUMBER OF ATOMS
48
ITEM: BOX BOUNDS xy xz yz  pp  pp  pp
     -0.003081      2.203080      0.000000
     -0.005336      3.815850      0.000000
     -0.007546      5.396420      0.000000
ITEM: ATOMS id type xs ys zs
     1     1      0.045722      0.988745      0.986715
     2     1      0.294322      0.238867      0.986563
     3     1      0.274256      0.410805      0.151658
     4     1      0.026277      0.160824      0.151306
     5     1      0.970485      0.015513      0.319949
     6     1      0.221105      0.264747      0.318888
     7     1      0.209857      0.442049      0.484852
     8     1      0.957101      0.191163      0.484841
     9     1      0.906795      0.041515      0.652070
    10     1      0.155733      0.291909      0.652448
    11     1      0.322084      0.398983      0.821916
    12     1      0.071088      0.149286      0.821185
    13     1      0.042145      0.489300      0.986214
    14     1      0.296376      0.739404      0.987182
    15     1      0.277699      0.911031      0.151800
    16     1      0.026580      0.659206      0.151910
    17     1      0.969496      0.515516      0.320506
    18     1      0.222348      0.765658      0.320536
    19     1      0.207507      0.941884      0.484428
    20     1      0.959472      0.691705      0.484996
    21     1      0.904263      0.541480      0.652537
    22     1      0.157150      0.792332      0.652069
    23     1      0.323280      0.900119      0.821664
    24     1      0.072493      0.649757      0.821039
    25     1      0.545901      0.989739      0.986953
    26     1      0.793391      0.239948      0.986612
    27     1      0.774871      0.411177      0.152609
    28     1      0.525857      0.162035      0.151903
    29     1      0.471293      0.014789      0.319594
    30     1      0.720291      0.264880      0.320446
    31     1      0.709446      0.441483      0.485100
    32     1      0.456130      0.190490      0.484414
    33     1      0.405780      0.041331      0.651801
    34     1      0.654350      0.291515      0.651143
    35     1      0.821883      0.399656      0.820674
    36     1      0.571238      0.150462      0.821488
    37     1      0.543854      0.488873      0.987119
    38     1      0.795802      0.738956      0.986982
    39     1      0.777241      0.910275      0.152106
    40     1      0.528069      0.660723      0.152609
    41     1      0.469958      0.514252      0.320084
    42     1      0.720494      0.764357      0.320096
    43     1      0.709048      0.941541      0.484606
    44     1      0.459131      0.692106      0.485119
    45     1      0.404069      0.543078      0.653511
    46     1      0.658580      0.791485      0.652782
    47     1      0.822854      0.899982      0.821648
    48     1      0.573129      0.649578      0.822519
ITEM: TIMESTEP
64250
ITEM: NUMBER OF ATOMS
48
ITEM: BOX BOUNDS xy xz yz  pp  pp  pp
     -0.003081      2.203080      0.000000
     -0.005336      3.815850      0.000000
     -0.007546      5.396420      0.000000
ITEM: ATOMS id type xs ys zs
     1     1      0.046436      0.989025      0.986754
     2     1      0.294374      0.239038      0.986936
     3     1      0.273352      0.411041      0.151370
     4     1      0.025785      0.160783      0.151366
     5     1      0.970661      0.015670      0.319345
     6     1      0.220628      0.264198      0.319087
     7     1      0.209191      0.441114      0.485125
     8     1      0.957946      0.191668      0.484636
     9     1      0.908151      0.041140      0.652301
    10     1      0.156076      0.291923      0.652804
    11     1      0.320603      0.399328      0.821697
    12     1      0.070425      0.149843      0.821780
    13     1      0.042194      0.489434      0.986428
    14     1      0.295861      0.739819      0.987567
    15     1      0.276679      0.911357      0.152110
    16     1      0.027214      0.660709      0.151994
    17     1      0.970053      0.514899      0.319946
    18     1      0.222434      0.765046      0.320179
    19     1      0.208789      0.941050      0.484202
    20     1      0.958687      0.690961      0.484984
    21     1      0.904761      0.541545      0.652478
    22     1      0.158095      0.791204      0.652572
    23     1      0.324870      0.899488      0.821933
    24     1      0.072260      0.650285      0.821599
    25     1      0.544672      0.989758      0.986989
    26     1      0.794068      0.240150      0.986604
    27     1      0.773132      0.411613      0.152175
    28     1      0.525926      0.161511      0.152234
    29     1      0.470454      0.015146      0.319452
    30     1      0.719039      0.264949      0.320523
    31     1      0.707515      0.440717      0.484782
    32     1      0.457734      0.190732      0.484101
    33     1      0.406586      0.040918      0.652086
    34     1      0.654905      0.291906      0.651532
    35     1      0.820707      0.400075      0.820983
    36     1      0.570591      0.149905      0.821242
    37     1      0.543121      0.489616      0.987089
    38     1      0.795979      0.739237      0.986855
    39     1      0.777178      0.912058      0.152025
    40     1      0.526521      0.662271      0.152515
    41     1      0.470602      0.514338      0.319909
    42     1      0.722095      0.764978      0.319832
    43     1      0.709987      0.941254      0.484229
    44     1      0.458832      0.691679      0.485231
    45     1      0.404533      0.542097      0.653342
    46     1      0.658167      0.791001      0.652838
    47     1      0.822680      0.900532      0.821876
    48     1      0.572503      0.649611      0.822733
ITEM: TIMESTEP
64300
ITEM: NUMBER OF ATOMS
48
ITEM: BOX BOUNDS xy xz yz  pp  pp  pp
     -0.003081      2.203080      0.000000
     -0.005336      3.815850      0.000000
     -0.007546      5.396420      0.000000
ITEM: ATOMS id type xs ys zs
     1     1      0.046066      0.989656      0.986741
     2     1      0.294200      0.239621      0.987059
     3     1      0.273641      0.411376      0.151815
     4     1      0.025570      0.161899      0.151403
     5     1      0.970657      0.015184      0.319544
     6     1      0.219822      0.264430      0.319007
     7     1      0.207973      0.441390      0.485437
     8     1      0.957467      0.191339      0.484526
     9     1      0.907701      0.040494      0.651735
    10     1      0.156911      0.291001      0.652417
    11     1      0.321827      0.399621      0.821404
    12     1      0.070483      0.150335      0.821815
    13     1      0.042560      0.489787      0.986464
    14     1      0.294087      0.739678      0.987632
    15     1      0.276925      0.911443      0.152348
    16     1      0.026408      0.661106      0.151779
    17     1      0.971118      0.514837      0.319453
    18     1      0.221255      0.764922      0.320214
    19     1      0.208845      0.941645      0.483820
    20     1      0.960086      0.690900      0.485398
    21     1      0.904344      0.540759      0.653066
    22     1      0.158323      0.791174      0.652739
    23     1      0.322837      0.898794      0.821721
    24     1      0.071513      0.649822      0.821877
    25     1      0.546025      0.990504      0.987078
    26     1      0.793808      0.240081      0.986751
    27     1      0.773177      0.412474      0.152241
    28     1      0.525799      0.161904      0.152173
    29     1      0.471040      0.014787      0.319166
    30     1      0.718926      0.264567      0.319776
    31     1      0.706705      0.442144      0.484346
    32     1      0.457661      0.190360      0.484340
    33     1      0.408597      0.040647      0.652163
    34     1      0.655219      0.290661      0.651567
    35     1      0.820277      0.399821      0.821221
    36     1      0.569836      0.150024      0.821331
    37     1      0.541993      0.490298      0.986873
    38     1      0.795502      0.740300      0.986742
    39     1      0.775695      0.911878      0.152005
    40     1      0.526027      0.661299      0.151978
    41     1      0.470545      0.514678      0.320010
    42     1      0.721172      0.764962      0.319963
    43     1      0.709230      0.940626      0.484278
    44     1      0.458845      0.691286      0.485088
    45     1      0.404179      0.541832      0.653001
    46     1      0.658154      0.791087      0.652423
    47     1      0.822126      0.899955      0.821874
    48     1      0.572124      0.650322      0.822138
ITEM: TIMESTEP
64350
ITEM: NUMBER OF ATOMS
48
ITEM: BOX BOUNDS xy xz yz  pp  pp  pp
     -0.003081      2.203080      0.000000
     -0.005336      3.815850      0.000000
     -0.007546      5.396420      0.000000
ITEM: ATOMS id type xs ys zs
     1     1      0.046313      0.989359      0.987058
     2     1      0.294300      0.240436      0.986757
     3     1      0.273863      0.411420      0.151060
     4     1      0.024210      0.161878      0.151367
     5     1      0.970909      0.014743      0.318978
     6     1      0.220000      0.264609      0.319303
     7     1      0.207136      0.440587      0.485018
     8     1      0.956353      0.190968      0.484830
     9     1      0.907287      0.040396      0.651927
    10     1      0.157058      0.290762      0.652029
    11     1      0.320547      0.400410      0.821911
    12     1      0.069459      0.150956      0.821481
    13     1      0.044512      0.490730      0.985997
    14     1      0.294584      0.739291      0.987482
    15     1      0.278573      0.911972      0.152067
    16     1      0.027070      0.661863      0.152389
    17     1      0.971473      0.514711      0.319162
    18     1      0.222487      0.764933      0.319733
    19     1      0.205998      0.941624      0.484494
    20     1      0.959517      0.691115      0.484763
    21     1      0.904823      0.540629      0.653038
    22     1      0.157691      0.791993      0.652684
    23     1      0.322959      0.899628      0.822077
    24     1      0.069735      0.650506      0.821983
    25     1      0.545664      0.989779      0.986713
    26     1      0.793277      0.239505      0.986424
    27     1      0.772687      0.411857      0.151410
    28     1      0.526086      0.163018      0.151734
    29     1      0.470143      0.014891      0.319301
    30     1      0.718337      0.264551      0.320091
    31     1      0.707428      0.441325      0.484942
    32     1      0.457610      0.189880      0.484238
    33     1      0.408050      0.040333      0.651669
    34     1      0.656328      0.290505      0.651576
    35     1      0.821038      0.400259      0.821532
    36     1      0.568724      0.149792      0.821691
    37     1      0.543197      0.490229      0.986716
    38     1      0.794606      0.740002      0.987531
    39     1      0.775248      0.912159      0.151881
    40     1      0.525846      0.662110      0.151989
    41     1      0.471079      0.515442      0.319290
    42     1      0.720207      0.764886      0.319643
    43     1      0.707419      0.939886      0.484613
    44     1      0.457848      0.690428      0.485065
    45     1      0.403915      0.542018      0.652542
    46     1      0.657362      0.790373      0.652512
    47     1      0.822176      0.900288      0.821352
    48     1      0.571657      0.650078      0.821795
ITEM: TIMESTEP
64400
ITEM: NUMBER OF ATOMS
48
ITEM: BOX BOUNDS xy xz yz  pp  pp  pp
     -0.003081      2.203080      0.000000
     -0.005336      3.815850      0.000000
     -0.007546      5.396420      0.000000
ITEM: ATOMS id type xs ys zs
     1     1      0.046134      0.990045      0.986958
     2     1      0.295691      0.241097      0.986645
     3     1      0.275192      0.412091      0.150991
     4     1      0.024520      0.162850      0.151803
     5     1      0.971348      0.015475      0.318956
     6     1      0.220376      0.265288      0.319279
     7     1      0.207607      0.439897      0.484441
     8     1      0.956918      0.190339      0.484379
     9     1      0.907227      0.040444      0.652597
    10     1      0.156920      0.289867      0.651801
    11     1      0.321114      0.400578      0.821412
    12     1      0.070226      0.150912      0.821978
    13     1      0.043635      0.490495      0.986217
    14     1      0.295430      0.740439      0.986856
    15     1      0.276952      0.912198      0.151896
    16     1      0.027691      0.661795      0.152502
    17     1      0.970521      0.514789      0.319056
    18     1      0.220717      0.764699      0.320106
    19     1      0.206095      0.940290      0.484377
    20     1      0.957986      0.689788      0.484855
    21     1      0.904882      0.540719      0.652635
    22     1      0.157429      0.791028      0.652709
    23     1      0.321601      0.899933      0.821860
    24     1      0.070069      0.651231      0.822048
    25     1      0.544390      0.990233      0.986691
    26     1      0.794569      0.239604      0.986328
    27     1      0.775299      0.412024      0.151794
    28     1      0.526315      0.162216      0.151943
    29     1      0.470606      0.014357      0.319664
    30     1      0.718732      0.265268      0.319599
    31     1      0.707444      0.440912      0.484524
    32     1      0.458725      0.189918      0.484496
    33     1      0.408038      0.039708      0.651781
    34     1      0.657071      0.290248      0.652133
    35     1      0.820572      0.399567      0.821901
    36     1      0.568390      0.150619      0.821821
    37     1      0.545063      0.490306      0.986898
    38     1      0.794875      0.740876      0.987335
    39     1      0.776434      0.911738      0.151781
    40     1      0.527054      0.662266      0.152338
    41     1      0.470408      0.515033      0.319563
    42     1      0.721736      0.764456      0.320189
    43     1      0.706450      0.939315      0.484496
    44     1      0.456914      0.690335      0.484791
    45     1      0.403823      0.542111      0.652418
    46     1      0.658367      0.789373      0.652589
    47     1      0.822359      0.900486      0.821823
    48     1      0.570363      0.649934      0.822073
ITEM: TIMESTEP
64450
ITEM: NUMBER OF ATOMS
48
ITEM: BOX BOUNDS xy xz yz  pp  pp  pp
     -0.003081      2.203080      0.000000
     -0.005336      3.815850      0.000000
     -0.007546      5.396420      0.000000
ITEM: ATOMS id type xs ys zs
     1     1      0.046586      0.989941      0.986478
     2     1      0.294313      0.241668      0.987101
     3     1      0.277225      0.411879      0.151506
     4     1      0.025947      0.162690      0.151604
     5     1      0.971186      0.014636      0.319462
     6     1      0.219898      0.264519      0.319126
     7     1      0.207655      0.439391      0.484601
     8     1      0.955463      0.189699      0.484168
     9     1      0.907565      0.039848      0.651950
    10     1      0.156847      0.289876      0.652218
    11     1      0.320095      0.400496      0.821329
    12     1      0.070768      0.150664      0.821821
    13     1      0.043659      0.490587      0.986489
    14     1      0.296875      0.740797      0.986912
    15     1      0.277728      0.912038      0.152136
    16     1      0.027097      0.662028      0.152204
    17     1      0.971098      0.514218      0.319282
    18     1      0.221874      0.764794      0.319743
    19     1      0.205397      0.940442      0.484488
    20     1      0.957749      0.689453      0.484465
    21     1      0.905706      0.539547      0.651680
    22     1      0.157955      0.790115      0.652175
    23     1      0.322093      0.900840      0.821551
    24     1      0.067875      0.650852      0.821871
    25     1      0.545145      0.990179      0.986710
    26     1      0.794185      0.240634      0.986253
    27     1      0.777083      0.412023      0.152017
    28     1      0.526897      0.162304      0.151959
    29     1      0.472169      0.014321      0.319823
    30     1      0.719802      0.264771      0.319923
    31     1      0.707381      0.440713      0.484489
    32     1      0.456869      0.189284      0.484112
    33     1      0.407907      0.039228      0.651959
    34     1      0.655991      0.289660      0.651739
    35     1      0.819235      0.399875      0.821745
    36     1      0.568765      0.150397      0.821890
    37     1      0.544948      0.490875      0.986669
    38     1      0.795657      0.741280      0.987289
    39     1      0.776847      0.911973      0.151942
    40     1      0.526940      0.661663      0.151822
    41     1      0.470514      0.514972      0.319952
    42     1      0.723026      0.764126      0.320058
    43     1      0.707639      0.937944      0.484627
    44     1      0.457464      0.690060      0.484998
    45     1      0.404132      0.540608      0.652473
    46     1      0.659067      0.789513      0.652447
    47     1      0.820023      0.900717      0.821382
    48     1      0.570278      0.650344      0.821860
ITEM: TIMESTEP
64500
ITEM: NUMBER OF ATOMS
48
ITEM: BOX BOUNDS xy xz yz  pp  pp  pp
     -0.003081      2.203080      0.000000
     -0.005336      3.815850      0.000000
     -0.007546      5.396420      0.000000
ITEM: ATOMS id type xs ys zs
     1     1      0.046087      0.991009      0.987070
     2     1      0.293596      0.241344      0.986528
     3     1      0.276440      0.412387      0.151684
     4     1      0.026184      0.162391      0.151650
     5     1      0.972696      0.014396      0.319652
     6     1      0.220297      0.265019      0.319238
     7     1      0.207738      0.439613      0.484842
     8     1      0.955478      0.189944      0.484318
     9     1      0.907233      0.039286      0.652243
    10     1      0.156357      0.289384      0.652155
    11     1      0.317519      0.401025      0.821718
    12     1      0.069503      0.151103      0.822000
    13     1      0.043730      0.490431      0.986274
    14     1      0.294893      0.740742      0.986922
    15     1      0.277681      0.912677      0.152345
    16     1      0.027956      0.661991      0.152105
    17     1      0.972280      0.515151      0.319783