ITEM: TIMESTEP
64001
ITEM: NUMBER OF ATOMS
48
ITEM: BOX BOUNDS xy xz yz  pp  pp  pp
     -0.003081      2.203080      0.000000
     -0.005336      3.815850      0.000000
     -0.007546      5.396420      0.000000
ITEM: ATOMS id type xs ys zs
     1     1      0.048522      0.988126      0.987019
     2     1      0.293106      0.237301      0.986141
     3     1      0.272329      0.408641      0.151715
     4     1      0.022249      0.159237      0.150317
     5     1      0.967102      0.015480      0.319131
     6     1      0.220132      0.262887      0.318785
     7     1      0.212030      0.443099      0.485066
     8     1      0.959030      0.195849      0.485180
     9     1      0.907851      0.044635      0.651885
    10     1      0.153812      0.294652      0.653564
    11     1      0.322896      0.401040      0.822781
    12     1      0.073784      0.149343      0.821677
    13     1      0.038882      0.487067      0.986990
    14     1      0.292072      0.735889      0.986865
    15     1      0.277831      0.908819      0.151285
    16     1      0.026253      0.657952      0.152827
    17     1      0.972251      0.513284      0.320650
    18     1      0.219145      0.764475      0.319865
    19     1      0.208786      0.943876      0.484386
    20     1      0.963670      0.692994      0.485634
    21     1      0.904553      0.544238      0.652540
    22     1      0.157761      0.794705      0.653369
    23     1      0.329300      0.899270      0.821774
    24     1      0.073791      0.649346      0.821732
    25     1      0.549051      0.987265      0.986209
    26     1      0.791519      0.237893      0.985498
    27     1      0.772794      0.409892      0.153266
    28     1      0.523373      0.159543      0.151435
    29     1      0.467982      0.015874      0.319795
    30     1      0.720697      0.265002      0.320272
    31     1      0.709816      0.444814      0.484589
    32     1      0.459204      0.193541      0.484150
    33     1      0.409178      0.042830      0.650859
    34     1      0.651850      0.294894      0.651366
    35     1      0.823738      0.399287      0.820571
    36     1      0.572557      0.150221      0.820181
    37     1      0.541909      0.488223      0.987995
    38     1      0.794166      0.737913      0.988909
    39     1      0.776419      0.909137      0.152452
    40     1      0.525419      0.659796      0.152876
    41     1      0.469595      0.513603      0.319459
    42     1      0.720984      0.764132      0.320505
    43     1      0.712325      0.943501      0.483921
    44     1      0.462251      0.694609      0.485201
    45     1      0.404378      0.544533      0.653292
    46     1      0.658511      0.793808      0.653145
    47     1      0.829281      0.898864      0.822384
    48     1      0.575477      0.649275      0.822972
ITEM: TIMESTEP
64050
ITEM: NUMBER OF ATOMS
48
ITEM: BOX BOUNDS xy xz yz  pp  pp  pp
     -0.003081      2.203080      0.000000
     -0.005336      3.815850      0.000000
     -0.007546      5.396420      0.000000
ITEM: ATOMS id type xs ys zs
     1     1      0.048944      0.987744      0.986830
     2     1      0.294233      0.238011      0.986641
     3     1      0.274181      0.409742      0.151236
     4     1      0.023413      0.159068      0.150201
     5     1      0.968048      0.015008      0.319748
     6     1      0.219475      0.263127      0.319123
     7     1      0.212329      0.442036      0.485285
     8     1      0.957833      0.194516      0.485290
     9     1      0.907316      0.043924      0.652052
    10     1      0.153601      0.294543      0.653191
    11     1      0.321554      0.400953      0.823110
    12     1      0.073949      0.149958      0.821431
    13     1      0.039879      0.486961      0.987421
    14     1      0.293115      0.736900      0.987353
    15     1      0.278282      0.909522      0.151557
    16     1      0.026062      0.658314      0.153157
    17     1      0.971949      0.513846      0.321262
    18     1      0.219542      0.764865      0.319851
    19     1      0.208360      0.943631      0.484756
    20     1      0.962124      0.692606      0.485219
    21     1      0.905444      0.543163      0.652429
    22     1      0.156416      0.793811      0.653323
    23     1      0.327425      0.899194      0.821730
    24     1      0.074837      0.649243      0.821765
    25     1      0.549153      0.987246      0.985896
    26     1      0.792045      0.238153      0.986121
    27     1      0.775000      0.409645      0.153159
    28     1      0.524456      0.159863      0.151257
    29     1      0.468403      0.014998      0.320026
    30     1      0.718963      0.264394      0.319643
    31     1      0.709291      0.444044      0.484944
    32     1      0.458107      0.193183      0.484274
    33     1      0.409025      0.042306      0.650901
    34     1      0.652689      0.294204      0.651734
    35     1      0.822250      0.400071      0.821037
    36     1      0.573238      0.149464      0.820342
    37     1      0.542036      0.488106      0.988205
    38     1      0.794116      0.737774      0.988708
    39     1      0.778090      0.909194      0.152040
    40     1      0.525533      0.660128      0.152496
    41     1      0.469416      0.512617      0.319362
    42     1      0.720381      0.764285      0.320351
    43     1      0.710932      0.943458      0.484144
    44     1      0.461990      0.694727      0.485647
    45     1      0.403582      0.544502      0.653264
    46     1      0.657416      0.793118      0.652694
    47     1      0.828234      0.899655      0.821565
    48     1      0.574889      0.649803      0.822748
ITEM: TIMESTEP
64100
ITEM: NUMBER OF ATOMS
48
ITEM: BOX BOUNDS xy xz yz  pp  pp  pp
     -0.003081      2.203080      0.000000
     -0.005336      3.815850      0.000000
     -0.007546      5.396420      0.000000
ITEM: ATOMS id type xs ys zs
     1     1      0.047599      0.988863      0.987527
     2     1      0.294778      0.238372      0.986499
     3     1      0.276422      0.409879      0.151734
     4     1      0.024543      0.159233      0.150523
     5     1      0.968059      0.015267      0.319456
     6     1      0.216978      0.263113      0.319811
     7     1      0.211684      0.441722      0.485986
     8     1      0.953255      0.195632      0.499250
     9     1      0.905078      0.039479      0.655927
    10     1      0.158191      0.296596      0.657179
    11     1      0.320377      0.400748      0.822538
    12     1      0.073494      0.149762      0.822330
    13     1      0.038484      0.487353      0.985603
    14     1      0.293400      0.737113      0.987417
    15     1      0.278768      0.910185      0.151667
    16     1      0.026310      0.660308      0.153356
    17     1      0.969961      0.514489      0.321490
    18     1      0.219207      0.765103      0.320010
    19     1      0.206546      0.944023      0.484974
    20     1      0.961237      0.692876      0.484196
    21     1      0.907297      0.545527      0.648636
    22     1      0.155948      0.793516      0.652922
    23     1      0.327716      0.899406      0.821531
    24     1      0.073349      0.649092      0.820924
    25     1      0.547789      0.987342      0.986270
    26     1      0.792028      0.239085      0.984877
    27     1      0.775217      0.410292      0.152641
    28     1      0.526392      0.159431      0.151515
    29     1      0.468824      0.014548      0.320175
    30     1      0.722154      0.263834      0.321301
    31     1      0.708425      0.443744      0.484251
    32     1      0.456552      0.192379      0.483476
    33     1      0.407029      0.042441      0.651117
    34     1      0.646306      0.289889      0.672863
    35     1      0.828454      0.400733      0.808917
    36     1      0.573613      0.149042      0.821144
    37     1      0.543923      0.488575      0.961564
    38     1      0.794764      0.738990      0.987917
    39     1      0.778276      0.909626      0.152213
    40     1      0.526875      0.660940      0.152448
    41     1      0.468380      0.513803      0.319955
    42     1      0.718829      0.763906      0.320560
    43     1      0.709948      0.943989      0.485046
    44     1      0.461234      0.694194      0.485898
    45     1      0.404885      0.543487      0.653549
    46     1      0.657401      0.793711      0.653032
    47     1      0.828627      0.899158      0.822294
    48     1      0.575225      0.651332      0.821779
ITEM: TIMESTEP
64150
ITEM: NUMBER OF ATOMS
48
ITEM: BOX BOUNDS xy xz yz  pp  pp  pp
     -0.003081      2.203080      0.000000
     -0.005336      3.815850      0.000000
     -0.007546      5.396420      0.000000
ITEM: ATOMS id type xs ys zs
     1     1      0.046974      0.989295      0.987484
     2     1      0.295809      0.239269      0.986953
     3     1      0.275957      0.410094      0.151270
     4     1      0.026143      0.160228      0.150683
     5     1      0.969713      0.014947      0.319988
     6     1      0.217724      0.263741      0.320674
     7     1      0.209873      0.441115      0.486367
     8     1      0.951994      0.195129      0.493781
     9     1      0.905862      0.040013      0.655291
    10     1      0.152249      0.294102      0.655979
    11     1      0.319697      0.398675      0.820436
    12     1      0.072902      0.149544      0.822905
    13     1      0.042207      0.487481      0.985619
    14     1      0.293853      0.737257      0.986447
    15     1      0.278214      0.911069      0.151234
    16     1      0.026244      0.661013      0.152959
    17     1      0.969508      0.514088      0.321398
    18     1      0.221241      0.765400      0.319879
    19     1      0.202936      0.945150      0.484229
    20     1      0.958910      0.692965      0.483911
    21     1      0.910800      0.546470      0.651991
    22     1      0.155102      0.793368      0.652834
    23     1      0.391351      0.862411      0.794176
    24     1      0.074780      0.649754      0.820524
    25     1      0.547093      0.986949      0.986346
    26     1      0.795094      0.239751      0.985125
    27     1      0.774243      0.411082      0.151094
    28     1      0.527987      0.159350      0.151664
    29     1      0.470813      0.014164      0.320393
    30     1      0.722422      0.264666      0.321240
    31     1      0.703639      0.441519      0.508093
    32     1      0.456331      0.193068      0.484582
    33     1      0.406559      0.042081      0.651542
    34     1      0.645545      0.289025      0.661093
    35     1      0.830499      0.402092      0.817056
    36     1      0.571631      0.146371      0.823418
    37     1      0.549462      0.488206      0.974917
    38     1      0.795691      0.738354      0.987478
    39     1      0.778532      0.909718      0.152280
    40     1      0.526539      0.661127      0.151666
    41     1      0.469436      0.513497      0.320366
    42     1      0.718988      0.764150      0.320999
    43     1      0.708259      0.943066      0.485229
    44     1      0.394668      0.731093      0.512654
    45     1      0.400799      0.540501      0.650771
    46     1      0.661723      0.796067      0.649575
    47     1      0.829419      0.898166      0.822982
    48     1      0.581273      0.649235      0.798102
ITEM: TIMESTEP
64200
ITEM: NUMBER OF ATOMS
48
ITEM: BOX BOUNDS xy xz yz  pp  pp  pp
     -0.003081      2.203080      0.000000
     -0.005336      3.815850      0.000000
     -0.007546      5.396420      0.000000
ITEM: ATOMS id type xs ys zs
     1     1      0.049003      0.989766      0.987696
     2     1      0.297137      0.239004      0.986918
     3     1      0.277619      0.410305      0.151722
     4     1      0.024933      0.160704      0.150919
     5     1      0.968352      0.016060      0.319450
     6     1      0.218923      0.263507      0.320401
     7     1      0.206000      0.440761      0.484990
     8     1      0.950612      0.196499      0.490285
     9     1      0.905231      0.042344      0.655042
    10     1      0.149333      0.292478      0.654974
    11     1      0.322840      0.398562      0.820440
    12     1      0.073541      0.148126      0.823101
    13     1      0.044881      0.488105      0.986462
    14     1      0.294744      0.738133      0.985624
    15     1      0.279261      0.910996      0.151297
    16     1      0.026890      0.660653      0.152403
    17     1      0.967963      0.513847      0.321450
    18     1      0.220460      0.765059      0.321560
    19     1      0.195839      0.952058      0.484773
    20     1      0.944075      0.691521      0.484704
    21     1      0.909385      0.545719      0.654308
    22     1      0.145865      0.792571      0.651544
    23     1      0.368607      0.880088      0.807837
    24     1      0.079175      0.648863      0.821692
    25     1      0.545613      0.985871      0.985127
    26     1      0.796476      0.239073      0.985828
    27     1      0.773787      0.411231      0.150476
    28     1      0.528029      0.160184      0.151041
    29     1      0.468640      0.014782      0.320177
    30     1      0.721160      0.264761      0.321012
    31     1      0.699672      0.442774      0.497341
    32     1      0.455590      0.193524      0.485597
    33     1      0.404039      0.043032      0.650909
    34     1      0.646724      0.288250      0.658454
    35     1      0.830995      0.398746      0.819307
    36     1      0.571862      0.145260      0.823025
    37     1      0.548388      0.489625      0.978677
    38     1      0.794180      0.737920      0.985201
    39     1      0.778073      0.910032      0.152156
    40     1      0.526503      0.661784      0.151081
    41     1      0.473179      0.513953      0.321740
    42     1      0.718623      0.764695      0.320856
    43     1      0.705719      0.944392      0.484049
    44     1      0.422913      0.712560      0.498753
    45     1      0.399985      0.538437      0.649796
    46     1      0.665768      0.796518      0.651597
    47     1      0.843386      0.897873      0.823017
    48     1      0.592604      0.639304      0.809134
ITEM: TIMESTEP
64250
ITEM: NUMBER OF ATOMS
48
ITEM: BOX BOUNDS xy xz yz  pp  pp  pp
     -0.003081      2.203080      0.000000
     -0.005336      3.815850      0.000000
     -0.007546      5.396420      0.000000
ITEM: ATOMS id type xs ys zs
     1     1      0.047563      0.989282      0.988097
     2     1      0.295966      0.239696      0.986811
     3     1      0.278688      0.411309      0.152076
     4     1      0.026709      0.162116      0.151421
     5     1      0.967795      0.016495      0.319526
     6     1      0.219284      0.264767      0.320405
     7     1      0.203488      0.442157      0.484492
     8     1      0.950313      0.195416      0.488293
     9     1      0.902251      0.043261      0.654159
    10     1      0.149959      0.291658      0.653572
    11     1      0.324598      0.397217      0.819809
    12     1      0.074554      0.148324      0.822472
    13     1      0.045439      0.488202      0.986731
    14     1      0.295478      0.738941      0.985868
    15     1      0.279711      0.911400      0.151834
    16     1      0.027007      0.659710      0.153161
    17     1      0.969208      0.513745      0.321239
    18     1      0.219768      0.765151      0.321453
    19     1      0.194581      0.950242      0.485749
    20     1      0.941738      0.691713      0.485396
    21     1      0.907800      0.543595      0.654557
    22     1      0.149426      0.792414      0.650899
    23     1      0.359593      0.885808      0.813231
    24     1      0.083854      0.648041      0.821371
    25     1      0.544939      0.986408      0.985447
    26     1      0.795658      0.239150      0.986081
    27     1      0.774887      0.410736      0.151233
    28     1      0.527801      0.160571      0.151198
    29     1      0.467834      0.015445      0.320064
    30     1      0.719832      0.264846      0.321036
    31     1      0.698881      0.443121      0.492568
    32     1      0.456068      0.193912      0.485769
    33     1      0.403206      0.041767      0.650925
    34     1      0.648204      0.288937      0.656882
    35     1      0.832018      0.396795      0.820558
    36     1      0.573381      0.145149      0.822715
    37     1      0.547343      0.489991      0.982048
    38     1      0.794425      0.737332      0.984826
    39     1      0.777010      0.910196      0.151163
    40     1      0.527285      0.661470      0.151054
    41     1      0.471864      0.515654      0.322175
    42     1      0.718266      0.765891      0.320496
    43     1      0.702915      0.944668      0.484511
    44     1      0.431538      0.705257      0.493071
    45     1      0.401949      0.539233      0.650316
    46     1      0.661580      0.795321      0.652224
    47     1      0.846384      0.896965      0.821831
    48     1      0.591752      0.640260      0.812968
ITEM: TIMESTEP
64300
ITEM: NUMBER OF ATOMS
48
ITEM: BOX BOUNDS xy xz yz  pp  pp  pp
     -0.003081      2.203080      0.000000
     -0.005336      3.815850      0.000000
     -0.007546      5.396420      0.000000
ITEM: ATOMS id type xs ys zs
     1     1      0.048988      0.990746      0.990225
     2     1      0.297260      0.239999      0.987248
     3     1      0.279434      0.411503      0.151794
     4     1      0.027385      0.162978      0.150007
     5     1      0.978041      0.056715      0.313092
     6     1      0.219880      0.268675      0.320084
     7     1      0.200440      0.444050      0.485654
     8     1      0.950955      0.195470      0.486998
     9     1      0.916764      0.038865      0.652745
    10     1      0.152273      0.289916      0.652792
    11     1      0.325741      0.395499      0.820389
    12     1      0.077210      0.148199      0.822968
    13     1      0.046237      0.489101      0.986686
    14     1      0.295593      0.738246      0.986797
    15     1      0.277749      0.910051      0.152448
    16     1      0.026852      0.660028      0.153858
    17     1      0.927333      0.501439      0.341155
    18     1      0.214262      0.766576      0.320494
    19     1      0.198152      0.948324      0.480276
    20     1      0.917286      0.709087      0.492733
    21     1      0.903427      0.538715      0.653223
    22     1      0.175981      0.783262      0.638472
    23     1      0.334242      0.895686      0.820544
    24     1      0.085105      0.648003      0.820236
    25     1      0.547707      0.987983      0.986441
    26     1      0.796203      0.238257      0.986051
    27     1      0.777771      0.411097      0.152676
    28     1      0.529252      0.161244      0.151145
    29     1      0.462392      0.018554      0.316332
    30     1      0.717846      0.267265      0.321283
    31     1      0.692764      0.441967      0.494085
    32     1      0.453278      0.197292      0.483555
    33     1      0.448106      0.022097      0.630898
    34     1      0.649028      0.287166      0.655459
    35     1      0.832771      0.395005      0.820492
    36     1      0.572430      0.144470      0.820732
    37     1      0.545883      0.488210      0.986559
    38     1      0.796493      0.737152      0.986540
    39     1      0.778279      0.911500      0.150501
    40     1      0.528498      0.660100      0.151298
    41     1      0.458187      0.515567      0.321706
    42     1      0.707821      0.771628      0.313968
    43     1      0.725304      0.947558      0.463042
    44     1      0.444653      0.698512      0.483221
    45     1      0.356755      0.560142      0.652491
    46     1      0.698839      0.760027      0.680642
    47     1      0.851629      0.901377      0.827641
    48     1      0.586898      0.628122      0.826666
ITEM: TIMESTEP
64350
ITEM: NUMBER OF ATOMS
48
ITEM: BOX BOUNDS xy xz yz  pp  pp  pp
     -0.003081      2.203080      0.000000
     -0.005336      3.815850      0.000000
     -0.007546      5.396420      0.000000
ITEM: ATOMS id type xs ys zs
     1     1      0.049498      0.990640      0.989963
     2     1      0.297524      0.239692      0.986893
     3     1      0.279532      0.411747      0.151175
     4     1      0.031542      0.165700      0.147601
     5     1      0.971588      0.036352      0.314981
     6     1      0.220590      0.272972      0.319729
     7     1      0.199583      0.444311      0.487696
     8     1      0.950637      0.196408      0.486408
     9     1      0.925289      0.036296      0.651990
    10     1      0.154755      0.288649      0.652989
    11     1      0.327188      0.394278      0.820525
    12     1      0.078260      0.147401      0.823050
    13     1      0.046500      0.489297      0.986413
    14     1      0.295160      0.738877      0.986243
    15     1      0.279914      0.909710      0.151743
    16     1      0.026616      0.659527      0.154865
    17     1      0.941324      0.511958      0.332125
    18     1      0.208803      0.767127      0.321132
    19     1      0.200563      0.947891      0.478268
    20     1      0.927894      0.701288      0.489218
    21     1      0.902053      0.533259      0.653331
    22     1      0.173365      0.792446      0.644603
    23     1      0.337698      0.895665      0.818844
    24     1      0.083031      0.648061      0.818378
    25     1      0.545216      0.987831      0.986758
    26     1      0.794565      0.237798      0.985328
    27     1      0.779382      0.412831      0.153704
    28     1      0.531616      0.161992      0.150646
    29     1      0.461031      0.019768      0.315543
    30     1      0.710829      0.268299      0.320652
    31     1      0.687884      0.442854      0.492649
    32     1      0.450681      0.195652      0.483870
    33     1      0.446047      0.023413      0.637970
    34     1      0.649669      0.286625      0.654543
    35     1      0.833036      0.392787      0.821145
    36     1      0.573878      0.143822      0.819705
    37     1      0.545882      0.484776      0.988933
    38     1      0.798260      0.738324      0.987398
    39     1      0.780385      0.913564      0.151469
    40     1      0.526903      0.660213      0.150083
    41     1      0.454962      0.518297      0.321167
    42     1      0.710153      0.768688      0.315804
    43     1      0.716014      0.948389      0.471562
    44     1      0.443932      0.697629      0.485703
    45     1      0.383023      0.547734      0.654606
    46     1      0.685094      0.774471      0.669122
    47     1      0.845002      0.901219      0.827502
    48     1      0.583149      0.632720      0.827787
ITEM: TIMESTEP
64400
ITEM: NUMBER OF ATOMS
48
ITEM: BOX BOUNDS xy xz yz  pp  pp  pp
     -0.003081      2.203080      0.000000
     -0.005336      3.815850      0.000000
     -0.007546      5.396420      0.000000
ITEM: ATOMS id type xs ys zs
     1     1      0.049045      0.991132      0.989447
     2     1      0.298501      0.239625      0.986644
     3     1      0.279658      0.412188      0.151264
     4     1      0.033441      0.165467      0.148326
     5     1      0.968813      0.029544      0.315188
     6     1      0.213989      0.272742      0.319545
     7     1      0.194749      0.444687      0.488419
     8     1      0.908700      0.196482      0.488121
     9     1      0.929280      0.036173      0.650961
    10     1      0.198208      0.284167      0.651547
    11     1      0.327656      0.394688      0.822196
    12     1      0.078650      0.147245      0.793884
    13     1      0.046312      0.489184      0.986196
    14     1      0.293937      0.739280      0.986798
    15     1      0.279531      0.910034      0.151894
    16     1      0.026866      0.659531      0.154651
    17     1      0.948144      0.516117      0.328243
    18     1      0.207676      0.767433      0.321449
    19     1      0.199892      0.947231      0.479491
    20     1      0.934048      0.697546      0.488864
    21     1      0.904312      0.532713      0.653390
    22     1      0.172056      0.791556      0.646844
    23     1      0.338654      0.894618      0.817861
    24     1      0.082264      0.648080      0.818051
    25     1      0.545333      0.987820      0.986661
    26     1      0.794422      0.238058      0.985230
    27     1      0.780563      0.413062      0.153464
    28     1      0.532396      0.162934      0.150293
    29     1      0.463803      0.019675      0.316430
    30     1      0.708080      0.270299      0.319303
    31     1      0.685399      0.445007      0.490618
    32     1      0.434598      0.194626      0.512056
    33     1      0.442161      0.026135      0.641535
    34     1      0.669196      0.285834      0.654411
    35     1      0.830344      0.392095      0.821270
    36     1      0.574330      0.143103      0.819646
    37     1      0.546185      0.485450      0.989223
    38     1      0.797928      0.737731      0.988633
    39     1      0.780608      0.913539      0.151291
    40     1      0.526812      0.660087      0.150699
    41     1      0.454930      0.519718      0.321921
    42     1      0.711066      0.769153      0.317643
    43     1      0.709152      0.945446      0.476510
    44     1      0.443234      0.697609      0.487661
    45     1      0.393000      0.545618      0.655446
    46     1      0.680540      0.779754      0.663958
    47     1      0.839631      0.899493      0.826491
    48     1      0.583162      0.637338      0.826859
ITEM: TIMESTEP
64450
ITEM: NUMBER OF ATOMS
48
ITEM: BOX BOUNDS xy xz yz  pp  pp  pp
     -0.003081      2.203080      0.000000
     -0.005336      3.815850      0.000000
     -0.007546      5.396420      0.000000
ITEM: ATOMS id type xs ys zs
     1     1      0.051233      0.990880      0.988924
     2     1      0.295980      0.239034      0.984806
     3     1      0.280132      0.412745      0.151707
     4     1      0.035587      0.165269      0.149173
     5     1      0.970356      0.027432      0.314482
     6     1      0.212307      0.271961      0.322209
     7     1      0.191467      0.445105      0.488007
     8     1      0.924450      0.196726      0.487446
     9     1      0.925029      0.031284      0.645505
    10     1      0.184720      0.287585      0.649832
    11     1      0.329106      0.394860      0.822091
    12     1      0.080198      0.145413      0.808989
    13     1      0.047281      0.490307      0.986200
    14     1      0.294972      0.739353      0.987416
    15     1      0.274601      0.909924      0.166661
    16     1      0.026316      0.659573      0.154831
    17     1      0.951607      0.517711      0.326395
    18     1      0.206350      0.764554      0.325661
    19     1      0.199509      0.947572      0.480676
    20     1      0.937325      0.695413      0.488258
    21     1      0.909428      0.532853      0.653321
    22     1      0.171504      0.788968      0.648329
    23     1      0.337216      0.894073      0.818928
    24     1      0.079752      0.646917      0.818762
    25     1      0.544787      0.987247      0.987142
    26     1      0.795475      0.237933      0.985566
    27     1      0.782631      0.412598      0.153353
    28     1      0.532673      0.162812      0.149786
    29     1      0.460951      0.027243      0.318194
    30     1      0.707062      0.271190      0.320496
    31     1      0.684186      0.446043      0.489282
    32     1      0.434364      0.195670      0.495640
    33     1      0.438924      0.025070      0.646992
    34     1      0.676117      0.285845      0.655376
    35     1      0.831333      0.393558      0.822335
    36     1      0.575954      0.143374      0.819694
    37     1      0.547324      0.485928      0.988845
    38     1      0.796774      0.738803      0.988319
    39     1      0.779204      0.912370      0.151484
    40     1      0.527354      0.660604      0.151136
    41     1      0.454028      0.520298      0.321850
    42     1      0.709687      0.766454      0.316309
    43     1      0.709234      0.943319      0.465299
    44     1      0.443970      0.697374      0.488630
    45     1      0.400537      0.542320      0.655368
    46     1      0.678149      0.781128      0.659408
    47     1      0.836783      0.898416      0.825179
    48     1      0.581094      0.640468      0.825714
ITEM: TIMESTEP
64500
ITEM: NUMBER OF ATOMS
48
ITEM: BOX BOUNDS xy xz yz  pp  pp  pp
     -0.003081      2.203080      0.000000
     -0.005336      3.815850      0.000000
     -0.007546      5.396420      0.000000
ITEM: ATOMS id type xs ys zs
     1     1      0.050701      0.990152      0.988569
     2     1      0.296192      0.238504      0.984303
     3     1      0.281115      0.411887      0.151907
     4     1      0.034641      0.165305      0.149884
     5     1      0.966721      0.024216      0.315921
     6     1      0.209081      0.271818      0.322227
     7     1      0.190288      0.446376      0.487987
     8     1      0.931877      0.196975      0.486886
     9     1      0.926177      0.030821      0.645410
    10     1      0.179468      0.286873      0.650256
    11     1      0.329720      0.396070      0.821802
    12     1      0.079887      0.145037      0.813866
    13     1      0.048278      0.489793      0.986268
    14     1      0.295864      0.739986      0.987237
    15     1      0.274150      0.910429      0.159285
    16     1      0.026927      0.659884      0.154697
    17     1      0.952137      0.518487      0.325233