ITEM: TIMESTEP
64001
ITEM: NUMBER OF ATOMS
48
ITEM: BOX BOUNDS xy xz yz  pp  pp  pp
     -0.003081      2.203080      0.000000
     -0.005336      3.815850      0.000000
     -0.007546      5.396420      0.000000
ITEM: ATOMS id type xs ys zs
     1     1      0.048655      0.988279      0.986902
     2     1      0.292950      0.237414      0.986123
     3     1      0.272355      0.408726      0.151651
     4     1      0.022601      0.159342      0.150469
     5     1      0.967382      0.015506      0.319111
     6     1      0.220276      0.263045      0.318764
     7     1      0.211894      0.443120      0.485138
     8     1      0.958912      0.195899      0.485141
     9     1      0.907730      0.044677      0.651852
    10     1      0.153808      0.294518      0.653625
    11     1      0.322835      0.400964      0.822779
    12     1      0.073735      0.149410      0.821769
    13     1      0.038761      0.487346      0.987020
    14     1      0.292125      0.735938      0.986867
    15     1      0.277712      0.908908      0.151239
    16     1      0.026296      0.657971      0.152783
    17     1      0.971977      0.513385      0.320705
    18     1      0.219141      0.764662      0.319705
    19     1      0.209039      0.943758      0.484291
    20     1      0.963693      0.693039      0.485676
    21     1      0.904429      0.544137      0.652416
    22     1      0.157494      0.794865      0.653328
    23     1      0.329340      0.899354      0.821705
    24     1      0.073728      0.649117      0.821725
    25     1      0.548933      0.987211      0.986220
    26     1      0.791468      0.238001      0.985447
    27     1      0.772854      0.410056      0.153201
    28     1      0.523733      0.159818      0.151569
    29     1      0.467889      0.015866      0.319845
    30     1      0.720512      0.264966      0.320235
    31     1      0.709825      0.444764      0.484615
    32     1      0.459156      0.193410      0.484206
    33     1      0.409006      0.042794      0.650899
    34     1      0.652013      0.294813      0.651297
    35     1      0.823946      0.399325      0.820436
    36     1      0.572697      0.150064      0.820141
    37     1      0.541754      0.488427      0.987993
    38     1      0.793864      0.737960      0.988867
    39     1      0.776616      0.909119      0.152406
    40     1      0.526036      0.659937      0.152893
    41     1      0.469569      0.513584      0.319534
    42     1      0.720462      0.764032      0.320590
    43     1      0.712482      0.943126      0.483958
    44     1      0.462006      0.694402      0.485212
    45     1      0.404233      0.544477      0.653224
    46     1      0.658496      0.793724      0.653161
    47     1      0.829049      0.898834      0.822410
    48     1      0.575729      0.649098      0.822890
ITEM: TIMESTEP
64050
ITEM: NUMBER OF ATOMS
48
ITEM: BOX BOUNDS xy xz yz  pp  pp  pp
     -0.003081      2.203080      0.000000
     -0.005336      3.815850      0.000000
     -0.007546      5.396420      0.000000
ITEM: ATOMS id type xs ys zs
     1     1      0.049703      0.989045      0.987067
     2     1      0.293648      0.237597      0.986825
     3     1      0.273491      0.409007      0.152296
     4     1      0.023729      0.160323      0.150734
     5     1      0.968691      0.015228      0.318542
     6     1      0.219168      0.263483      0.318713
     7     1      0.211941      0.443971      0.484982
     8     1      0.956743      0.195820      0.485633
     9     1      0.907264      0.044112      0.651849
    10     1      0.153971      0.293634      0.653552
    11     1      0.323023      0.399886      0.823098
    12     1      0.075524      0.148655      0.821341
    13     1      0.040466      0.488489      0.987197
    14     1      0.294143      0.737852      0.986295
    15     1      0.278019      0.908338      0.151270
    16     1      0.025457      0.658358      0.152945
    17     1      0.971379      0.513957      0.320566
    18     1      0.220333      0.764736      0.320568
    19     1      0.200546      0.953910      0.483975
    20     1      0.949121      0.692546      0.485183
    21     1      0.906258      0.542716      0.652286
    22     1      0.142734      0.795139      0.652190
    23     1      0.375911      0.877452      0.804870
    24     1      0.075633      0.649391      0.821886
    25     1      0.545886      0.987147      0.984563
    26     1      0.791834      0.238575      0.985397
    27     1      0.773061      0.410415      0.152886
    28     1      0.524883      0.159920      0.151661
    29     1      0.469499      0.015440      0.319702
    30     1      0.720011      0.264139      0.320094
    31     1      0.707693      0.445493      0.484933
    32     1      0.459198      0.194237      0.483758
    33     1      0.408822      0.043887      0.649455
    34     1      0.653270      0.294793      0.651769
    35     1      0.825198      0.398106      0.820901
    36     1      0.572701      0.149547      0.820148
    37     1      0.540906      0.487534      0.988544
    38     1      0.794983      0.738132      0.988207
    39     1      0.777614      0.909200      0.152134
    40     1      0.526113      0.660190      0.152691
    41     1      0.469960      0.515454      0.320396
    42     1      0.717911      0.763921      0.321371
    43     1      0.711001      0.943816      0.484022
    44     1      0.421049      0.716128      0.502132
    45     1      0.404533      0.543458      0.654295
    46     1      0.666116      0.793375      0.654949
    47     1      0.845322      0.898481      0.822627
    48     1      0.585412      0.638949      0.823214
ITEM: TIMESTEP
64100
ITEM: NUMBER OF ATOMS
48
ITEM: BOX BOUNDS xy xz yz  pp  pp  pp
     -0.003081      2.203080      0.000000
     -0.005336      3.815850      0.000000
     -0.007546      5.396420      0.000000
ITEM: ATOMS id type xs ys zs
     1     1      0.052039      0.991267      0.987485
     2     1      0.294349      0.238496      0.986463
     3     1      0.274784      0.410241      0.151643
     4     1      0.024600      0.160296      0.150613
     5     1      0.969064      0.015482      0.318547
     6     1      0.218312      0.264234      0.318919
     7     1      0.209889      0.443906      0.484908
     8     1      0.956691      0.195952      0.485375
     9     1      0.906948      0.044145      0.652311
    10     1      0.155347      0.293338      0.652742
    11     1      0.321381      0.396471      0.822978
    12     1      0.076398      0.148218      0.821710
    13     1      0.043065      0.486210      0.987295
    14     1      0.307095      0.738966      0.985910
    15     1      0.277337      0.908614      0.151444
    16     1      0.028500      0.658507      0.154665
    17     1      0.971290      0.514617      0.320273
    18     1      0.219185      0.764804      0.321701
    19     1      0.199493      0.950855      0.484735
    20     1      0.945617      0.693298      0.485591
    21     1      0.905560      0.542545      0.652553
    22     1      0.146853      0.795638      0.651956
    23     1      0.363996      0.888635      0.810755
    24     1      0.067231      0.648344      0.821320
    25     1      0.546922      0.987072      0.984149
    26     1      0.793764      0.238912      0.985681
    27     1      0.772328      0.411249      0.152615
    28     1      0.523253      0.160181      0.151256
    29     1      0.470089      0.015409      0.319888
    30     1      0.719635      0.263935      0.320000
    31     1      0.707256      0.445780      0.484995
    32     1      0.460307      0.195335      0.483252
    33     1      0.408462      0.043834      0.648706
    34     1      0.653897      0.293589      0.651805
    35     1      0.824438      0.397483      0.820581
    36     1      0.573771      0.147731      0.819968
    37     1      0.543026      0.487427      0.988107
    38     1      0.836547      0.739389      0.986708
    39     1      0.776754      0.909829      0.151267
    40     1      0.527623      0.661036      0.152079
    41     1      0.469360      0.515040      0.320190
    42     1      0.716151      0.764490      0.321034
    43     1      0.707564      0.944698      0.485361
    44     1      0.431425      0.707864      0.495565
    45     1      0.402428      0.542566      0.653464
    46     1      0.662249      0.792393      0.655858
    47     1      0.847348      0.898600      0.822314
    48     1      0.543882      0.640162      0.824798
ITEM: TIMESTEP
64150
ITEM: NUMBER OF ATOMS
48
ITEM: BOX BOUNDS xy xz yz  pp  pp  pp
     -0.003081      2.203080      0.000000
     -0.005336      3.815850      0.000000
     -0.007546      5.396420      0.000000
ITEM: ATOMS id type xs ys zs
     1     1      0.056213      0.990857      0.965983
     2     1      0.296356      0.238857      0.986300
     3     1      0.276066      0.410509      0.152211
     4     1      0.025029      0.160249      0.150443
     5     1      0.968918      0.015791      0.319053
     6     1      0.218732      0.264561      0.319562
     7     1      0.207419      0.444423      0.485318
     8     1      0.955717      0.196148      0.485104
     9     1      0.904835      0.043659      0.652034
    10     1      0.155887      0.293078      0.652603
    11     1      0.320404      0.397047      0.822290
    12     1      0.078665      0.150501      0.818723
    13     1      0.045047      0.487720      0.987459
    14     1      0.309320      0.739303      0.986172
    15     1      0.276534      0.909644      0.151358
    16     1      0.028433      0.659990      0.154174
    17     1      0.969769      0.514564      0.320209
    18     1      0.218139      0.765726      0.321896
    19     1      0.200231      0.949671      0.485401
    20     1      0.945506      0.693778      0.485892
    21     1      0.905318      0.541919      0.651784
    22     1      0.149033      0.794471      0.651943
    23     1      0.352441      0.889361      0.816578
    24     1      0.065608      0.648532      0.821289
    25     1      0.548063      0.987693      0.984603
    26     1      0.793981      0.239565      0.985598
    27     1      0.774538      0.411245      0.152291
    28     1      0.524818      0.159790      0.150897
    29     1      0.469779      0.015487      0.319812
    30     1      0.719094      0.264835      0.319244
    31     1      0.705855      0.445386      0.485009
    32     1      0.458752      0.194190      0.484212
    33     1      0.406585      0.044058      0.670602
    34     1      0.656242      0.293515      0.651296
    35     1      0.823789      0.397723      0.820243
    36     1      0.577608      0.150198      0.822946
    37     1      0.543964      0.487377      0.988205
    38     1      0.818758      0.739052      0.986143
    39     1      0.777753      0.910035      0.151001
    40     1      0.528970      0.660430      0.152557
    41     1      0.467954      0.515756      0.320053
    42     1      0.715241      0.764635      0.320576
    43     1      0.706366      0.945156      0.485332
    44     1      0.437952      0.702978      0.492038
    45     1      0.403542      0.542479      0.653247
    46     1      0.657157      0.792361      0.656109
    47     1      0.841539      0.897207      0.818643
    48     1      0.560210      0.642348      0.824952
ITEM: TIMESTEP
64200
ITEM: NUMBER OF ATOMS
48
ITEM: BOX BOUNDS xy xz yz  pp  pp  pp
     -0.003081      2.203080      0.000000
     -0.005336      3.815850      0.000000
     -0.007546      5.396420      0.000000
ITEM: ATOMS id type xs ys zs
     1     1      0.057553      0.989151      0.976664
     2     1      0.295734      0.238795      0.986405
     3     1      0.276352      0.409906      0.152239
     4     1      0.026702      0.160460      0.150265
     5     1      0.968845      0.015411      0.319437
     6     1      0.219842      0.264742      0.320389
     7     1      0.205488      0.443305      0.485507
     8     1      0.954896      0.196357      0.484614
     9     1      0.903592      0.043322      0.650809
    10     1      0.154834      0.292652      0.651912
    11     1      0.320741      0.397844      0.822363
    12     1      0.079926      0.150375      0.818185
    13     1      0.045283      0.488091      0.987327
    14     1      0.307282      0.738901      0.986772
    15     1      0.275160      0.910692      0.150883
    16     1      0.029244      0.659874      0.152962
    17     1      0.969710      0.514378      0.320302
    18     1      0.216721      0.766617      0.322051
    19     1      0.202204      0.948905      0.487046
    20     1      0.945442      0.693847      0.486118
    21     1      0.904415      0.540464      0.651576
    22     1      0.151702      0.793942      0.652065
    23     1      0.343911      0.890492      0.819589
    24     1      0.069224      0.647695      0.821688
    25     1      0.552254      0.987830      0.985581
    26     1      0.796711      0.239263      0.986683
    27     1      0.775792      0.411058      0.152379
    28     1      0.526578      0.160057      0.150678
    29     1      0.467882      0.015895      0.319779
    30     1      0.717723      0.265700      0.319475
    31     1      0.703499      0.445293      0.484987
    32     1      0.457088      0.192889      0.486297
    33     1      0.402928      0.045009      0.659966
    34     1      0.655273      0.292472      0.651807
    35     1      0.823294      0.398582      0.821569
    36     1      0.579653      0.150414      0.824093
    37     1      0.545837      0.487116      0.988148
    38     1      0.810966      0.739360      0.985874
    39     1      0.780906      0.910971      0.150760
    40     1      0.529597      0.660944      0.152524
    41     1      0.467163      0.516329      0.320446
    42     1      0.715134      0.766136      0.320621
    43     1      0.703866      0.943857      0.485478
    44     1      0.441420      0.699075      0.490342
    45     1      0.403014      0.541562      0.653960
    46     1      0.654376      0.791199      0.655021
    47     1      0.836183      0.897220      0.817649
    48     1      0.568600      0.643646      0.823608
ITEM: TIMESTEP
64250
ITEM: NUMBER OF ATOMS
48
ITEM: BOX BOUNDS xy xz yz  pp  pp  pp
     -0.003081      2.203080      0.000000
     -0.005336      3.815850      0.000000
     -0.007546      5.396420      0.000000
ITEM: ATOMS id type xs ys zs
     1     1      0.056823      0.989157      0.980847
     2     1      0.296938      0.238144      0.986299
     3     1      0.277628      0.410364      0.152387
     4     1      0.027284      0.160829      0.150181
     5     1      0.968666      0.016193      0.319363
     6     1      0.220107      0.265671      0.320717
     7     1      0.198319      0.465487      0.498570
     8     1      0.955951      0.196945      0.484244
     9     1      0.904498      0.042842      0.650286
    10     1      0.156179      0.292380      0.651813
    11     1      0.327030      0.394018      0.822532
    12     1      0.078775      0.148650      0.818958
    13     1      0.047042      0.488090      0.985998
    14     1      0.304244      0.736714      0.985889
    15     1      0.277109      0.910628      0.150618
    16     1      0.030347      0.659631      0.152888
    17     1      0.970742      0.514546      0.321764
    18     1      0.214963      0.767068      0.322473
    19     1      0.202871      0.947831      0.486968
    20     1      0.943073      0.698615      0.485616
    21     1      0.893673      0.537686      0.646522
    22     1      0.152409      0.793131      0.652171
    23     1      0.339537      0.892417      0.820556
    24     1      0.079668      0.628949      0.808213
    25     1      0.554943      0.987749      0.986511
    26     1      0.797453      0.239216      0.986866
    27     1      0.777962      0.411012      0.152367
    28     1      0.527544      0.160271      0.150958
    29     1      0.467721      0.015512      0.319638
    30     1      0.717076      0.265446      0.319711
    31     1      0.699315      0.443169      0.483430
    32     1      0.454416      0.193785      0.486657
    33     1      0.402975      0.043798      0.656798
    34     1      0.654427      0.291437      0.652347
    35     1      0.820221      0.395349      0.821078
    36     1      0.579246      0.147660      0.823180
    37     1      0.545990      0.486814      0.988237
    38     1      0.809465      0.738776      0.985342
    39     1      0.779623      0.911146      0.150664
    40     1      0.530375      0.661703      0.152108
    41     1      0.466276      0.516990      0.321399
    42     1      0.714917      0.766298      0.320002
    43     1      0.703109      0.944425      0.485650
    44     1      0.448847      0.701002      0.488810
    45     1      0.409839      0.543217      0.659418
    46     1      0.653684      0.791180      0.654396
    47     1      0.837698      0.896499      0.818333
    48     1      0.574244      0.644624      0.824590
ITEM: TIMESTEP
64300
ITEM: NUMBER OF ATOMS
48
ITEM: BOX BOUNDS xy xz yz  pp  pp  pp
     -0.003081      2.203080      0.000000
     -0.005336      3.815850      0.000000
     -0.007546      5.396420      0.000000
ITEM: ATOMS id type xs ys zs
     1     1      0.056433      0.988517      0.983063
     2     1      0.297593      0.238151      0.986783
     3     1      0.279746      0.411441      0.151982
     4     1      0.028556      0.159985      0.150705
     5     1      0.967049      0.016731      0.319392
     6     1      0.219092      0.266183      0.320201
     7     1      0.198574      0.456440      0.492643
     8     1      0.955129      0.196923      0.483939
     9     1      0.905466      0.042914      0.650758
    10     1      0.155359      0.292692      0.652229
    11     1      0.328605      0.393574      0.822889
    12     1      0.078005      0.147947      0.819528
    13     1      0.047685      0.488387      0.985507
    14     1      0.301962      0.736261      0.985934
    15     1      0.278001      0.909784      0.151237
    16     1      0.031881      0.659936      0.152466
    17     1      0.968677      0.515128      0.321745
    18     1      0.214309      0.767208      0.321927
    19     1      0.200527      0.947153      0.487173
    20     1      0.944612      0.699252      0.485193
    21     1      0.896050      0.538433      0.647697
    22     1      0.153124      0.792356      0.652140
    23     1      0.336208      0.894141      0.821232
    24     1      0.080640      0.636462      0.813044
    25     1      0.555207      0.987501      0.986487
    26     1      0.799014      0.238533      0.986686
    27     1      0.780247      0.410513      0.152466
    28     1      0.528478      0.160056      0.150831
    29     1      0.467616      0.016259      0.319795
    30     1      0.716212      0.265473      0.319031
    31     1      0.698146      0.442596      0.482948
    32     1      0.452720      0.194707      0.486205
    33     1      0.402914      0.043774      0.654681
    34     1      0.655308      0.290577      0.652709
    35     1      0.821995      0.395580      0.821422
    36     1      0.578142      0.146038      0.822967
    37     1      0.548011      0.487428      0.988601
    38     1      0.806409      0.738873      0.985757
    39     1      0.780414      0.911040      0.150671
    40     1      0.532860      0.661308      0.151773
    41     1      0.465506      0.518135      0.320908
    42     1      0.714351      0.766700      0.319949
    43     1      0.701364      0.945244      0.485848
    44     1      0.450088      0.698898      0.487840
    45     1      0.406330      0.542699      0.657942
    46     1      0.652929      0.791800      0.654049
    47     1      0.838546      0.895675      0.819245
    48     1      0.578301      0.646996      0.824870
ITEM: TIMESTEP
64350
ITEM: NUMBER OF ATOMS
48
ITEM: BOX BOUNDS xy xz yz  pp  pp  pp
     -0.003081      2.203080      0.000000
     -0.005336      3.815850      0.000000
     -0.007546      5.396420      0.000000
ITEM: ATOMS id type xs ys zs
     1     1      0.056194      0.989180      0.984903
     2     1      0.297122      0.238199      0.986950
     3     1      0.280169      0.411351      0.151467
     4     1      0.028917      0.160844      0.151627
     5     1      0.967652      0.017035      0.319800
     6     1      0.219407      0.267238      0.319881
     7     1      0.200174      0.452468      0.489832
     8     1      0.955238      0.197130      0.484061
     9     1      0.903512      0.042973      0.650838
    10     1      0.154890      0.292654      0.652065
    11     1      0.329542      0.394090      0.822112
    12     1      0.079535      0.146959      0.819165
    13     1      0.048826      0.488766      0.985483
    14     1      0.302139      0.737381      0.985307
    15     1      0.278742      0.909870      0.151576
    16     1      0.031930      0.660505      0.152232
    17     1      0.967512      0.515470      0.321854
    18     1      0.212713      0.766941      0.321593
    19     1      0.200549      0.947347      0.485544
    20     1      0.877603      0.697912      0.513407
    21     1      0.898415      0.539064      0.649231
    22     1      0.221349      0.792319      0.624761
    23     1      0.333878      0.894856      0.820789
    24     1      0.082843      0.640206      0.815595
    25     1      0.554323      0.986940      0.986059
    26     1      0.799335      0.238552      0.986212
    27     1      0.780751      0.410499      0.152174
    28     1      0.528684      0.159811      0.151010
    29     1      0.468184      0.016191      0.319700
    30     1      0.715997      0.265796      0.319820
    31     1      0.697028      0.442855      0.483865
    32     1      0.452525      0.194696      0.485892
    33     1      0.403500      0.042889      0.653919
    34     1      0.654986      0.290462      0.652563
    35     1      0.824076      0.395451      0.820757
    36     1      0.578397      0.146094      0.822453
    37     1      0.549288      0.487419      0.987412
    38     1      0.806054      0.738667      0.986616
    39     1      0.779998      0.911363      0.150762
    40     1      0.532246      0.660937      0.151119
    41     1      0.464514      0.518701      0.320206
    42     1      0.713811      0.766621      0.319552
    43     1      0.700852      0.945212      0.485838
    44     1      0.448288      0.697317      0.486971
    45     1      0.404318      0.542912      0.657543
    46     1      0.654501      0.791390      0.654394
    47     1      0.837742      0.895653      0.819797
    48     1      0.581484      0.646928      0.824358
ITEM: TIMESTEP
64400
ITEM: NUMBER OF ATOMS
48
ITEM: BOX BOUNDS xy xz yz  pp  pp  pp
     -0.003081      2.203080      0.000000
     -0.005336      3.815850      0.000000
     -0.007546      5.396420      0.000000
ITEM: ATOMS id type xs ys zs
     1     1      0.056367      0.988510      0.984833
     2     1      0.296846      0.238123      0.986630
     3     1      0.280279      0.411215      0.151286
     4     1      0.031108      0.160572      0.151750
     5     1      0.964546      0.018061      0.319477
     6     1      0.218034      0.267264      0.320078
     7     1      0.196280      0.450323      0.488904
     8     1      0.953464      0.197340      0.484798
     9     1      0.905712      0.041784      0.651053
    10     1      0.156411      0.292135      0.652208
    11     1      0.329734      0.394381      0.822804
    12     1      0.080335      0.147422      0.819724
    13     1      0.049797      0.489097      0.985440
    14     1      0.300199      0.737396      0.985637
    15     1      0.280911      0.910339      0.151361
    16     1      0.031273      0.660060      0.151622
    17     1      0.966437      0.516931      0.322038
    18     1      0.210209      0.767868      0.321681
    19     1      0.199342      0.950567      0.481780
    20     1      0.909179      0.697739      0.498333
    21     1      0.901366      0.535600      0.653680
    22     1      0.191900      0.790745      0.639523
    23     1      0.332354      0.894984      0.819239
    24     1      0.085009      0.645136      0.816245
    25     1      0.555108      0.987192      0.985922
    26     1      0.800035      0.238681      0.986575
    27     1      0.781203      0.410172      0.152022
    28     1      0.529638      0.160611      0.150606
    29     1      0.467988      0.016324      0.318603
    30     1      0.714990      0.266973      0.319300
    31     1      0.697281      0.441786      0.485002
    32     1      0.452039      0.195558      0.485625
    33     1      0.403381      0.043984      0.652955
    34     1      0.654973      0.290352      0.652175
    35     1      0.826996      0.395813      0.821688
    36     1      0.578027      0.145880      0.821889
    37     1      0.550155      0.487959      0.987830
    38     1      0.804236      0.738370      0.986515
    39     1      0.781608      0.910760      0.151481
    40     1      0.530993      0.661468      0.151417
    41     1      0.463254      0.518058      0.320296
    42     1      0.714959      0.766883      0.321040
    43     1      0.696710      0.947128      0.485123
    44     1      0.438210      0.693255      0.484411
    45     1      0.406084      0.540693      0.656139
    46     1      0.665230      0.792470      0.656957
    47     1      0.838297      0.896395      0.821055
    48     1      0.581539      0.646873      0.823391
ITEM: TIMESTEP
64450
ITEM: NUMBER OF ATOMS
48
ITEM: BOX BOUNDS xy xz yz  pp  pp  pp
     -0.003081      2.203080      0.000000
     -0.005336      3.815850      0.000000
     -0.007546      5.396420      0.000000
ITEM: ATOMS id type xs ys zs
     1     1      0.054942      0.988428      0.985809
     2     1      0.297113      0.238082      0.986539
     3     1      0.281305      0.410804      0.151773
     4     1      0.031318      0.160358      0.151251
     5     1      0.963032      0.017858      0.319793
     6     1      0.215320      0.267183      0.319701
     7     1      0.195300      0.448319      0.488028
     8     1      0.950542      0.196298      0.485047
     9     1      0.907182      0.040537      0.651354
    10     1      0.157838      0.291824      0.652300
    11     1      0.329186      0.395476      0.823026
    12     1      0.078953      0.146894      0.819721
    13     1      0.049419      0.488653      0.985554
    14     1      0.300643      0.737569      0.985675
    15     1      0.281357      0.910333      0.151674
    16     1      0.031991      0.659901      0.151862
    17     1      0.965908      0.517843      0.321624
    18     1      0.208720      0.768416      0.321722
    19     1      0.198939      0.949419      0.482757
    20     1      0.922657      0.696127      0.492066
    21     1      0.903232      0.538024      0.653095
    22     1      0.178982      0.790848      0.644236
    23     1      0.333600      0.895893      0.819240
    24     1      0.086775      0.645613      0.816984
    25     1      0.553448      0.987407      0.985843
    26     1      0.798707      0.238203      0.986065
    27     1      0.783479      0.410797      0.152206
    28     1      0.531092      0.160838      0.150420
    29     1      0.467075      0.016095      0.318822
    30     1      0.714822      0.267842      0.319377
    31     1      0.695296      0.442514      0.485124
    32     1      0.450863      0.196341      0.485161
    33     1      0.405973      0.043301      0.652450
    34     1      0.655588      0.289807      0.652255
    35     1      0.828370      0.396251      0.821119
    36     1      0.580014      0.146270      0.821749
    37     1      0.550138      0.488202      0.987386
    38     1      0.803014      0.738866      0.986603
    39     1      0.782565      0.911176      0.151151
    40     1      0.532652      0.661631      0.151394
    41     1      0.464728      0.518332      0.320375
    42     1      0.714444      0.765953      0.320879
    43     1      0.695361      0.947607      0.485602
    44     1      0.438468      0.694415      0.485451
    45     1      0.407629      0.540522      0.655124
    46     1      0.666171      0.791336      0.654761
    47     1      0.836384      0.897183      0.821217
    48     1      0.583280      0.646419      0.823112
ITEM: TIMESTEP
64500
ITEM: NUMBER OF ATOMS
48
ITEM: BOX BOUNDS xy xz yz  pp  pp  pp
     -0.003081      2.203080      0.000000
     -0.005336      3.815850      0.000000
     -0.007546      5.396420      0.000000
ITEM: ATOMS id type xs ys zs
     1     1      0.053941      0.989207      0.986046
     2     1      0.299042      0.238482      0.986468
     3     1      0.281367      0.410364      0.151678
     4     1      0.030015      0.160458      0.151071
     5     1      0.962287      0.019599      0.320097
     6     1      0.214912      0.267200      0.320050
     7     1      0.191148      0.444598      0.482851
     8     1      0.911465      0.218315      0.501406
     9     1      0.909288      0.038362      0.651951
    10     1      0.164512      0.289278      0.655076
    11     1      0.329757      0.396472      0.822100
    12     1      0.078221      0.147323      0.820540
    13     1      0.050894      0.489453      0.985367
    14     1      0.300837      0.738525      0.985128
    15     1      0.281044      0.909465      0.151163
    16     1      0.033368      0.660071      0.152056
    17     1      0.961988      0.518195      0.321200