ITEM: TIMESTEP
64001
ITEM: NUMBER OF ATOMS
48
ITEM: BOX BOUNDS xy xz yz  pp  pp  pp
     -0.003081      2.203080      0.000000
     -0.005336      3.815850      0.000000
     -0.007546      5.396420      0.000000
ITEM: ATOMS id type xs ys zs
     1     1      0.048675      0.988114      0.987012
     2     1      0.292936      0.237195      0.986148
     3     1      0.272138      0.408739      0.151577
     4     1      0.022128      0.159143      0.150463
     5     1      0.967117      0.015669      0.319049
     6     1      0.220284      0.262898      0.318766
     7     1      0.212230      0.443003      0.485061
     8     1      0.958975      0.195951      0.485302
     9     1      0.907967      0.044672      0.651775
    10     1      0.153878      0.294659      0.653502
    11     1      0.323002      0.400743      0.822706
    12     1      0.073599      0.149389      0.821732
    13     1      0.038690      0.487348      0.987071
    14     1      0.292541      0.735953      0.986883
    15     1      0.277861      0.908666      0.151315
    16     1      0.025971      0.657969      0.152882
    17     1      0.972011      0.513423      0.320638
    18     1      0.219137      0.764604      0.319849
    19     1      0.209101      0.944014      0.484323
    20     1      0.963949      0.692884      0.485756
    21     1      0.904781      0.544228      0.652485
    22     1      0.157701      0.794856      0.653333
    23     1      0.329020      0.899367      0.821770
    24     1      0.073620      0.649169      0.821773
    25     1      0.548865      0.987152      0.986238
    26     1      0.791475      0.238025      0.985490
    27     1      0.772842      0.409921      0.153185
    28     1      0.523832      0.159669      0.151521
    29     1      0.467892      0.016079      0.319781
    30     1      0.720615      0.265087      0.320248
    31     1      0.710043      0.444813      0.484558
    32     1      0.459131      0.193463      0.484231
    33     1      0.409340      0.042676      0.650887
    34     1      0.651711      0.294666      0.651339
    35     1      0.823763      0.399354      0.820509
    36     1      0.572500      0.150222      0.820190
    37     1      0.541938      0.488390      0.988127
    38     1      0.794180      0.737932      0.988927
    39     1      0.776766      0.909004      0.152391
    40     1      0.525721      0.659853      0.152937
    41     1      0.469731      0.513443      0.319590
    42     1      0.720737      0.764253      0.320582
    43     1      0.712233      0.943311      0.483949
    44     1      0.462073      0.694454      0.485145
    45     1      0.404291      0.544551      0.653298
    46     1      0.658534      0.793714      0.653186
    47     1      0.828772      0.898839      0.822472
    48     1      0.575674      0.649190      0.822886
ITEM: TIMESTEP
64050
ITEM: NUMBER OF ATOMS
48
ITEM: BOX BOUNDS xy xz yz  pp  pp  pp
     -0.003081      2.203080      0.000000
     -0.005336      3.815850      0.000000
     -0.007546      5.396420      0.000000
ITEM: ATOMS id type xs ys zs
     1     1      0.049524      0.987373      0.986532
     2     1      0.293488      0.238338      0.986350
     3     1      0.273193      0.409450      0.151955
     4     1      0.023978      0.159540      0.151094
     5     1      0.969298      0.014708      0.319173
     6     1      0.219727      0.263567      0.318868
     7     1      0.212027      0.443922      0.485368
     8     1      0.958594      0.195139      0.485399
     9     1      0.906976      0.043935      0.651959
    10     1      0.154575      0.294280      0.653907
    11     1      0.323707      0.400515      0.822995
    12     1      0.072523      0.150076      0.821717
    13     1      0.041206      0.488129      0.986762
    14     1      0.293798      0.737591      0.986953
    15     1      0.279189      0.909601      0.152080
    16     1      0.027163      0.659083      0.152149
    17     1      0.971575      0.514139      0.320237
    18     1      0.219404      0.764143      0.320100
    19     1      0.208861      0.943330      0.484156
    20     1      0.961643      0.692806      0.485615
    21     1      0.904494      0.543581      0.652370
    22     1      0.158335      0.794083      0.653093
    23     1      0.328081      0.899573      0.821492
    24     1      0.072615      0.649360      0.822434
    25     1      0.548535      0.987760      0.986841
    26     1      0.791984      0.238488      0.985760
    27     1      0.775198      0.409876      0.152237
    28     1      0.525490      0.160622      0.151544
    29     1      0.468985      0.014834      0.319614
    30     1      0.721577      0.265115      0.320029
    31     1      0.708929      0.444938      0.484227
    32     1      0.459300      0.193103      0.484257
    33     1      0.408383      0.042913      0.650984
    34     1      0.652911      0.293783      0.651264
    35     1      0.823414      0.399846      0.820869
    36     1      0.572581      0.150768      0.820880
    37     1      0.542136      0.488932      0.987965
    38     1      0.794321      0.738512      0.988523
    39     1      0.777691      0.909213      0.152018
    40     1      0.526439      0.659960      0.152244
    41     1      0.469118      0.513755      0.319301
    42     1      0.721024      0.764108      0.320465
    43     1      0.711099      0.943041      0.484200
    44     1      0.460121      0.694028      0.485053
    45     1      0.404511      0.544441      0.653400
    46     1      0.658401      0.793996      0.653275
    47     1      0.827747      0.899073      0.822325
    48     1      0.574955      0.649040      0.822634
ITEM: TIMESTEP
64100
ITEM: NUMBER OF ATOMS
48
ITEM: BOX BOUNDS xy xz yz  pp  pp  pp
     -0.003081      2.203080      0.000000
     -0.005336      3.815850      0.000000
     -0.007546      5.396420      0.000000
ITEM: ATOMS id type xs ys zs
     1     1      0.047006      0.988303      0.986799
     2     1      0.294327      0.238333      0.987061
     3     1      0.274943      0.409448      0.151856
     4     1      0.024782      0.159164      0.151320
     5     1      0.971427      0.015147      0.319716
     6     1      0.219943      0.263687      0.319139
     7     1      0.211100      0.442904      0.485029
     8     1      0.958481      0.194458      0.485962
     9     1      0.908169      0.042781      0.652025
    10     1      0.154865      0.293900      0.653157
    11     1      0.323519      0.400299      0.822809
    12     1      0.071716      0.149065      0.821602
    13     1      0.042236      0.487941      0.987452
    14     1      0.294676      0.738601      0.986931
    15     1      0.279565      0.910711      0.151643
    16     1      0.026874      0.659822      0.152376
    17     1      0.970644      0.513595      0.319698
    18     1      0.219655      0.764670      0.320458
    19     1      0.209617      0.942473      0.484447
    20     1      0.961707      0.691896      0.485004
    21     1      0.905140      0.544116      0.652549
    22     1      0.157444      0.794088      0.652771
    23     1      0.328527      0.900488      0.821981
    24     1      0.073772      0.649622      0.821763
    25     1      0.548222      0.988712      0.986606
    26     1      0.793556      0.239285      0.985765
    27     1      0.775645      0.410585      0.152789
    28     1      0.526723      0.160128      0.152031
    29     1      0.470058      0.013851      0.320013
    30     1      0.721583      0.264287      0.319574
    31     1      0.709670      0.444477      0.484593
    32     1      0.458599      0.192456      0.483937
    33     1      0.408174      0.041900      0.651124
    34     1      0.654364      0.293536      0.651261
    35     1      0.823427      0.399910      0.821227
    36     1      0.571467      0.150455      0.821144
    37     1      0.542087      0.488890      0.987405
    38     1      0.795821      0.738221      0.987638
    39     1      0.778039      0.909987      0.152323
    40     1      0.527399      0.660489      0.152477
    41     1      0.468511      0.514850      0.319137
    42     1      0.720490      0.764646      0.320105
    43     1      0.709692      0.942801      0.485247
    44     1      0.460351      0.692512      0.485112
    45     1      0.404877      0.543396      0.653077
    46     1      0.657243      0.793607      0.653018
    47     1      0.826157      0.899426      0.821930
    48     1      0.574243      0.649374      0.822334
ITEM: TIMESTEP
64150
ITEM: NUMBER OF ATOMS
48
ITEM: BOX BOUNDS xy xz yz  pp  pp  pp
     -0.003081      2.203080      0.000000
     -0.005336      3.815850      0.000000
     -0.007546      5.396420      0.000000
ITEM: ATOMS id type xs ys zs
     1     1      0.048010      0.988843      0.986766
     2     1      0.295648      0.239081      0.986817
     3     1      0.275804      0.410182      0.152078
     4     1      0.025969      0.159869      0.151155
     5     1      0.969797      0.014995      0.319545
     6     1      0.220147      0.264414      0.319553
     7     1      0.210669      0.442635      0.485106
     8     1      0.958480      0.192965      0.485303
     9     1      0.907518      0.042205      0.652071
    10     1      0.154666      0.293165      0.652700
    11     1      0.323372      0.399933      0.822272
    12     1      0.072270      0.150123      0.821453
    13     1      0.043918      0.488732      0.986962
    14     1      0.295398      0.739243      0.986925
    15     1      0.279362      0.911149      0.151824
    16     1      0.026341      0.660343      0.151922
    17     1      0.970956      0.513123      0.319585
    18     1      0.222189      0.764300      0.320529
    19     1      0.209196      0.941319      0.484158
    20     1      0.960910      0.691985      0.484627
    21     1      0.905323      0.543626      0.653000
    22     1      0.158212      0.793617      0.652833
    23     1      0.328016      0.901055      0.821798
    24     1      0.072985      0.649981      0.821567
    25     1      0.547896      0.989354      0.987387
    26     1      0.793870      0.239391      0.985874
    27     1      0.775604      0.410224      0.152079
    28     1      0.527598      0.160679      0.152265
    29     1      0.470368      0.014005      0.319677
    30     1      0.720577      0.265144      0.319935
    31     1      0.709132      0.443602      0.484042
    32     1      0.458527      0.193436      0.483985
    33     1      0.406361      0.042588      0.651241
    34     1      0.654854      0.292780      0.651358
    35     1      0.823756      0.399966      0.820941
    36     1      0.571522      0.150494      0.820808
    37     1      0.543732      0.489656      0.987485
    38     1      0.795002      0.738244      0.987412
    39     1      0.778510      0.910121      0.151852
    40     1      0.525831      0.661257      0.151524
    41     1      0.470657      0.514601      0.319137
    42     1      0.721186      0.764479      0.320289
    43     1      0.709465      0.942732      0.485214
    44     1      0.460005      0.691893      0.485378
    45     1      0.404827      0.543882      0.652746
    46     1      0.656648      0.792852      0.653179
    47     1      0.826797      0.898934      0.822466
    48     1      0.573072      0.649776      0.821920
ITEM: TIMESTEP
64200
ITEM: NUMBER OF ATOMS
48
ITEM: BOX BOUNDS xy xz yz  pp  pp  pp
     -0.003081      2.203080      0.000000
     -0.005336      3.815850      0.000000
     -0.007546      5.396420      0.000000
ITEM: ATOMS id type xs ys zs
     1     1      0.046775      0.989135      0.986937
     2     1      0.294703      0.239520      0.986650
     3     1      0.275539      0.410734      0.151842
     4     1      0.025786      0.160607      0.151144
     5     1      0.971002      0.014345      0.319399
     6     1      0.219020      0.264073      0.319623
     7     1      0.210527      0.442002      0.485038
     8     1      0.959172      0.192420      0.485282
     9     1      0.907770      0.042080      0.652455
    10     1      0.155264      0.292974      0.652520
    11     1      0.322159      0.401172      0.821799
    12     1      0.072240      0.149903      0.821557
    13     1      0.044880      0.489281      0.987006
    14     1      0.294448      0.739345      0.986821
    15     1      0.277867      0.911024      0.152253
    16     1      0.027421      0.661324      0.152072
    17     1      0.971010      0.514237      0.319576
    18     1      0.221851      0.764151      0.320239
    19     1      0.208837      0.941358      0.484620
    20     1      0.959298      0.691855      0.485568
    21     1      0.905217      0.543093      0.652735
    22     1      0.157489      0.792894      0.653323
    23     1      0.324902      0.900165      0.821480
    24     1      0.073262      0.650062      0.822553
    25     1      0.547404      0.989924      0.986806
    26     1      0.794634      0.239430      0.985803
    27     1      0.775927      0.410812      0.152102
    28     1      0.527442      0.161171      0.152009
    29     1      0.471165      0.013879      0.319962
    30     1      0.719758      0.264673      0.320017
    31     1      0.711118      0.443116      0.484778
    32     1      0.457307      0.192344      0.484199
    33     1      0.406787      0.042322      0.651212
    34     1      0.654723      0.292766      0.651740
    35     1      0.822806      0.400567      0.820478
    36     1      0.570884      0.150488      0.820825
    37     1      0.543941      0.489577      0.986906
    38     1      0.794338      0.739174      0.987263
    39     1      0.779464      0.910179      0.151908
    40     1      0.526768      0.661230      0.151490
    41     1      0.470497      0.514310      0.319531
    42     1      0.720436      0.764069      0.319280
    43     1      0.708022      0.942870      0.485488
    44     1      0.460743      0.691964      0.485507
    45     1      0.404841      0.543052      0.653264
    46     1      0.657612      0.792203      0.652672
    47     1      0.825309      0.899973      0.822543
    48     1      0.572295      0.650470      0.822169
ITEM: TIMESTEP
64250
ITEM: NUMBER OF ATOMS
48
ITEM: BOX BOUNDS xy xz yz  pp  pp  pp
     -0.003081      2.203080      0.000000
     -0.005336      3.815850      0.000000
     -0.007546      5.396420      0.000000
ITEM: ATOMS id type xs ys zs
     1     1      0.047316      0.989616      0.986938
     2     1      0.295175      0.239801      0.987089
     3     1      0.277063      0.411005      0.151595
     4     1      0.026925      0.160567      0.151437
     5     1      0.971257      0.014912      0.319772
     6     1      0.218836      0.264628      0.319064
     7     1      0.208962      0.442343      0.484638
     8     1      0.958262      0.191724      0.484579
     9     1      0.906541      0.041835      0.652921
    10     1      0.155975      0.291732      0.652352
    11     1      0.321982      0.400804      0.822032
    12     1      0.069897      0.150452      0.821879
    13     1      0.045580      0.489525      0.987238
    14     1      0.294810      0.739473      0.986713
    15     1      0.278621      0.911032      0.151787
    16     1      0.027271      0.661501      0.151371
    17     1      0.969888      0.514871      0.319453
    18     1      0.220863      0.765218      0.319579
    19     1      0.208970      0.940173      0.484603
    20     1      0.959267      0.691656      0.485720
    21     1      0.906893      0.542727      0.653250
    22     1      0.156402      0.792232      0.653334
    23     1      0.324970      0.900446      0.821633
    24     1      0.072789      0.650177      0.822158
    25     1      0.547527      0.990496      0.987010
    26     1      0.794534      0.239170      0.985758
    27     1      0.777192      0.410550      0.152320
    28     1      0.527660      0.160986      0.152127
    29     1      0.471011      0.014273      0.320060
    30     1      0.718837      0.265086      0.320884
    31     1      0.710267      0.442126      0.484867
    32     1      0.456962      0.192200      0.484345
    33     1      0.407465      0.042064      0.651668
    34     1      0.655837      0.291890      0.651551
    35     1      0.822020      0.400366      0.820680
    36     1      0.571170      0.151014      0.821033
    37     1      0.545774      0.489846      0.986790
    38     1      0.795039      0.739663      0.987306
    39     1      0.778316      0.909928      0.151997
    40     1      0.527696      0.661739      0.151667
    41     1      0.470342      0.514152      0.319791
    42     1      0.722332      0.763854      0.320206
    43     1      0.708263      0.942379      0.485153
    44     1      0.459576      0.691481      0.485176
    45     1      0.405818      0.542065      0.652337
    46     1      0.658187      0.791724      0.652909
    47     1      0.824532      0.900474      0.822232
    48     1      0.572661      0.650319      0.821275
ITEM: TIMESTEP
64300
ITEM: NUMBER OF ATOMS
48
ITEM: BOX BOUNDS xy xz yz  pp  pp  pp
     -0.003081      2.203080      0.000000
     -0.005336      3.815850      0.000000
     -0.007546      5.396420      0.000000
ITEM: ATOMS id type xs ys zs
     1     1      0.048618      0.989314      0.987408
     2     1      0.295804      0.239665      0.987231
     3     1      0.277178      0.410370      0.151608
     4     1      0.027274      0.160494      0.151450
     5     1      0.970789      0.014959      0.319746
     6     1      0.220291      0.264381      0.319364
     7     1      0.208233      0.441259      0.484580
     8     1      0.958985      0.191794      0.485050
     9     1      0.907748      0.041844      0.652676
    10     1      0.156467      0.291406      0.652260
    11     1      0.321040      0.400419      0.822025
    12     1      0.070724      0.150574      0.822070
    13     1      0.045619      0.489945      0.987888
    14     1      0.296338      0.739358      0.987043
    15     1      0.279537      0.911062      0.151774
    16     1      0.029029      0.661908      0.151631
    17     1      0.971338      0.515931      0.319658
    18     1      0.221702      0.764686      0.319788
    19     1      0.208360      0.940656      0.484362
    20     1      0.959276      0.691333      0.485854
    21     1      0.907970      0.542192      0.653465
    22     1      0.158259      0.792168      0.653179
    23     1      0.324754      0.900709      0.821826
    24     1      0.073237      0.650871      0.822364
    25     1      0.548606      0.990700      0.986592
    26     1      0.795773      0.239517      0.985959
    27     1      0.777954      0.411076      0.152056
    28     1      0.526806      0.161032      0.152279
    29     1      0.471098      0.014977      0.320476
    30     1      0.719890      0.264935      0.320660
    31     1      0.710125      0.442207      0.485498
    32     1      0.457785      0.191814      0.484154
    33     1      0.408991      0.041391      0.651316
    34     1      0.654659      0.291429      0.651365
    35     1      0.821379      0.400749      0.821109
    36     1      0.570811      0.150653      0.820836
    37     1      0.546742      0.489131      0.987085
    38     1      0.796064      0.739690      0.986913
    39     1      0.778490      0.910163      0.151527
    40     1      0.526882      0.661242      0.152053
    41     1      0.470257      0.514469      0.319745
    42     1      0.721856      0.763646      0.320187
    43     1      0.707799      0.941536      0.484912
    44     1      0.457281      0.691275      0.485453
    45     1      0.405521      0.541190      0.652049
    46     1      0.658753      0.791087      0.652517
    47     1      0.823686      0.900191      0.822044
    48     1      0.572294      0.650192      0.821962
ITEM: TIMESTEP
64350
ITEM: NUMBER OF ATOMS
48
ITEM: BOX BOUNDS xy xz yz  pp  pp  pp
     -0.003081      2.203080      0.000000
     -0.005336      3.815850      0.000000
     -0.007546      5.396420      0.000000
ITEM: ATOMS id type xs ys zs
     1     1      0.047835      0.989754      0.987116
     2     1      0.296810      0.240774      0.987048
     3     1      0.277696      0.410397      0.151817
     4     1      0.025832      0.160887      0.151155
     5     1      0.970799      0.014906      0.320119
     6     1      0.219327      0.264407      0.319110
     7     1      0.207803      0.441056      0.484440
     8     1      0.959071      0.192023      0.485214
     9     1      0.908530      0.041284      0.652798
    10     1      0.155538      0.291843      0.652634
    11     1      0.320725      0.400689      0.821554
    12     1      0.070546      0.151173      0.822109
    13     1      0.046058      0.489979      0.986911
    14     1      0.296058      0.739914      0.986649
    15     1      0.278916      0.910955      0.152035
    16     1      0.028879      0.661219      0.151777
    17     1      0.970180      0.515696      0.320407
    18     1      0.222037      0.764477      0.319551
    19     1      0.207714      0.940974      0.484226
    20     1      0.958725      0.691676      0.486140
    21     1      0.908467      0.541719      0.652975
    22     1      0.157262      0.791598      0.653058
    23     1      0.324105      0.900904      0.821777
    24     1      0.072403      0.651053      0.822356
    25     1      0.549080      0.991261      0.987083
    26     1      0.795340      0.240664      0.985790
    27     1      0.777864      0.411541      0.152490
    28     1      0.527933      0.160840      0.152250
    29     1      0.470609      0.014721      0.319972
    30     1      0.721326      0.265680      0.320518
    31     1      0.709226      0.442069      0.485136
    32     1      0.457590      0.190738      0.484228
    33     1      0.407933      0.040831      0.651881
    34     1      0.653263      0.291734      0.651947
    35     1      0.821303      0.400489      0.821272
    36     1      0.569558      0.151049      0.821361
    37     1      0.545345      0.489985      0.987099
    38     1      0.796494      0.739896      0.987418
    39     1      0.778780      0.910407      0.152017
    40     1      0.527609      0.661308      0.151659
    41     1      0.470247      0.514674      0.320489
    42     1      0.721838      0.764388      0.320179
    43     1      0.708761      0.941438      0.485005
    44     1      0.458824      0.691323      0.485291
    45     1      0.405438      0.541923      0.652883
    46     1      0.658248      0.791066      0.652815
    47     1      0.822592      0.900346      0.822601
    48     1      0.573564      0.650540      0.821885
ITEM: TIMESTEP
64400
ITEM: NUMBER OF ATOMS
48
ITEM: BOX BOUNDS xy xz yz  pp  pp  pp
     -0.003081      2.203080      0.000000
     -0.005336      3.815850      0.000000
     -0.007546      5.396420      0.000000
ITEM: ATOMS id type xs ys zs
     1     1      0.047042      0.990313      0.987113
     2     1      0.294467      0.240604      0.987516
     3     1      0.278402      0.410891      0.151665
     4     1      0.026959      0.160979      0.151651
     5     1      0.970630      0.014906      0.319468
     6     1      0.220792      0.264345      0.319028
     7     1      0.208580      0.440967      0.485097
     8     1      0.958356      0.191703      0.485263
     9     1      0.906861      0.040970      0.652758
    10     1      0.156662      0.291384      0.652181
    11     1      0.320605      0.400500      0.821427
    12     1      0.071084      0.150546      0.822150
    13     1      0.045295      0.490192      0.986752
    14     1      0.295544      0.741001      0.986987
    15     1      0.279471      0.910914      0.151935
    16     1      0.029148      0.661110      0.151723
    17     1      0.969620      0.515089      0.320354
    18     1      0.221901      0.764869      0.319912
    19     1      0.209123      0.940241      0.484559
    20     1      0.957604      0.691582      0.485669
    21     1      0.908162      0.540984      0.653235
    22     1      0.157828      0.791349      0.653059
    23     1      0.322710      0.901349      0.821864
    24     1      0.072243      0.650870      0.822217
    25     1      0.547448      0.990382      0.987402
    26     1      0.796248      0.240757      0.986483
    27     1      0.779680      0.411385      0.152055
    28     1      0.529143      0.161592      0.151970
    29     1      0.471462      0.014359      0.320405
    30     1      0.721419      0.264628      0.320330
    31     1      0.708653      0.441546      0.485407
    32     1      0.456537      0.190658      0.484456
    33     1      0.407153      0.040936      0.651949
    34     1      0.654356      0.291554      0.651751
    35     1      0.820636      0.401003      0.821809
    36     1      0.569070      0.150842      0.820766
    37     1      0.545765      0.490491      0.987226
    38     1      0.796619      0.740263      0.987144
    39     1      0.779910      0.910972      0.151697
    40     1      0.529515      0.661756      0.151909
    41     1      0.470777      0.514804      0.319978
    42     1      0.720833      0.765036      0.320063
    43     1      0.708776      0.940826      0.485293
    44     1      0.457403      0.690139      0.485443
    45     1      0.405868      0.541793      0.652974
    46     1      0.658736      0.791118      0.652415
    47     1      0.821553      0.901235      0.822314
    48     1      0.573693      0.650703      0.821829
ITEM: TIMESTEP
64450
ITEM: NUMBER OF ATOMS
48
ITEM: BOX BOUNDS xy xz yz  pp  pp  pp
     -0.003081      2.203080      0.000000
     -0.005336      3.815850      0.000000
     -0.007546      5.396420      0.000000
ITEM: ATOMS id type xs ys zs
     1     1      0.047555      0.991311      0.986779
     2     1      0.296412      0.240617      0.986964
     3     1      0.279656      0.410643      0.151328
     4     1      0.027488      0.160619      0.152060
     5     1      0.971616      0.015439      0.320680
     6     1      0.220715      0.264539      0.319213
     7     1      0.208035      0.440722      0.484537
     8     1      0.958175      0.190490      0.485379
     9     1      0.907279      0.041512      0.652469
    10     1      0.157663      0.291020      0.652919
    11     1      0.320575      0.400985      0.821969
    12     1      0.070575      0.150857      0.822006
    13     1      0.046548      0.491062      0.986940
    14     1      0.296032      0.740774      0.987357
    15     1      0.280071      0.911566      0.152327
    16     1      0.029482      0.661919      0.152210
    17     1      0.970647      0.515365      0.320232
    18     1      0.220127      0.764761      0.320256
    19     1      0.208749      0.939757      0.484815
    20     1      0.956554      0.691005      0.485715
    21     1      0.906482      0.540566      0.652608
    22     1      0.158417      0.790232      0.652844
    23     1      0.322394      0.901406      0.822252
    24     1      0.070980      0.651018      0.822159
    25     1      0.546561      0.990934      0.987150
    26     1      0.796402      0.241228      0.987026
    27     1      0.779672      0.411976      0.152044
    28     1      0.529157      0.161263      0.151934
    29     1      0.471195      0.014370      0.320130
    30     1      0.721307      0.264544      0.320534
    31     1      0.707878      0.440945      0.484963
    32     1      0.457449      0.191124      0.484337
    33     1      0.407842      0.040048      0.651989
    34     1      0.656258      0.290933      0.652114
    35     1      0.820973      0.400963      0.822094
    36     1      0.569494      0.151358      0.821832
    37     1      0.546485      0.490800      0.987214
    38     1      0.796040      0.740344      0.987443
    39     1      0.778824      0.911447      0.152097
    40     1      0.529504      0.662246      0.151403
    41     1      0.471269      0.514761      0.320025
    42     1      0.720371      0.765392      0.320128
    43     1      0.709380      0.940592      0.485323
    44     1      0.457283      0.690551      0.484921
    45     1      0.406177      0.541250      0.652481
    46     1      0.659203      0.790841      0.652840
    47     1      0.822107      0.901484      0.822418
    48     1      0.571751      0.651429      0.821958
ITEM: TIMESTEP
64500
ITEM: NUMBER OF ATOMS
48
ITEM: BOX BOUNDS xy xz yz  pp  pp  pp
     -0.003081      2.203080      0.000000
     -0.005336      3.815850      0.000000
     -0.007546      5.396420      0.000000
ITEM: ATOMS id type xs ys zs
     1     1      0.046760      0.990792      0.986813
     2     1      0.296917      0.241078      0.986917
     3     1      0.279951      0.411439      0.151331
     4     1      0.028020      0.160550      0.151413
     5     1      0.971076      0.015467      0.320160
     6     1      0.220343      0.264692      0.319188
     7     1      0.206472      0.440685      0.484797
     8     1      0.958518      0.190005      0.485123
     9     1      0.908388      0.041328      0.652788
    10     1      0.157515      0.290612      0.652541
    11     1      0.318560      0.401104      0.822164
    12     1      0.071307      0.151719      0.822281
    13     1      0.046200      0.491637      0.986812
    14     1      0.296137      0.741587      0.987629
    15     1      0.279350      0.912573      0.151989
    16     1      0.029373      0.661209      0.152587
    17     1      0.970587      0.515507      0.320034