ITEM: TIMESTEP
64001
ITEM: NUMBER OF ATOMS
48
ITEM: BOX BOUNDS xy xz yz  pp  pp  pp
     -0.003081      2.203080      0.000000
     -0.005336      3.815850      0.000000
     -0.007546      5.396420      0.000000
ITEM: ATOMS id type xs ys zs
     1     1      0.048906      0.988265      0.986908
     2     1      0.292657      0.237273      0.986237
     3     1      0.272499      0.408690      0.151780
     4     1      0.022307      0.159244      0.150389
     5     1      0.967449      0.015494      0.318993
     6     1      0.220085      0.262779      0.318713
     7     1      0.211940      0.443116      0.485061
     8     1      0.958980      0.195794      0.485210
     9     1      0.907682      0.044748      0.651785
    10     1      0.153869      0.294543      0.653593
    11     1      0.322884      0.400911      0.822761
    12     1      0.073320      0.149341      0.821821
    13     1      0.039127      0.487195      0.987029
    14     1      0.292274      0.735892      0.986962
    15     1      0.277901      0.908646      0.151400
    16     1      0.026112      0.657949      0.152774
    17     1      0.972180      0.513430      0.320647
    18     1      0.219228      0.764639      0.319834
    19     1      0.208863      0.943793      0.484349
    20     1      0.963774      0.692837      0.485698
    21     1      0.904677      0.544130      0.652466
    22     1      0.157791      0.794936      0.653253
    23     1      0.329136      0.899341      0.821808
    24     1      0.074011      0.649237      0.821630
    25     1      0.548996      0.987359      0.986238
    26     1      0.791470      0.237987      0.985532
    27     1      0.772764      0.410055      0.153146
    28     1      0.523996      0.159612      0.151472
    29     1      0.467866      0.015947      0.319747
    30     1      0.720407      0.265003      0.320172
    31     1      0.709828      0.444665      0.484580
    32     1      0.459055      0.193442      0.484250
    33     1      0.409066      0.042712      0.650792
    34     1      0.651944      0.295010      0.651333
    35     1      0.823569      0.399248      0.820466
    36     1      0.572421      0.150264      0.820106
    37     1      0.541819      0.488640      0.988062
    38     1      0.793916      0.737961      0.988861
    39     1      0.776458      0.908994      0.152426
    40     1      0.525883      0.659881      0.152885
    41     1      0.469512      0.513456      0.319446
    42     1      0.720733      0.763966      0.320612
    43     1      0.711940      0.943355      0.483998
    44     1      0.462087      0.694660      0.485162
    45     1      0.404265      0.544625      0.653344
    46     1      0.658537      0.793755      0.653125
    47     1      0.828835      0.898761      0.822472
    48     1      0.575468      0.649047      0.822826
ITEM: TIMESTEP
64050
ITEM: NUMBER OF ATOMS
48
ITEM: BOX BOUNDS xy xz yz  pp  pp  pp
     -0.003081      2.203080      0.000000
     -0.005336      3.815850      0.000000
     -0.007546      5.396420      0.000000
ITEM: ATOMS id type xs ys zs
     1     1      0.047128      0.988096      0.986746
     2     1      0.292823      0.238561      0.986867
     3     1      0.273181      0.408597      0.152666
     4     1      0.023922      0.159777      0.150807
     5     1      0.968822      0.014850      0.318851
     6     1      0.218781      0.263067      0.319228
     7     1      0.212771      0.442436      0.485069
     8     1      0.958918      0.195205      0.485162
     9     1      0.907853      0.043983      0.652106
    10     1      0.154274      0.294373      0.653471
    11     1      0.323513      0.400177      0.822483
    12     1      0.073014      0.149506      0.821879
    13     1      0.040858      0.487319      0.987249
    14     1      0.293124      0.737451      0.986914
    15     1      0.277300      0.909882      0.151390
    16     1      0.026304      0.658695      0.152654
    17     1      0.971487      0.513293      0.321349
    18     1      0.219204      0.763288      0.319711
    19     1      0.209114      0.943665      0.484034
    20     1      0.960921      0.692375      0.486072
    21     1      0.903402      0.544133      0.652845
    22     1      0.156919      0.794331      0.652335
    23     1      0.327242      0.899358      0.821274
    24     1      0.073890      0.649578      0.821346
    25     1      0.547247      0.988010      0.986447
    26     1      0.790999      0.237978      0.986546
    27     1      0.774314      0.410544      0.152431
    28     1      0.525200      0.159893      0.150774
    29     1      0.468442      0.014898      0.319345
    30     1      0.719236      0.264104      0.319817
    31     1      0.710062      0.444372      0.484761
    32     1      0.459015      0.193116      0.484042
    33     1      0.407821      0.043168      0.651260
    34     1      0.653850      0.294350      0.651337
    35     1      0.823978      0.398778      0.820996
    36     1      0.573179      0.150016      0.820651
    37     1      0.542059      0.488823      0.988219
    38     1      0.793743      0.738462      0.988306
    39     1      0.777669      0.909799      0.152321
    40     1      0.525335      0.660620      0.152673
    41     1      0.470077      0.513879      0.319614
    42     1      0.719435      0.764013      0.320551
    43     1      0.710732      0.942660      0.484130
    44     1      0.459571      0.693838      0.485382
    45     1      0.404111      0.544681      0.653646
    46     1      0.658039      0.793298      0.652868
    47     1      0.828156      0.899293      0.822067
    48     1      0.575454      0.649028      0.822525
ITEM: TIMESTEP
64100
ITEM: NUMBER OF ATOMS
48
ITEM: BOX BOUNDS xy xz yz  pp  pp  pp
     -0.003081      2.203080      0.000000
     -0.005336      3.815850      0.000000
     -0.007546      5.396420      0.000000
ITEM: ATOMS id type xs ys zs
     1     1      0.046261      0.987395      0.987132
     2     1      0.293281      0.238310      0.986134
     3     1      0.274340      0.410001      0.151881
     4     1      0.025965      0.160558      0.151273
     5     1      0.969284      0.015486      0.319380
     6     1      0.217438      0.263297      0.318841
     7     1      0.211346      0.442347      0.485128
     8     1      0.959522      0.193871      0.484771
     9     1      0.906567      0.043571      0.652066
    10     1      0.154119      0.293404      0.653099
    11     1      0.323969      0.400105      0.822182
    12     1      0.072815      0.149474      0.821796
    13     1      0.042879      0.488258      0.987334
    14     1      0.294523      0.738189      0.987013
    15     1      0.277487      0.909816      0.152019
    16     1      0.026696      0.658975      0.153205
    17     1      0.971166      0.513111      0.321350
    18     1      0.220170      0.763708      0.319977
    19     1      0.208375      0.943709      0.484309
    20     1      0.961311      0.692176      0.485826
    21     1      0.904357      0.543745      0.652886
    22     1      0.157245      0.794177      0.652238
    23     1      0.326334      0.899576      0.821321
    24     1      0.074666      0.649470      0.821538
    25     1      0.547237      0.988094      0.986852
    26     1      0.793147      0.238013      0.985990
    27     1      0.774352      0.410118      0.152341
    28     1      0.526275      0.160694      0.150920
    29     1      0.469850      0.014143      0.319608
    30     1      0.719677      0.264390      0.319919
    31     1      0.709178      0.442979      0.485035
    32     1      0.457167      0.191646      0.483615
    33     1      0.407329      0.042291      0.651848
    34     1      0.653837      0.293341      0.651494
    35     1      0.822932      0.399250      0.821319
    36     1      0.572241      0.149929      0.821336
    37     1      0.542551      0.488769      0.987426
    38     1      0.793817      0.737520      0.988155
    39     1      0.777793      0.910424      0.152408
    40     1      0.525620      0.661344      0.152383
    41     1      0.469571      0.513582      0.319555
    42     1      0.719772      0.763260      0.320481
    43     1      0.709887      0.942741      0.484357
    44     1      0.457977      0.693094      0.485221
    45     1      0.403579      0.543099      0.652901
    46     1      0.656798      0.793273      0.653288
    47     1      0.826651      0.899328      0.822341
    48     1      0.576074      0.649959      0.822474
ITEM: TIMESTEP
64150
ITEM: NUMBER OF ATOMS
48
ITEM: BOX BOUNDS xy xz yz  pp  pp  pp
     -0.003081      2.203080      0.000000
     -0.005336      3.815850      0.000000
     -0.007546      5.396420      0.000000
ITEM: ATOMS id type xs ys zs
     1     1      0.046849      0.988542      0.987450
     2     1      0.293461      0.237808      0.986482
     3     1      0.274587      0.410152      0.151749
     4     1      0.025939      0.159685      0.150803
     5     1      0.969085      0.014324      0.319087
     6     1      0.218482      0.263675      0.318730
     7     1      0.210197      0.441444      0.485541
     8     1      0.958436      0.192453      0.484345
     9     1      0.906621      0.042904      0.652422
    10     1      0.153485      0.293005      0.652841
    11     1      0.323906      0.399707      0.822187
    12     1      0.073234      0.149820      0.821308
    13     1      0.044314      0.488836      0.986663
    14     1      0.293812      0.738928      0.986104
    15     1      0.277366      0.910873      0.151942
    16     1      0.025681      0.659610      0.152646
    17     1      0.970981      0.513318      0.320985
    18     1      0.219269      0.763508      0.319727
    19     1      0.207110      0.942663      0.484705
    20     1      0.959494      0.691766      0.485321
    21     1      0.902236      0.543012      0.652679
    22     1      0.156351      0.792899      0.652834
    23     1      0.324992      0.899658      0.821514
    24     1      0.074916      0.649854      0.821313
    25     1      0.547887      0.988116      0.986252
    26     1      0.792545      0.239057      0.986725
    27     1      0.775596      0.410560      0.152032
    28     1      0.526609      0.161105      0.152007
    29     1      0.469921      0.014122      0.320189
    30     1      0.719088      0.263940      0.319692
    31     1      0.710049      0.441678      0.485095
    32     1      0.456985      0.191371      0.483731
    33     1      0.406552      0.042613      0.651974
    34     1      0.653641      0.292402      0.651703
    35     1      0.822941      0.399960      0.820902
    36     1      0.572554      0.149887      0.821240
    37     1      0.543396      0.488927      0.987431
    38     1      0.792357      0.738590      0.988180
    39     1      0.777336      0.909736      0.152005
    40     1      0.525082      0.660716      0.151915
    41     1      0.469693      0.513561      0.320164
    42     1      0.720624      0.763668      0.320251
    43     1      0.709541      0.941512      0.484755
    44     1      0.457536      0.692153      0.485287
    45     1      0.403277      0.542429      0.653074
    46     1      0.656043      0.792820      0.653387
    47     1      0.826661      0.899773      0.821871
    48     1      0.574956      0.648996      0.821745
ITEM: TIMESTEP
64200
ITEM: NUMBER OF ATOMS
48
ITEM: BOX BOUNDS xy xz yz  pp  pp  pp
     -0.003081      2.203080      0.000000
     -0.005336      3.815850      0.000000
     -0.007546      5.396420      0.000000
ITEM: ATOMS id type xs ys zs
     1     1      0.046997      0.988191      0.987653
     2     1      0.293741      0.238061      0.986602
     3     1      0.274542      0.410537      0.152166
     4     1      0.026557      0.160473      0.151291
     5     1      0.968842      0.014478      0.319234
     6     1      0.219606      0.264667      0.319455
     7     1      0.210482      0.441761      0.485168
     8     1      0.957520      0.192446      0.484497
     9     1      0.907452      0.042474      0.652072
    10     1      0.154458      0.292393      0.653002
    11     1      0.321673      0.399623      0.822179
    12     1      0.072214      0.149955      0.822018
    13     1      0.043992      0.488831      0.987152
    14     1      0.294273      0.739060      0.986406
    15     1      0.278074      0.910954      0.152094
    16     1      0.024921      0.660697      0.152228
    17     1      0.972130      0.514064      0.320460
    18     1      0.219938      0.763653      0.319625
    19     1      0.205212      0.942331      0.484861
    20     1      0.959209      0.691623      0.484720
    21     1      0.903252      0.543369      0.652456
    22     1      0.156117      0.792547      0.652192
    23     1      0.323331      0.899775      0.821466
    24     1      0.074595      0.650254      0.821211
    25     1      0.547798      0.988391      0.986366
    26     1      0.793339      0.239696      0.986557
    27     1      0.776338      0.411261      0.152333
    28     1      0.527865      0.161232      0.151931
    29     1      0.469460      0.013913      0.320103
    30     1      0.722551      0.263645      0.319550
    31     1      0.709373      0.441629      0.485008
    32     1      0.458426      0.191589      0.484194
    33     1      0.406823      0.042097      0.651375
    34     1      0.653412      0.292325      0.652177
    35     1      0.822069      0.400640      0.821456
    36     1      0.572289      0.150036      0.821199
    37     1      0.543335      0.489487      0.987587
    38     1      0.794021      0.738585      0.987440
    39     1      0.776975      0.910531      0.152199
    40     1      0.523791      0.660566      0.152048
    41     1      0.470779      0.513713      0.319746
    42     1      0.720909      0.764197      0.319650
    43     1      0.708992      0.941312      0.484655
    44     1      0.458812      0.691625      0.484961
    45     1      0.404041      0.541986      0.652767
    46     1      0.655357      0.792973      0.652528
    47     1      0.825147      0.900070      0.821794
    48     1      0.574197      0.649150      0.821690
ITEM: TIMESTEP
64250
ITEM: NUMBER OF ATOMS
48
ITEM: BOX BOUNDS xy xz yz  pp  pp  pp
     -0.003081      2.203080      0.000000
     -0.005336      3.815850      0.000000
     -0.007546      5.396420      0.000000
ITEM: ATOMS id type xs ys zs
     1     1      0.047971      0.989605      0.987640
     2     1      0.293785      0.239390      0.987180
     3     1      0.274890      0.410777      0.152527
     4     1      0.026362      0.160386      0.151594
     5     1      0.968959      0.014321      0.319640
     6     1      0.220044      0.264422      0.319651
     7     1      0.208172      0.441307      0.485168
     8     1      0.957852      0.191083      0.484902
     9     1      0.907102      0.042149      0.652088
    10     1      0.154638      0.292047      0.652410
    11     1      0.323424      0.399515      0.822020
    12     1      0.070495      0.151003      0.821732
    13     1      0.043514      0.489125      0.986467
    14     1      0.294661      0.738945      0.986421
    15     1      0.278573      0.911303      0.152172
    16     1      0.025763      0.661209      0.151775
    17     1      0.972120      0.513924      0.319977
    18     1      0.221412      0.763637      0.319354
    19     1      0.205366      0.941516      0.484578
    20     1      0.958588      0.691198      0.484957
    21     1      0.904364      0.542985      0.652726
    22     1      0.157208      0.792088      0.652481
    23     1      0.323417      0.900414      0.821988
    24     1      0.074890      0.650205      0.821485
    25     1      0.547834      0.989014      0.987126
    26     1      0.792631      0.239686      0.986901
    27     1      0.776851      0.411331      0.152385
    28     1      0.526509      0.161053      0.152451
    29     1      0.469678      0.014046      0.320361
    30     1      0.721299      0.264565      0.320177
    31     1      0.708901      0.440952      0.485187
    32     1      0.457545      0.190791      0.484205
    33     1      0.407056      0.041771      0.651697
    34     1      0.653692      0.292114      0.652025
    35     1      0.822558      0.400348      0.821272
    36     1      0.571929      0.150400      0.821550
    37     1      0.543584      0.489123      0.987033
    38     1      0.793767      0.739315      0.987523
    39     1      0.778137      0.911298      0.152139
    40     1      0.525808      0.660904      0.152515
    41     1      0.472488      0.513675      0.320127
    42     1      0.720517      0.764294      0.319631
    43     1      0.706846      0.940277      0.484846
    44     1      0.458957      0.690869      0.484947
    45     1      0.403739      0.542434      0.652975
    46     1      0.655428      0.792269      0.652639
    47     1      0.824589      0.900052      0.821729
    48     1      0.574926      0.650006      0.821894
ITEM: TIMESTEP
64300
ITEM: NUMBER OF ATOMS
48
ITEM: BOX BOUNDS xy xz yz  pp  pp  pp
     -0.003081      2.203080      0.000000
     -0.005336      3.815850      0.000000
     -0.007546      5.396420      0.000000
ITEM: ATOMS id type xs ys zs
     1     1      0.047113      0.989428      0.987264
     2     1      0.294844      0.239855      0.987133
     3     1      0.276498      0.411185      0.152468
     4     1      0.026956      0.160065      0.152068
     5     1      0.969495      0.013482      0.319590
     6     1      0.220488      0.264893      0.319853
     7     1      0.207716      0.441312      0.485119
     8     1      0.957727      0.190877      0.484928
     9     1      0.907943      0.041653      0.652103
    10     1      0.154550      0.290980      0.652066
    11     1      0.323300      0.399690      0.821163
    12     1      0.071647      0.150655      0.821682
    13     1      0.043889      0.489227      0.986416
    14     1      0.294953      0.738926      0.986895
    15     1      0.279762      0.911718      0.152279
    16     1      0.025904      0.660421      0.151693
    17     1      0.971549      0.514927      0.320110
    18     1      0.222754      0.763862      0.319367
    19     1      0.206345      0.941060      0.484607
    20     1      0.958635      0.691255      0.484842
    21     1      0.906480      0.542282      0.652542
    22     1      0.156164      0.791857      0.652882
    23     1      0.323081      0.900628      0.821977
    24     1      0.074060      0.649717      0.821671
    25     1      0.545553      0.989834      0.987040
    26     1      0.794465      0.240354      0.987191
    27     1      0.777548      0.411327      0.152416
    28     1      0.526765      0.161842      0.152144
    29     1      0.469290      0.014473      0.320447
    30     1      0.720370      0.264626      0.320547
    31     1      0.709055      0.440369      0.485124
    32     1      0.456485      0.190006      0.484430
    33     1      0.407734      0.041129      0.652288
    34     1      0.652386      0.291028      0.652033
    35     1      0.821870      0.400636      0.821174
    36     1      0.570909      0.150619      0.821733
    37     1      0.543980      0.489438      0.987419
    38     1      0.795654      0.739499      0.986989
    39     1      0.779653      0.911472      0.151528
    40     1      0.525106      0.661296      0.152433
    41     1      0.471759      0.514531      0.320392
    42     1      0.722830      0.764613      0.319527
    43     1      0.707838      0.940602      0.484106
    44     1      0.457742      0.690571      0.484533
    45     1      0.404694      0.541947      0.652237
    46     1      0.655465      0.791225      0.653157
    47     1      0.824687      0.900347      0.821780
    48     1      0.573167      0.650395      0.822145
ITEM: TIMESTEP
64350
ITEM: NUMBER OF ATOMS
48
ITEM: BOX BOUNDS xy xz yz  pp  pp  pp
     -0.003081      2.203080      0.000000
     -0.005336      3.815850      0.000000
     -0.007546      5.396420      0.000000
ITEM: ATOMS id type xs ys zs
     1     1      0.047819      0.989178      0.986839
     2     1      0.295232      0.240236      0.986825
     3     1      0.276933      0.410781      0.151549
     4     1      0.026429      0.161450      0.151371
     5     1      0.969611      0.014344      0.319584
     6     1      0.221619      0.265854      0.319761
     7     1      0.208226      0.440117      0.485465
     8     1      0.957468      0.190480      0.485032
     9     1      0.906469      0.041167      0.652542
    10     1      0.154924      0.290454      0.652517
    11     1      0.321950      0.399632      0.821480
    12     1      0.069969      0.150364      0.821913
    13     1      0.045334      0.489027      0.986084
    14     1      0.295456      0.739393      0.987436
    15     1      0.279818      0.911133      0.151813
    16     1      0.025959      0.661537      0.151912
    17     1      0.971981      0.515080      0.320068
    18     1      0.221426      0.764996      0.319999
    19     1      0.205933      0.940579      0.485293
    20     1      0.956883      0.690885      0.485280
    21     1      0.906042      0.541134      0.652503
    22     1      0.156262      0.792422      0.652658
    23     1      0.324320      0.900358      0.821975
    24     1      0.072649      0.649691      0.821782
    25     1      0.546613      0.990308      0.986977
    26     1      0.794314      0.239365      0.987284
    27     1      0.777112      0.410917      0.151965
    28     1      0.526615      0.161052      0.152191
    29     1      0.468993      0.014319      0.320196
    30     1      0.721183      0.264431      0.320088
    31     1      0.709667      0.439686      0.485263
    32     1      0.457477      0.190209      0.484355
    33     1      0.406418      0.040872      0.652352
    34     1      0.653354      0.291535      0.652710
    35     1      0.821586      0.400376      0.821076
    36     1      0.571898      0.149742      0.822013
    37     1      0.544985      0.489599      0.986486
    38     1      0.794541      0.739825      0.986985
    39     1      0.779348      0.911347      0.151161
    40     1      0.526518      0.661099      0.151831
    41     1      0.470950      0.515496      0.320499
    42     1      0.722313      0.764371      0.319629
    43     1      0.706777      0.940428      0.484688
    44     1      0.457829      0.689612      0.485123
    45     1      0.404546      0.541633      0.653308
    46     1      0.656970      0.791141      0.652847
    47     1      0.824030      0.900312      0.821722
    48     1      0.572746      0.650535      0.822496
ITEM: TIMESTEP
64400
ITEM: NUMBER OF ATOMS
48
ITEM: BOX BOUNDS xy xz yz  pp  pp  pp
     -0.003081      2.203080      0.000000
     -0.005336      3.815850      0.000000
     -0.007546      5.396420      0.000000
ITEM: ATOMS id type xs ys zs
     1     1      0.047432      0.989478      0.986426
     2     1      0.295402      0.240322      0.986550
     3     1      0.277538      0.410910      0.151951
     4     1      0.027231      0.160999      0.151375
     5     1      0.969338      0.014843      0.319587
     6     1      0.220818      0.264572      0.320040
     7     1      0.208923      0.439608      0.485104
     8     1      0.956209      0.190316      0.485103
     9     1      0.907557      0.040511      0.652617
    10     1      0.155798      0.290062      0.652552
    11     1      0.320979      0.399548      0.821933
    12     1      0.070843      0.150611      0.821938
    13     1      0.044360      0.489229      0.986520
    14     1      0.294373      0.739821      0.987421
    15     1      0.278580      0.910778      0.151833
    16     1      0.026799      0.661493      0.152004
    17     1      0.969764      0.515438      0.320446
    18     1      0.221617      0.764925      0.320175
    19     1      0.205692      0.940909      0.485168
    20     1      0.958062      0.691370      0.485087
    21     1      0.906622      0.541086      0.652190
    22     1      0.157480      0.791515      0.652865
    23     1      0.324497      0.900332      0.821699
    24     1      0.072057      0.650287      0.821883
    25     1      0.547157      0.989868      0.986714
    26     1      0.795251      0.239980      0.986653
    27     1      0.778515      0.411006      0.151998
    28     1      0.526401      0.161368      0.152648
    29     1      0.468786      0.014588      0.320738
    30     1      0.719716      0.264792      0.319999
    31     1      0.708368      0.439834      0.485191
    32     1      0.456909      0.190018      0.484788
    33     1      0.407808      0.040457      0.652327
    34     1      0.655291      0.291529      0.652469
    35     1      0.820998      0.401174      0.821335
    36     1      0.571949      0.150771      0.821871
    37     1      0.544380      0.490239      0.987706
    38     1      0.794798      0.738449      0.987500
    39     1      0.778724      0.911165      0.151339
    40     1      0.525911      0.661520      0.152112
    41     1      0.470749      0.515064      0.320094
    42     1      0.722296      0.764758      0.319828
    43     1      0.706791      0.939861      0.485040
    44     1      0.457642      0.690268      0.485273
    45     1      0.403771      0.540402      0.652607
    46     1      0.656341      0.790956      0.652597
    47     1      0.824943      0.900807      0.822179
    48     1      0.572708      0.650423      0.822103
ITEM: TIMESTEP
64450
ITEM: NUMBER OF ATOMS
48
ITEM: BOX BOUNDS xy xz yz  pp  pp  pp
     -0.003081      2.203080      0.000000
     -0.005336      3.815850      0.000000
     -0.007546      5.396420      0.000000
ITEM: ATOMS id type xs ys zs
     1     1      0.045391      0.989592      0.987016
     2     1      0.296188      0.239504      0.986581
     3     1      0.278100      0.410532      0.151515
     4     1      0.028130      0.161141      0.151393
     5     1      0.968958      0.014608      0.319521
     6     1      0.219072      0.264559      0.320364
     7     1      0.208120      0.439577      0.484912
     8     1      0.956336      0.189441      0.485549
     9     1      0.908338      0.039569      0.652550
    10     1      0.155501      0.289440      0.652916
    11     1      0.320636      0.400606      0.822147
    12     1      0.071001      0.150386      0.822237
    13     1      0.043177      0.489272      0.986777
    14     1      0.296037      0.739923      0.986829
    15     1      0.278057      0.910643      0.152043
    16     1      0.027275      0.661656      0.152159
    17     1      0.969499      0.515642      0.320167
    18     1      0.221413      0.764026      0.319745
    19     1      0.206017      0.940704      0.484355
    20     1      0.958046      0.690346      0.484967
    21     1      0.907454      0.540578      0.651664
    22     1      0.157661      0.791393      0.652845
    23     1      0.323457      0.900361      0.821109
    24     1      0.070831      0.650260      0.821662
    25     1      0.546124      0.990362      0.987058
    26     1      0.794485      0.240146      0.986869
    27     1      0.778975      0.412172      0.151689
    28     1      0.527741      0.161710      0.152487
    29     1      0.469374      0.015090      0.320333
    30     1      0.718500      0.265400      0.319524
    31     1      0.708135      0.440058      0.485336
    32     1      0.456913      0.188928      0.484623
    33     1      0.408347      0.039266      0.651837
    34     1      0.655002      0.290295      0.652513
    35     1      0.820519      0.401292      0.821382
    36     1      0.571460      0.151130      0.821925
    37     1      0.543243      0.490455      0.986759
    38     1      0.794589      0.739052      0.987312
    39     1      0.777966      0.911202      0.151223
    40     1      0.526449      0.661153      0.152135
    41     1      0.470499      0.514934      0.320074
    42     1      0.721141      0.765475      0.319353
    43     1      0.708022      0.939924      0.484846
    44     1      0.457556      0.690352      0.484776
    45     1      0.403589      0.540230      0.652731
    46     1      0.657562      0.790353      0.652651
    47     1      0.823256      0.900976      0.822613
    48     1      0.571163      0.650120      0.821867
ITEM: TIMESTEP
64500
ITEM: NUMBER OF ATOMS
48
ITEM: BOX BOUNDS xy xz yz  pp  pp  pp
     -0.003081      2.203080      0.000000
     -0.005336      3.815850      0.000000
     -0.007546      5.396420      0.000000
ITEM: ATOMS id type xs ys zs
     1     1      0.046175      0.989585      0.987038
     2     1      0.295996      0.239907      0.986400
     3     1      0.278154      0.411774      0.151611
     4     1      0.027375      0.161365      0.151546
     5     1      0.968452      0.014881      0.319960
     6     1      0.220019      0.264205      0.319944
     7     1      0.207852      0.438890      0.484863
     8     1      0.957536      0.188977      0.485089
     9     1      0.908779      0.039770      0.652965
    10     1      0.155459      0.289340      0.653040
    11     1      0.320099      0.400803      0.821942
    12     1      0.071299      0.150638      0.822553
    13     1      0.043832      0.489836      0.986805
    14     1      0.295383      0.739613      0.986304
    15     1      0.278690      0.911288      0.151979
    16     1      0.027135      0.661490      0.151984
    17     1      0.969130      0.515114      0.320655