ITEM: TIMESTEP
64001
ITEM: NUMBER OF ATOMS
48
ITEM: BOX BOUNDS xy xz yz  pp  pp  pp
     -0.003081      2.203080      0.000000
     -0.005336      3.815850      0.000000
     -0.007546      5.396420      0.000000
ITEM: ATOMS id type xs ys zs
     1     1      0.048785      0.988188      0.986995
     2     1      0.292941      0.237256      0.986191
     3     1      0.272512      0.408650      0.151623
     4     1      0.022401      0.159306      0.150376
     5     1      0.966971      0.015393      0.319080
     6     1      0.220230      0.262712      0.318865
     7     1      0.211855      0.443024      0.485126
     8     1      0.959078      0.195873      0.485199
     9     1      0.907601      0.044632      0.651839
    10     1      0.154005      0.294595      0.653470
    11     1      0.322823      0.400913      0.822827
    12     1      0.073788      0.149238      0.821746
    13     1      0.038761      0.487194      0.987073
    14     1      0.292047      0.735992      0.986863
    15     1      0.277824      0.908631      0.151400
    16     1      0.026227      0.657905      0.152838
    17     1      0.971851      0.513386      0.320658
    18     1      0.219201      0.764686      0.319754
    19     1      0.208810      0.943816      0.484371
    20     1      0.963755      0.693028      0.485625
    21     1      0.904717      0.544224      0.652511
    22     1      0.157653      0.794888      0.653378
    23     1      0.329270      0.899277      0.821672
    24     1      0.073650      0.649253      0.821606
    25     1      0.549204      0.987233      0.986225
    26     1      0.791270      0.237927      0.985492
    27     1      0.772876      0.409989      0.153149
    28     1      0.523715      0.159665      0.151493
    29     1      0.467818      0.015924      0.319855
    30     1      0.720522      0.265228      0.320307
    31     1      0.709819      0.444914      0.484622
    32     1      0.459054      0.193717      0.484226
    33     1      0.409432      0.042775      0.650877
    34     1      0.651861      0.294839      0.651325
    35     1      0.823617      0.399427      0.820436
    36     1      0.572514      0.150227      0.820161
    37     1      0.541988      0.488319      0.988036
    38     1      0.794121      0.738107      0.988769
    39     1      0.776705      0.909201      0.152412
    40     1      0.525682      0.659946      0.152887
    41     1      0.469655      0.513588      0.319453
    42     1      0.720895      0.764016      0.320510
    43     1      0.712299      0.943377      0.484038
    44     1      0.462384      0.694506      0.485221
    45     1      0.404412      0.544549      0.653229
    46     1      0.658450      0.793629      0.653145
    47     1      0.828809      0.898696      0.822446
    48     1      0.575718      0.649310      0.822826
ITEM: TIMESTEP
64050
ITEM: NUMBER OF ATOMS
48
ITEM: BOX BOUNDS xy xz yz  pp  pp  pp
     -0.003081      2.203080      0.000000
     -0.005336      3.815850      0.000000
     -0.007546      5.396420      0.000000
ITEM: ATOMS id type xs ys zs
     1     1      0.048033      0.988143      0.986847
     2     1      0.293726      0.237871      0.986160
     3     1      0.274023      0.409214      0.151527
     4     1      0.022696      0.159152      0.150700
     5     1      0.966542      0.015342      0.319964
     6     1      0.220553      0.263846      0.318805
     7     1      0.210760      0.442097      0.484765
     8     1      0.959084      0.194727      0.485226
     9     1      0.906094      0.043894      0.652367
    10     1      0.154402      0.294670      0.653337
    11     1      0.322514      0.401084      0.822792
    12     1      0.072912      0.149007      0.821729
    13     1      0.040513      0.487218      0.987198
    14     1      0.293634      0.737721      0.987298
    15     1      0.277418      0.908850      0.151505
    16     1      0.027514      0.658121      0.152855
    17     1      0.971459      0.513564      0.320494
    18     1      0.218150      0.765674      0.319702
    19     1      0.208742      0.943602      0.484579
    20     1      0.962315      0.692888      0.485000
    21     1      0.904729      0.544056      0.652504
    22     1      0.158179      0.793615      0.652775
    23     1      0.329643      0.899782      0.821905
    24     1      0.073945      0.649320      0.822211
    25     1      0.547699      0.988458      0.986615
    26     1      0.793590      0.237412      0.986051
    27     1      0.773753      0.410036      0.152837
    28     1      0.524968      0.160469      0.151322
    29     1      0.468528      0.015427      0.320281
    30     1      0.719940      0.264356      0.320201
    31     1      0.709666      0.444621      0.485229
    32     1      0.459222      0.192710      0.483879
    33     1      0.408060      0.043220      0.651207
    34     1      0.653106      0.293706      0.651288
    35     1      0.823312      0.399802      0.820906
    36     1      0.572546      0.150092      0.820562
    37     1      0.542208      0.488213      0.987569
    38     1      0.793860      0.739151      0.988287
    39     1      0.778768      0.910147      0.152478
    40     1      0.526601      0.660219      0.152295
    41     1      0.470468      0.514195      0.319821
    42     1      0.720260      0.764097      0.320052
    43     1      0.709600      0.942309      0.484301
    44     1      0.462068      0.693648      0.484768
    45     1      0.406152      0.544037      0.653093
    46     1      0.657871      0.792953      0.653048
    47     1      0.828099      0.899751      0.821574
    48     1      0.574114      0.650549      0.822937
ITEM: TIMESTEP
64100
ITEM: NUMBER OF ATOMS
48
ITEM: BOX BOUNDS xy xz yz  pp  pp  pp
     -0.003081      2.203080      0.000000
     -0.005336      3.815850      0.000000
     -0.007546      5.396420      0.000000
ITEM: ATOMS id type xs ys zs
     1     1      0.047038      0.990141      0.987292
     2     1      0.294622      0.238672      0.986065
     3     1      0.274245      0.409910      0.151968
     4     1      0.024709      0.160266      0.151623
     5     1      0.967499      0.014548      0.320229
     6     1      0.218707      0.264171      0.319378
     7     1      0.211335      0.441902      0.484746
     8     1      0.959545      0.194074      0.485144
     9     1      0.904742      0.043405      0.652225
    10     1      0.154121      0.294009      0.652874
    11     1      0.322935      0.400037      0.822636
    12     1      0.073342      0.149852      0.821254
    13     1      0.042358      0.488197      0.986589
    14     1      0.295889      0.738188      0.987642
    15     1      0.278076      0.908891      0.151578
    16     1      0.025745      0.659066      0.152653
    17     1      0.970865      0.513828      0.320434
    18     1      0.219420      0.764862      0.320011
    19     1      0.207872      0.943451      0.484526
    20     1      0.961695      0.692629      0.484802
    21     1      0.906504      0.543697      0.651928
    22     1      0.158056      0.793344      0.652913
    23     1      0.328953      0.899258      0.821878
    24     1      0.073954      0.649882      0.821544
    25     1      0.547273      0.989556      0.986247
    26     1      0.794446      0.238890      0.986150
    27     1      0.773699      0.410685      0.152146
    28     1      0.526678      0.160678      0.151416
    29     1      0.469547      0.016158      0.320062
    30     1      0.719603      0.265325      0.319592
    31     1      0.708638      0.442952      0.485073
    32     1      0.459252      0.192520      0.484072
    33     1      0.407269      0.042792      0.651034
    34     1      0.654952      0.293679      0.651934
    35     1      0.822789      0.399545      0.820462
    36     1      0.572484      0.150581      0.820296
    37     1      0.543677      0.489174      0.987406
    38     1      0.794098      0.739226      0.987896
    39     1      0.778255      0.910593      0.152185
    40     1      0.527341      0.659707      0.152495
    41     1      0.470741      0.513864      0.319557
    42     1      0.720638      0.763678      0.320258
    43     1      0.709662      0.942064      0.485175
    44     1      0.461985      0.692987      0.484594
    45     1      0.406686      0.544126      0.653013
    46     1      0.658004      0.793254      0.652840
    47     1      0.829088      0.899804      0.821838
    48     1      0.575033      0.650731      0.822719
ITEM: TIMESTEP
64150
ITEM: NUMBER OF ATOMS
48
ITEM: BOX BOUNDS xy xz yz  pp  pp  pp
     -0.003081      2.203080      0.000000
     -0.005336      3.815850      0.000000
     -0.007546      5.396420      0.000000
ITEM: ATOMS id type xs ys zs
     1     1      0.046675      0.990228      0.987515
     2     1      0.294674      0.238135      0.986499
     3     1      0.275731      0.409946      0.151689
     4     1      0.026541      0.160738      0.152106
     5     1      0.968624      0.014408      0.319778
     6     1      0.219711      0.263654      0.319134
     7     1      0.211435      0.442327      0.485185
     8     1      0.958482      0.192754      0.484375
     9     1      0.905197      0.043671      0.651831
    10     1      0.154655      0.294248      0.652252
    11     1      0.322636      0.400270      0.822196
    12     1      0.072611      0.150256      0.821353
    13     1      0.043567      0.488629      0.987321
    14     1      0.294563      0.739078      0.987122
    15     1      0.277860      0.909682      0.152122
    16     1      0.025756      0.659119      0.152002
    17     1      0.971551      0.514222      0.320092
    18     1      0.219803      0.764439      0.320358
    19     1      0.207599      0.942571      0.485271
    20     1      0.961607      0.692822      0.485423
    21     1      0.906953      0.542416      0.652029
    22     1      0.158150      0.793506      0.653033
    23     1      0.327014      0.899624      0.821986
    24     1      0.072134      0.649793      0.821717
    25     1      0.547342      0.990202      0.986358
    26     1      0.794740      0.239852      0.985822
    27     1      0.773676      0.410101      0.151848
    28     1      0.527602      0.160422      0.151339
    29     1      0.468767      0.015841      0.319899
    30     1      0.719303      0.265180      0.319540
    31     1      0.709536      0.442747      0.484526
    32     1      0.460086      0.192703      0.484070
    33     1      0.405851      0.043471      0.651581
    34     1      0.654047      0.292903      0.652392
    35     1      0.821281      0.400518      0.821023
    36     1      0.572340      0.150393      0.821193
    37     1      0.543985      0.489859      0.987335
    38     1      0.794849      0.740061      0.987853
    39     1      0.778036      0.910267      0.151838
    40     1      0.527185      0.660063      0.152233
    41     1      0.470583      0.513860      0.319417
    42     1      0.720939      0.764419      0.320455
    43     1      0.708739      0.942396      0.484772
    44     1      0.461965      0.692935      0.485067
    45     1      0.408717      0.543190      0.653207
    46     1      0.657361      0.793176      0.652760
    47     1      0.828171      0.900550      0.821808
    48     1      0.574534      0.651172      0.822212
ITEM: TIMESTEP
64200
ITEM: NUMBER OF ATOMS
48
ITEM: BOX BOUNDS xy xz yz  pp  pp  pp
     -0.003081      2.203080      0.000000
     -0.005336      3.815850      0.000000
     -0.007546      5.396420      0.000000
ITEM: ATOMS id type xs ys zs
     1     1      0.046910      0.991336      0.986531
     2     1      0.295368      0.238204      0.986169
     3     1      0.275927      0.410344      0.151358
     4     1      0.027400      0.161265      0.152202
     5     1      0.970386      0.015478      0.319687
     6     1      0.220490      0.264145      0.319026
     7     1      0.211023      0.442542      0.485023
     8     1      0.958596      0.192758      0.484286
     9     1      0.905798      0.043031      0.652085
    10     1      0.154339      0.293481      0.652012
    11     1      0.321130      0.399969      0.822415
    12     1      0.071964      0.150894      0.821040
    13     1      0.043121      0.489538      0.987261
    14     1      0.295209      0.739635      0.987356
    15     1      0.277278      0.911032      0.152073
    16     1      0.026940      0.660421      0.151975
    17     1      0.973326      0.513916      0.320244
    18     1      0.220196      0.764868      0.319856
    19     1      0.207463      0.942438      0.485115
    20     1      0.960083      0.692450      0.485286
    21     1      0.906605      0.542278      0.652376
    22     1      0.157375      0.792297      0.652657
    23     1      0.328245      0.899967      0.822078
    24     1      0.073691      0.649675      0.821819
    25     1      0.548002      0.991044      0.987094
    26     1      0.795315      0.240737      0.985618
    27     1      0.775046      0.410545      0.151898
    28     1      0.527047      0.160933      0.151560
    29     1      0.470557      0.014792      0.320136
    30     1      0.720833      0.264758      0.319367
    31     1      0.709729      0.442557      0.484805
    32     1      0.459497      0.192517      0.484458
    33     1      0.405955      0.042904      0.651690
    34     1      0.654213      0.292645      0.652674
    35     1      0.821801      0.401655      0.821127
    36     1      0.573210      0.149908      0.820729
    37     1      0.544056      0.489558      0.987001
    38     1      0.793284      0.740813      0.987277
    39     1      0.778124      0.911038      0.151681
    40     1      0.526343      0.660665      0.152624
    41     1      0.470814      0.513668      0.319397
    42     1      0.720576      0.765011      0.320307
    43     1      0.708763      0.943542      0.484282
    44     1      0.460708      0.692348      0.485341
    45     1      0.408050      0.543191      0.653147
    46     1      0.657041      0.793209      0.653045
    47     1      0.828517      0.900300      0.821446
    48     1      0.574392      0.650640      0.822345
ITEM: TIMESTEP
64250
ITEM: NUMBER OF ATOMS
48
ITEM: BOX BOUNDS xy xz yz  pp  pp  pp
     -0.003081      2.203080      0.000000
     -0.005336      3.815850      0.000000
     -0.007546      5.396420      0.000000
ITEM: ATOMS id type xs ys zs
     1     1      0.046868      0.990330      0.985992
     2     1      0.294200      0.239776      0.986473
     3     1      0.275612      0.410822      0.151625
     4     1      0.027076      0.161217      0.151434
     5     1      0.971337      0.014629      0.319483
     6     1      0.221396      0.264828      0.319152
     7     1      0.211149      0.442396      0.484531
     8     1      0.960112      0.192768      0.483853
     9     1      0.907154      0.042593      0.651942
    10     1      0.154029      0.292526      0.652441
    11     1      0.321186      0.400335      0.822158
    12     1      0.071477      0.151312      0.821130
    13     1      0.043281      0.490201      0.987102
    14     1      0.294703      0.740109      0.987627
    15     1      0.277491      0.911989      0.152059
    16     1      0.027486      0.661101      0.151976
    17     1      0.973125      0.513967      0.320347
    18     1      0.221632      0.763873      0.319717
    19     1      0.208022      0.941823      0.484593
    20     1      0.960116      0.692273      0.485743
    21     1      0.906887      0.542474      0.652738
    22     1      0.158668      0.793148      0.652855
    23     1      0.325226      0.900446      0.821790
    24     1      0.072592      0.651655      0.822134
    25     1      0.547055      0.990405      0.986943
    26     1      0.794728      0.240876      0.985733
    27     1      0.776186      0.410853      0.151778
    28     1      0.526951      0.160805      0.151828
    29     1      0.471452      0.014660      0.320149
    30     1      0.721103      0.264444      0.319558
    31     1      0.709749      0.442190      0.484525
    32     1      0.458679      0.191942      0.484674
    33     1      0.406540      0.041783      0.651681
    34     1      0.654354      0.292524      0.652591
    35     1      0.821139      0.401357      0.820956
    36     1      0.571460      0.150254      0.821186
    37     1      0.546129      0.490028      0.986798
    38     1      0.794579      0.740987      0.987224
    39     1      0.776479      0.911415      0.151841
    40     1      0.526466      0.660916      0.151947
    41     1      0.471289      0.513775      0.319398
    42     1      0.720556      0.763538      0.320264
    43     1      0.707755      0.942624      0.484387
    44     1      0.460753      0.692072      0.485357
    45     1      0.407869      0.542932      0.652958
    46     1      0.657194      0.792635      0.653230
    47     1      0.826646      0.901059      0.821676
    48     1      0.573262      0.650590      0.821985
ITEM: TIMESTEP
64300
ITEM: NUMBER OF ATOMS
48
ITEM: BOX BOUNDS xy xz yz  pp  pp  pp
     -0.003081      2.203080      0.000000
     -0.005336      3.815850      0.000000
     -0.007546      5.396420      0.000000
ITEM: ATOMS id type xs ys zs
     1     1      0.047070      0.990943      0.986681
     2     1      0.293876      0.240371      0.986513
     3     1      0.275772      0.411180      0.151532
     4     1      0.027498      0.161798      0.151712
     5     1      0.971403      0.015644      0.319169
     6     1      0.220990      0.264684      0.319221
     7     1      0.211048      0.442051      0.484730
     8     1      0.959231      0.192166      0.484020
     9     1      0.906536      0.041937      0.651721
    10     1      0.155726      0.291800      0.651976
    11     1      0.320167      0.401462      0.821640
    12     1      0.071296      0.150967      0.821225
    13     1      0.043425      0.490384      0.986683
    14     1      0.295290      0.740749      0.987716
    15     1      0.278026      0.912228      0.152016
    16     1      0.027570      0.661805      0.152351
    17     1      0.971671      0.514255      0.320049
    18     1      0.221771      0.764455      0.320754
    19     1      0.207567      0.942104      0.484903
    20     1      0.957900      0.691901      0.485926
    21     1      0.906529      0.542304      0.652577
    22     1      0.157681      0.792327      0.652454
    23     1      0.324116      0.900888      0.822441
    24     1      0.071770      0.651346      0.821805
    25     1      0.547069      0.989784      0.986838
    26     1      0.794485      0.240440      0.985883
    27     1      0.776315      0.412019      0.151676
    28     1      0.527820      0.161496      0.151675
    29     1      0.472195      0.014385      0.319522
    30     1      0.720039      0.264691      0.319643
    31     1      0.709597      0.441688      0.484481
    32     1      0.457840      0.191873      0.484915
    33     1      0.406452      0.041267      0.651893
    34     1      0.654540      0.292922      0.651977
    35     1      0.820970      0.401163      0.821477
    36     1      0.572339      0.150721      0.820905
    37     1      0.545176      0.490166      0.987010
    38     1      0.795108      0.740783      0.986838
    39     1      0.777049      0.911449      0.151675
    40     1      0.527616      0.661451      0.151980
    41     1      0.470869      0.513505      0.318884
    42     1      0.721283      0.764239      0.319898
    43     1      0.708048      0.941928      0.484768
    44     1      0.459492      0.692468      0.484677
    45     1      0.407664      0.542936      0.652615
    46     1      0.658631      0.792297      0.652898
    47     1      0.825583      0.900722      0.821948
    48     1      0.571493      0.650534      0.822226
ITEM: TIMESTEP
64350
ITEM: NUMBER OF ATOMS
48
ITEM: BOX BOUNDS xy xz yz  pp  pp  pp
     -0.003081      2.203080      0.000000
     -0.005336      3.815850      0.000000
     -0.007546      5.396420      0.000000
ITEM: ATOMS id type xs ys zs
     1     1      0.045913      0.991511      0.987383
     2     1      0.294019      0.240359      0.986295
     3     1      0.275309      0.411574      0.151552
     4     1      0.027517      0.161397      0.151946
     5     1      0.972247      0.014650      0.319588
     6     1      0.220948      0.264778      0.319626
     7     1      0.210729      0.441778      0.483720
     8     1      0.958056      0.191382      0.484228
     9     1      0.907008      0.041709      0.652096
    10     1      0.156498      0.291702      0.652115
    11     1      0.319962      0.401826      0.821762
    12     1      0.070715      0.150559      0.821410
    13     1      0.043645      0.490543      0.987009
    14     1      0.295438      0.740649      0.987257
    15     1      0.277045      0.911756      0.152174
    16     1      0.026976      0.661553      0.152135
    17     1      0.972542      0.513994      0.319402
    18     1      0.220034      0.765089      0.320332
    19     1      0.206408      0.942395      0.484940
    20     1      0.958004      0.691087      0.484985
    21     1      0.907304      0.541945      0.652459
    22     1      0.158874      0.791472      0.652288
    23     1      0.323937      0.901380      0.822180
    24     1      0.072140      0.651458      0.822097
    25     1      0.546074      0.989548      0.986622
    26     1      0.794237      0.240883      0.986626
    27     1      0.777220      0.411240      0.151723
    28     1      0.527222      0.162963      0.151848
    29     1      0.472031      0.014919      0.318967
    30     1      0.721571      0.263756      0.319916
    31     1      0.709713      0.441000      0.484067
    32     1      0.457700      0.191694      0.485119
    33     1      0.407311      0.040532      0.651982
    34     1      0.655455      0.291840      0.651635
    35     1      0.820713      0.401965      0.821423
    36     1      0.571587      0.150753      0.821165
    37     1      0.545107      0.490511      0.987680
    38     1      0.795436      0.740960      0.986362
    39     1      0.777558      0.911435      0.151567
    40     1      0.527665      0.662105      0.151489
    41     1      0.471408      0.514248      0.318914
    42     1      0.720954      0.764745      0.319499
    43     1      0.706743      0.940912      0.484386
    44     1      0.458824      0.691565      0.484780
    45     1      0.409318      0.542303      0.652091
    46     1      0.658494      0.792578      0.652617
    47     1      0.825556      0.900899      0.821709
    48     1      0.569622      0.650882      0.821757
ITEM: TIMESTEP
64400
ITEM: NUMBER OF ATOMS
48
ITEM: BOX BOUNDS xy xz yz  pp  pp  pp
     -0.003081      2.203080      0.000000
     -0.005336      3.815850      0.000000
     -0.007546      5.396420      0.000000
ITEM: ATOMS id type xs ys zs
     1     1      0.045548      0.991727      0.986577
     2     1      0.294345      0.241949      0.986290
     3     1      0.276905      0.411497      0.151779
     4     1      0.026860      0.161217      0.151701
     5     1      0.971963      0.014957      0.319390
     6     1      0.221863      0.265055      0.319571
     7     1      0.210483      0.441837      0.484126
     8     1      0.958626      0.191753      0.485027
     9     1      0.906410      0.040541      0.651914
    10     1      0.157744      0.291885      0.651866
    11     1      0.319347      0.401914      0.821879
    12     1      0.069788      0.151026      0.821577
    13     1      0.044235      0.490448      0.986990
    14     1      0.295211      0.741651      0.987348
    15     1      0.277272      0.911654      0.151809
    16     1      0.027815      0.662177      0.151788
    17     1      0.971363      0.513650      0.319280
    18     1      0.220036      0.764871      0.320149
    19     1      0.206294      0.941392      0.485150
    20     1      0.957260      0.690530      0.484796
    21     1      0.907147      0.541825      0.652259
    22     1      0.158760      0.791452      0.652981
    23     1      0.322517      0.902171      0.821921
    24     1      0.071723      0.651430      0.822191
    25     1      0.545464      0.990967      0.986620
    26     1      0.793465      0.240483      0.986578
    27     1      0.777978      0.411765      0.151704
    28     1      0.527094      0.163029      0.151525
    29     1      0.471706      0.015233      0.318633
    30     1      0.722053      0.264097      0.319850
    31     1      0.709719      0.440687      0.484124
    32     1      0.457282      0.190585      0.484534
    33     1      0.407880      0.040951      0.651927
    34     1      0.655396      0.291820      0.651855
    35     1      0.821469      0.401365      0.821689
    36     1      0.570024      0.152553      0.821376
    37     1      0.544639      0.490587      0.987371
    38     1      0.794194      0.741703      0.986540
    39     1      0.776391      0.912191      0.151871
    40     1      0.528350      0.662130      0.151583
    41     1      0.469927      0.514333      0.319394
    42     1      0.721742      0.764064      0.319445
    43     1      0.707683      0.940667      0.484336
    44     1      0.456813      0.690702      0.484801
    45     1      0.407850      0.540961      0.651695
    46     1      0.659201      0.790789      0.652101
    47     1      0.823964      0.901997      0.821735
    48     1      0.569526      0.651529      0.821949
ITEM: TIMESTEP
64450
ITEM: NUMBER OF ATOMS
48
ITEM: BOX BOUNDS xy xz yz  pp  pp  pp
     -0.003081      2.203080      0.000000
     -0.005336      3.815850      0.000000
     -0.007546      5.396420      0.000000
ITEM: ATOMS id type xs ys zs
     1     1      0.045747      0.990950      0.987010
     2     1      0.294625      0.241282      0.986677
     3     1      0.277648      0.412084      0.151407
     4     1      0.026429      0.162013      0.151457
     5     1      0.971560      0.014739      0.319759
     6     1      0.222850      0.266088      0.319044
     7     1      0.209228      0.440657      0.484377
     8     1      0.957094      0.191146      0.484966
     9     1      0.907091      0.040231      0.651770
    10     1      0.158475      0.290370      0.651630
    11     1      0.320630      0.402154      0.821183
    12     1      0.070160      0.151513      0.821361
    13     1      0.044376      0.490430      0.986907
    14     1      0.296192      0.741457      0.986893
    15     1      0.276874      0.912259      0.151742
    16     1      0.029271      0.661822      0.151879
    17     1      0.971910      0.514422      0.318911
    18     1      0.220378      0.764814      0.319893
    19     1      0.207644      0.940594      0.485333
    20     1      0.957289      0.689874      0.485230
    21     1      0.908158      0.540396      0.652585
    22     1      0.158546      0.791134      0.652740
    23     1      0.320851      0.901428      0.821629
    24     1      0.070303      0.652102      0.822084
    25     1      0.545564      0.990908      0.987100
    26     1      0.794631      0.240959      0.986337
    27     1      0.778343      0.412628      0.151619
    28     1      0.527771      0.162796      0.151390
    29     1      0.472081      0.015402      0.318938
    30     1      0.723084      0.264381      0.318949
    31     1      0.709652      0.440426      0.483984
    32     1      0.456897      0.190270      0.484062
    33     1      0.407227      0.040756      0.652750
    34     1      0.656671      0.290809      0.651439
    35     1      0.819766      0.401407      0.821969
    36     1      0.569712      0.152186      0.821359
    37     1      0.544877      0.491423      0.987387
    38     1      0.795458      0.741004      0.986510
    39     1      0.776546      0.912148      0.152324
    40     1      0.527613      0.662517      0.152151
    41     1      0.469668      0.515725      0.319238
    42     1      0.721586      0.763995      0.319988
    43     1      0.707008      0.940914      0.484957
    44     1      0.457448      0.690592      0.484938
    45     1      0.408353      0.540172      0.651420
    46     1      0.658695      0.790316      0.652301
    47     1      0.821245      0.902210      0.821214
    48     1      0.570079      0.652167      0.821885
ITEM: TIMESTEP
64500
ITEM: NUMBER OF ATOMS
48
ITEM: BOX BOUNDS xy xz yz  pp  pp  pp
     -0.003081      2.203080      0.000000
     -0.005336      3.815850      0.000000
     -0.007546      5.396420      0.000000
ITEM: ATOMS id type xs ys zs
     1     1      0.046746      0.991214      0.987398
     2     1      0.295021      0.241628      0.986456
     3     1      0.278624      0.412066      0.151225
     4     1      0.026595      0.161667      0.151122
     5     1      0.971952      0.014602      0.319050
     6     1      0.223173      0.265723      0.319208
     7     1      0.209574      0.439808      0.484155
     8     1      0.957192      0.190684      0.483950
     9     1      0.907416      0.040285      0.651925
    10     1      0.158354      0.291117      0.651295
    11     1      0.319763      0.402030      0.821535
    12     1      0.070006      0.151738      0.821437
    13     1      0.044069      0.491222      0.986990
    14     1      0.294641      0.741064      0.986904
    15     1      0.276076      0.911762      0.151795
    16     1      0.029054      0.661608      0.152371
    17     1      0.970785      0.514587      0.319454