ITEM: TIMESTEP
64001
ITEM: NUMBER OF ATOMS
48
ITEM: BOX BOUNDS xy xz yz  pp  pp  pp
     -0.003081      2.203080      0.000000
     -0.005336      3.815850      0.000000
     -0.007546      5.396420      0.000000
ITEM: ATOMS id type xs ys zs
     1     1      0.048738      0.988237      0.986856
     2     1      0.292964      0.237264      0.986217
     3     1      0.272396      0.408601      0.151559
     4     1      0.022548      0.159208      0.150381
     5     1      0.966952      0.015647      0.318989
     6     1      0.220291      0.262867      0.318782
     7     1      0.212145      0.443115      0.485109
     8     1      0.959243      0.195752      0.485240
     9     1      0.907887      0.044648      0.651872
    10     1      0.153903      0.294536      0.653516
    11     1      0.322931      0.400928      0.822712
    12     1      0.073816      0.149362      0.821900
    13     1      0.038898      0.487207      0.986944
    14     1      0.292104      0.735846      0.986886
    15     1      0.278031      0.908797      0.151306
    16     1      0.026241      0.657899      0.152851
    17     1      0.972021      0.513387      0.320638
    18     1      0.219096      0.764731      0.319763
    19     1      0.208797      0.943732      0.484394
    20     1      0.963913      0.692997      0.485700
    21     1      0.904539      0.544252      0.652423
    22     1      0.157646      0.794746      0.653281
    23     1      0.329378      0.899176      0.821691
    24     1      0.073857      0.649310      0.821682
    25     1      0.548970      0.987272      0.986154
    26     1      0.791304      0.238047      0.985535
    27     1      0.772867      0.410002      0.153132
    28     1      0.523685      0.159626      0.151427
    29     1      0.467847      0.015832      0.319840
    30     1      0.720318      0.264987      0.320164
    31     1      0.709635      0.444943      0.484507
    32     1      0.459099      0.193553      0.484220
    33     1      0.409207      0.042789      0.650853
    34     1      0.651971      0.294730      0.651181
    35     1      0.823667      0.399372      0.820543
    36     1      0.572193      0.150216      0.820068
    37     1      0.541828      0.488468      0.988057
    38     1      0.794281      0.738030      0.988829
    39     1      0.776341      0.909013      0.152437
    40     1      0.525904      0.659811      0.152848
    41     1      0.469706      0.513499      0.319525
    42     1      0.720584      0.764115      0.320544
    43     1      0.712431      0.943243      0.484032
    44     1      0.462205      0.694486      0.485165
    45     1      0.404467      0.544573      0.653327
    46     1      0.658650      0.793885      0.653160
    47     1      0.828622      0.898843      0.822400
    48     1      0.575941      0.649262      0.822898
ITEM: TIMESTEP
64050
ITEM: NUMBER OF ATOMS
48
ITEM: BOX BOUNDS xy xz yz  pp  pp  pp
     -0.003081      2.203080      0.000000
     -0.005336      3.815850      0.000000
     -0.007546      5.396420      0.000000
ITEM: ATOMS id type xs ys zs
     1     1      0.048787      0.988482      0.987199
     2     1      0.294924      0.237862      0.986424
     3     1      0.273038      0.408769      0.152032
     4     1      0.022029      0.160002      0.151217
     5     1      0.967217      0.015731      0.319673
     6     1      0.219537      0.263940      0.319374
     7     1      0.212033      0.442940      0.485223
     8     1      0.959851      0.194494      0.484662
     9     1      0.907070      0.044174      0.651671
    10     1      0.154095      0.294014      0.652796
    11     1      0.321691      0.400460      0.822080
    12     1      0.073329      0.149339      0.822071
    13     1      0.040431      0.487788      0.987330
    14     1      0.293816      0.737556      0.986976
    15     1      0.277950      0.909665      0.151516
    16     1      0.026560      0.658907      0.152619
    17     1      0.970855      0.514052      0.320711
    18     1      0.218273      0.765451      0.320237
    19     1      0.208095      0.943960      0.484624
    20     1      0.961539      0.692626      0.485155
    21     1      0.904574      0.543593      0.652458
    22     1      0.156368      0.794271      0.652833
    23     1      0.328292      0.899801      0.821686
    24     1      0.074204      0.649893      0.822178
    25     1      0.549274      0.988659      0.986211
    26     1      0.793023      0.238313      0.985747
    27     1      0.773217      0.410306      0.152443
    28     1      0.523906      0.160734      0.151994
    29     1      0.469743      0.015934      0.319796
    30     1      0.718757      0.265422      0.320133
    31     1      0.708286      0.444220      0.484469
    32     1      0.458719      0.192911      0.484228
    33     1      0.408185      0.042313      0.651142
    34     1      0.652313      0.294259      0.651604
    35     1      0.822375      0.399466      0.820592
    36     1      0.573396      0.149812      0.820668
    37     1      0.540802      0.488212      0.987583
    38     1      0.795459      0.738985      0.988103
    39     1      0.777082      0.908840      0.152516
    40     1      0.524666      0.660314      0.152717
    41     1      0.469544      0.514806      0.319629
    42     1      0.719513      0.764416      0.320913
    43     1      0.709128      0.942998      0.484638
    44     1      0.460566      0.693239      0.485685
    45     1      0.403852      0.544060      0.653626
    46     1      0.656897      0.793065      0.653132
    47     1      0.828524      0.898943      0.821689
    48     1      0.574774      0.649693      0.823043
ITEM: TIMESTEP
64100
ITEM: NUMBER OF ATOMS
48
ITEM: BOX BOUNDS xy xz yz  pp  pp  pp
     -0.003081      2.203080      0.000000
     -0.005336      3.815850      0.000000
     -0.007546      5.396420      0.000000
ITEM: ATOMS id type xs ys zs
     1     1      0.049239      0.989069      0.986832
     2     1      0.295584      0.237876      0.986707
     3     1      0.273083      0.408826      0.151975
     4     1      0.021313      0.159705      0.151373
     5     1      0.968085      0.015342      0.320553
     6     1      0.219708      0.264808      0.319336
     7     1      0.211514      0.442352      0.484604
     8     1      0.959056      0.193790      0.484684
     9     1      0.906635      0.043193      0.652246
    10     1      0.152253      0.294418      0.653215
    11     1      0.321776      0.400116      0.822284
    12     1      0.073648      0.149467      0.821546
    13     1      0.042801      0.488555      0.987146
    14     1      0.295059      0.738384      0.986651
    15     1      0.277179      0.909610      0.151558
    16     1      0.026851      0.659155      0.152166
    17     1      0.972512      0.513825      0.320084
    18     1      0.219456      0.765018      0.320114
    19     1      0.208528      0.943277      0.484991
    20     1      0.960487      0.692846      0.484879
    21     1      0.905943      0.542473      0.652330
    22     1      0.156853      0.794346      0.652775
    23     1      0.326120      0.899418      0.821904
    24     1      0.073156      0.649766      0.821690
    25     1      0.548766      0.988689      0.986585
    26     1      0.793610      0.238152      0.985966
    27     1      0.772858      0.410584      0.152224
    28     1      0.524674      0.159584      0.151575
    29     1      0.469987      0.015021      0.320348
    30     1      0.718370      0.264673      0.320257
    31     1      0.708953      0.443746      0.484815
    32     1      0.457934      0.192038      0.484676
    33     1      0.407347      0.042141      0.652437
    34     1      0.653426      0.293256      0.651800
    35     1      0.821079      0.399627      0.821323
    36     1      0.574002      0.148972      0.820766
    37     1      0.541674      0.489500      0.987797
    38     1      0.795955      0.739286      0.987566
    39     1      0.777636      0.909056      0.152597
    40     1      0.526395      0.660824      0.152294
    41     1      0.469839      0.514831      0.319874
    42     1      0.718337      0.765069      0.320819
    43     1      0.709191      0.942719      0.485707
    44     1      0.460302      0.693090      0.485446
    45     1      0.403681      0.544342      0.653250
    46     1      0.656916      0.792843      0.653151
    47     1      0.827818      0.899596      0.821573
    48     1      0.574326      0.649886      0.822464
ITEM: TIMESTEP
64150
ITEM: NUMBER OF ATOMS
48
ITEM: BOX BOUNDS xy xz yz  pp  pp  pp
     -0.003081      2.203080      0.000000
     -0.005336      3.815850      0.000000
     -0.007546      5.396420      0.000000
ITEM: ATOMS id type xs ys zs
     1     1      0.048364      0.988114      0.986749
     2     1      0.294547      0.239018      0.986680
     3     1      0.273654      0.409536      0.151811
     4     1      0.022921      0.159443      0.151732
     5     1      0.968726      0.014925      0.320356
     6     1      0.220890      0.264946      0.319677
     7     1      0.210649      0.442227      0.484865
     8     1      0.958110      0.193433      0.484308
     9     1      0.905348      0.042955      0.651899
    10     1      0.153720      0.293173      0.652984
    11     1      0.321845      0.399600      0.822342
    12     1      0.073189      0.149641      0.821404
    13     1      0.042378      0.488694      0.986963
    14     1      0.294894      0.738451      0.987159
    15     1      0.276607      0.909469      0.151643
    16     1      0.027300      0.660004      0.151775
    17     1      0.970429      0.514337      0.320498
    18     1      0.219141      0.765945      0.320309
    19     1      0.208317      0.942830      0.485161
    20     1      0.959317      0.693096      0.484567
    21     1      0.906111      0.542521      0.651966
    22     1      0.155613      0.793737      0.652493
    23     1      0.325848      0.899128      0.821825
    24     1      0.073261      0.650034      0.821851
    25     1      0.548547      0.988936      0.986870
    26     1      0.795909      0.238758      0.986196
    27     1      0.773342      0.410779      0.152969
    28     1      0.524618      0.160250      0.151990
    29     1      0.470578      0.015268      0.320359
    30     1      0.718806      0.264586      0.320154
    31     1      0.708491      0.443126      0.484792
    32     1      0.458172      0.191579      0.484751
    33     1      0.406436      0.040950      0.652229
    34     1      0.654196      0.292276      0.651965
    35     1      0.820485      0.399587      0.821073
    36     1      0.573266      0.149852      0.821103
    37     1      0.542341      0.489288      0.987730
    38     1      0.795711      0.739246      0.987512
    39     1      0.777851      0.910392      0.152347
    40     1      0.526897      0.660709      0.152573
    41     1      0.468723      0.514616      0.319948
    42     1      0.717787      0.765152      0.321079
    43     1      0.708416      0.942468      0.485226
    44     1      0.459298      0.693068      0.485780
    45     1      0.405022      0.543167      0.653404
    46     1      0.657392      0.791849      0.653126
    47     1      0.826811      0.899841      0.821794
    48     1      0.574175      0.649463      0.822822
ITEM: TIMESTEP
64200
ITEM: NUMBER OF ATOMS
48
ITEM: BOX BOUNDS xy xz yz  pp  pp  pp
     -0.003081      2.203080      0.000000
     -0.005336      3.815850      0.000000
     -0.007546      5.396420      0.000000
ITEM: ATOMS id type xs ys zs
     1     1      0.049199      0.988448      0.986723
     2     1      0.294174      0.239226      0.987036
     3     1      0.273791      0.410849      0.151775
     4     1      0.023794      0.160162      0.151604
     5     1      0.970379      0.015479      0.320776
     6     1      0.220792      0.264783      0.319151
     7     1      0.208802      0.441876      0.485264
     8     1      0.957213      0.192794      0.484502
     9     1      0.905732      0.043098      0.651944
    10     1      0.155109      0.292255      0.652296
    11     1      0.320831      0.399596      0.822216
    12     1      0.073775      0.149493      0.821490
    13     1      0.042917      0.488838      0.986802
    14     1      0.295941      0.738846      0.986912
    15     1      0.275185      0.910351      0.152026
    16     1      0.026848      0.660471      0.151738
    17     1      0.970027      0.514078      0.320162
    18     1      0.219969      0.766023      0.320164
    19     1      0.206716      0.942253      0.485193
    20     1      0.958046      0.692388      0.484493
    21     1      0.905559      0.542380      0.652228
    22     1      0.155739      0.793421      0.653111
    23     1      0.325693      0.899808      0.822099
    24     1      0.074890      0.649869      0.821460
    25     1      0.547920      0.988887      0.987078
    26     1      0.794273      0.239456      0.986416
    27     1      0.774744      0.410610      0.152417
    28     1      0.525438      0.160766      0.152237
    29     1      0.471071      0.014454      0.319823
    30     1      0.719134      0.264379      0.319885
    31     1      0.706719      0.442658      0.485039
    32     1      0.457386      0.191783      0.484730
    33     1      0.407377      0.041464      0.652665
    34     1      0.655422      0.292989      0.651362
    35     1      0.821066      0.399402      0.821320
    36     1      0.572103      0.149933      0.821629
    37     1      0.543833      0.488762      0.987066
    38     1      0.795483      0.738704      0.987192
    39     1      0.777043      0.910972      0.152572
    40     1      0.526881      0.660650      0.152512
    41     1      0.469193      0.514735      0.320003
    42     1      0.719541      0.765299      0.320104
    43     1      0.710379      0.941623      0.484917
    44     1      0.458585      0.693413      0.485814
    45     1      0.405889      0.542748      0.653143
    46     1      0.657119      0.791537      0.652801
    47     1      0.826367      0.899560      0.821694
    48     1      0.573799      0.649910      0.822284
ITEM: TIMESTEP
64250
ITEM: NUMBER OF ATOMS
48
ITEM: BOX BOUNDS xy xz yz  pp  pp  pp
     -0.003081      2.203080      0.000000
     -0.005336      3.815850      0.000000
     -0.007546      5.396420      0.000000
ITEM: ATOMS id type xs ys zs
     1     1      0.048533      0.989134      0.986476
     2     1      0.294650      0.239639      0.986878
     3     1      0.275221      0.411339      0.151491
     4     1      0.025776      0.160593      0.151233
     5     1      0.969514      0.015703      0.320397
     6     1      0.220415      0.265150      0.319449
     7     1      0.208653      0.441741      0.485216
     8     1      0.957657      0.192803      0.484293
     9     1      0.906747      0.042469      0.651956
    10     1      0.156173      0.291472      0.652378
    11     1      0.320024      0.400032      0.821836
    12     1      0.073024      0.149580      0.821377
    13     1      0.043924      0.488823      0.986371
    14     1      0.296008      0.739448      0.987071
    15     1      0.276390      0.910604      0.151795
    16     1      0.027051      0.660281      0.151645
    17     1      0.971190      0.514663      0.320214
    18     1      0.219752      0.765774      0.320050
    19     1      0.208286      0.941908      0.485203
    20     1      0.957749      0.692328      0.485219
    21     1      0.905256      0.541996      0.652939
    22     1      0.155516      0.792060      0.653076
    23     1      0.325523      0.900652      0.821874
    24     1      0.074112      0.650253      0.821621
    25     1      0.547722      0.989718      0.987391
    26     1      0.794859      0.239710      0.986516
    27     1      0.775990      0.410294      0.152037
    28     1      0.525354      0.161065      0.152614
    29     1      0.470378      0.014778      0.320426
    30     1      0.719038      0.265602      0.319737
    31     1      0.706712      0.442044      0.484610
    32     1      0.457167      0.191720      0.484960
    33     1      0.406908      0.040989      0.652038
    34     1      0.655697      0.292340      0.651542
    35     1      0.820605      0.400155      0.821671
    36     1      0.571845      0.150685      0.821237
    37     1      0.544362      0.489720      0.986976
    38     1      0.795883      0.739743      0.987263
    39     1      0.776091      0.910771      0.152714
    40     1      0.525034      0.660770      0.152604
    41     1      0.468533      0.515129      0.320469
    42     1      0.719566      0.764972      0.320154
    43     1      0.709176      0.940934      0.484524
    44     1      0.456990      0.692269      0.485815
    45     1      0.405617      0.541845      0.652657
    46     1      0.657162      0.791253      0.653081
    47     1      0.825069      0.899829      0.821013
    48     1      0.573213      0.649934      0.822224
ITEM: TIMESTEP
64300
ITEM: NUMBER OF ATOMS
48
ITEM: BOX BOUNDS xy xz yz  pp  pp  pp
     -0.003081      2.203080      0.000000
     -0.005336      3.815850      0.000000
     -0.007546      5.396420      0.000000
ITEM: ATOMS id type xs ys zs
     1     1      0.047978      0.989094      0.986879
     2     1      0.295128      0.240150      0.987128
     3     1      0.276555      0.411895      0.151624
     4     1      0.026284      0.161403      0.151122
     5     1      0.970216      0.015456      0.320031
     6     1      0.221383      0.264669      0.319580
     7     1      0.207490      0.440866      0.485471
     8     1      0.957994      0.191280      0.484634
     9     1      0.906429      0.042026      0.652360
    10     1      0.156690      0.291271      0.652927
    11     1      0.318851      0.400430      0.822247
    12     1      0.071844      0.149380      0.821943
    13     1      0.044533      0.490043      0.986553
    14     1      0.295132      0.739028      0.987467
    15     1      0.278585      0.910750      0.151740
    16     1      0.026158      0.660283      0.151476
    17     1      0.970329      0.514217      0.319928
    18     1      0.219418      0.765125      0.319751
    19     1      0.207487      0.941167      0.484794
    20     1      0.957841      0.691686      0.485147
    21     1      0.906614      0.541397      0.652873
    22     1      0.156193      0.791827      0.652932
    23     1      0.323162      0.900047      0.822102
    24     1      0.073737      0.650394      0.821823
    25     1      0.548279      0.989228      0.986931
    26     1      0.794923      0.240476      0.986234
    27     1      0.775928      0.410836      0.151553
    28     1      0.526374      0.161807      0.151921
    29     1      0.470299      0.015182      0.320257
    30     1      0.719701      0.265277      0.319644
    31     1      0.708055      0.441196      0.485049
    32     1      0.456732      0.190683      0.485012
    33     1      0.407591      0.041118      0.652332
    34     1      0.655322      0.291269      0.652427
    35     1      0.820366      0.400503      0.821554
    36     1      0.571761      0.150441      0.821340
    37     1      0.544128      0.489851      0.986656
    38     1      0.794856      0.739621      0.987139
    39     1      0.777020      0.910671      0.152660
    40     1      0.525559      0.660622      0.152429
    41     1      0.468839      0.515246      0.320664
    42     1      0.719343      0.764390      0.320298
    43     1      0.709170      0.941517      0.485130
    44     1      0.457897      0.691305      0.485069
    45     1      0.406485      0.542053      0.652196
    46     1      0.657684      0.790460      0.652515
    47     1      0.824830      0.899935      0.821500
    48     1      0.572705      0.650274      0.821898
ITEM: TIMESTEP
64350
ITEM: NUMBER OF ATOMS
48
ITEM: BOX BOUNDS xy xz yz  pp  pp  pp
     -0.003081      2.203080      0.000000
     -0.005336      3.815850      0.000000
     -0.007546      5.396420      0.000000
ITEM: ATOMS id type xs ys zs
     1     1      0.046614      0.989970      0.986533
     2     1      0.295112      0.240961      0.986901
     3     1      0.276496      0.411543      0.151903
     4     1      0.026479      0.161045      0.151372
     5     1      0.971832      0.015788      0.319500
     6     1      0.221519      0.264757      0.319669
     7     1      0.207699      0.440834      0.484934
     8     1      0.958864      0.191336      0.485412
     9     1      0.906478      0.040867      0.652334
    10     1      0.156902      0.290951      0.652705
    11     1      0.318980      0.401138      0.822190
    12     1      0.071331      0.149534      0.821921
    13     1      0.046132      0.490543      0.986630
    14     1      0.295288      0.739851      0.987928
    15     1      0.278514      0.912048      0.151709
    16     1      0.026591      0.660897      0.151799
    17     1      0.969846      0.514597      0.319369
    18     1      0.220435      0.765458      0.319951
    19     1      0.207588      0.941237      0.485439
    20     1      0.958143      0.690723      0.484897
    21     1      0.906171      0.540806      0.653071
    22     1      0.157369      0.791970      0.653145
    23     1      0.324092      0.899774      0.822411
    24     1      0.072838      0.650970      0.822245
    25     1      0.547775      0.990209      0.987077
    26     1      0.795564      0.240393      0.986511
    27     1      0.776475      0.411425      0.151389
    28     1      0.527392      0.161621      0.151799
    29     1      0.470562      0.014984      0.319815
    30     1      0.721422      0.265329      0.319888
    31     1      0.708181      0.440741      0.485231
    32     1      0.457691      0.190941      0.484908
    33     1      0.406993      0.040410      0.652284
    34     1      0.655994      0.291232      0.652320
    35     1      0.820672      0.400145      0.821980
    36     1      0.571684      0.151489      0.821526
    37     1      0.545078      0.490331      0.986826
    38     1      0.795415      0.739828      0.987066
    39     1      0.777648      0.911238      0.152543
    40     1      0.526689      0.661223      0.152286
    41     1      0.469834      0.515880      0.320328
    42     1      0.719729      0.765036      0.319847
    43     1      0.709268      0.940927      0.485110
    44     1      0.457984      0.691031      0.485507
    45     1      0.405608      0.541876      0.653122
    46     1      0.657565      0.790461      0.652316
    47     1      0.823339      0.900503      0.821473
    48     1      0.572081      0.650262      0.822344
ITEM: TIMESTEP
64400
ITEM: NUMBER OF ATOMS
48
ITEM: BOX BOUNDS xy xz yz  pp  pp  pp
     -0.003081      2.203080      0.000000
     -0.005336      3.815850      0.000000
     -0.007546      5.396420      0.000000
ITEM: ATOMS id type xs ys zs
     1     1      0.047144      0.990322      0.986502
     2     1      0.294820      0.240173      0.986715
     3     1      0.276873      0.411476      0.151732
     4     1      0.025824      0.161221      0.151550
     5     1      0.970895      0.015747      0.319734
     6     1      0.220006      0.263860      0.319540
     7     1      0.208884      0.440881      0.484581
     8     1      0.958080      0.191497      0.484881
     9     1      0.906076      0.040850      0.652641
    10     1      0.156582      0.290692      0.652905
    11     1      0.319783      0.401121      0.822042
    12     1      0.070420      0.150636      0.822115
    13     1      0.044637      0.490811      0.986879
    14     1      0.295123      0.740465      0.987833
    15     1      0.277218      0.911105      0.152354
    16     1      0.026928      0.661612      0.151770
    17     1      0.970658      0.515603      0.319456
    18     1      0.220680      0.765083      0.320485
    19     1      0.206733      0.940725      0.484881
    20     1      0.957735      0.690625      0.484992
    21     1      0.906560      0.540331      0.652651
    22     1      0.157771      0.790763      0.652632
    23     1      0.322423      0.900325      0.822655
    24     1      0.070452      0.650563      0.822404
    25     1      0.548104      0.990586      0.987216
    26     1      0.796245      0.240229      0.986538
    27     1      0.777489      0.412010      0.151092
    28     1      0.526110      0.161454      0.151720
    29     1      0.471225      0.015626      0.319968
    30     1      0.719444      0.265357      0.320326
    31     1      0.707805      0.440756      0.485123
    32     1      0.457684      0.191301      0.485303
    33     1      0.405535      0.040453      0.652291
    34     1      0.655542      0.290934      0.652863
    35     1      0.819759      0.400875      0.821934
    36     1      0.569045      0.151001      0.821597
    37     1      0.545503      0.490609      0.986855
    38     1      0.794773      0.741516      0.987315
    39     1      0.777803      0.911717      0.152410
    40     1      0.527006      0.661649      0.152639
    41     1      0.469660      0.515221      0.320216
    42     1      0.721224      0.765311      0.319842
    43     1      0.707340      0.940780      0.484860
    44     1      0.457172      0.691342      0.485244
    45     1      0.406019      0.541100      0.652994
    46     1      0.656921      0.790677      0.652858
    47     1      0.822985      0.901409      0.821747
    48     1      0.571081      0.651254      0.822275
ITEM: TIMESTEP
64450
ITEM: NUMBER OF ATOMS
48
ITEM: BOX BOUNDS xy xz yz  pp  pp  pp
     -0.003081      2.203080      0.000000
     -0.005336      3.815850      0.000000
     -0.007546      5.396420      0.000000
ITEM: ATOMS id type xs ys zs
     1     1      0.047820      0.990499      0.986620
     2     1      0.294355      0.240509      0.987141
     3     1      0.276540      0.412488      0.151949
     4     1      0.026362      0.160897      0.151356
     5     1      0.970671      0.015853      0.319992
     6     1      0.220627      0.263544      0.319690
     7     1      0.208336      0.440216      0.484924
     8     1      0.959207      0.190781      0.484703
     9     1      0.907405      0.040296      0.652305
    10     1      0.157083      0.289282      0.652797
    11     1      0.318978      0.400839      0.821636
    12     1      0.069646      0.150488      0.821828
    13     1      0.044498      0.490893      0.986385
    14     1      0.294460      0.740893      0.987444
    15     1      0.276913      0.910539      0.151840
    16     1      0.027998      0.661962      0.151636
    17     1      0.970354      0.515765      0.320246
    18     1      0.221209      0.765107      0.320588
    19     1      0.206483      0.940303      0.484778
    20     1      0.958486      0.690485      0.484965
    21     1      0.906597      0.540140      0.652701
    22     1      0.157415      0.790037      0.652780
    23     1      0.321200      0.900955      0.822032
    24     1      0.069381      0.651243      0.822388
    25     1      0.547727      0.991050      0.988167
    26     1      0.794394      0.240084      0.986713
    27     1      0.776918      0.411863      0.151763
    28     1      0.525672      0.162017      0.152044
    29     1      0.472170      0.015186      0.319524
    30     1      0.719045      0.265031      0.320123
    31     1      0.707700      0.440620      0.484737
    32     1      0.458118      0.190030      0.485231
    33     1      0.406635      0.039653      0.652435
    34     1      0.656092      0.290242      0.652482
    35     1      0.819329      0.401318      0.821556
    36     1      0.568267      0.151218      0.821962
    37     1      0.546391      0.490402      0.986853
    38     1      0.795555      0.741586      0.986897
    39     1      0.778262      0.911466      0.152399
    40     1      0.528267      0.661610      0.152292
    41     1      0.469409      0.514705      0.319989
    42     1      0.720474      0.766047      0.320577
    43     1      0.707597      0.940188      0.485090
    44     1      0.456920      0.689519      0.484974
    45     1      0.406603      0.540771      0.653099
    46     1      0.656729      0.790328      0.652493
    47     1      0.821380      0.901338      0.822075
    48     1      0.569453      0.651075      0.822405
ITEM: TIMESTEP
64500
ITEM: NUMBER OF ATOMS
48
ITEM: BOX BOUNDS xy xz yz  pp  pp  pp
     -0.003081      2.203080      0.000000
     -0.005336      3.815850      0.000000
     -0.007546      5.396420      0.000000
ITEM: ATOMS id type xs ys zs
     1     1      0.047336      0.991298      0.986609
     2     1      0.295597      0.241313      0.986860
     3     1      0.275808      0.412765      0.151187
     4     1      0.028113      0.161091      0.151759
     5     1      0.972525      0.016082      0.320268
     6     1      0.221844      0.265147      0.319241
     7     1      0.208549      0.439449      0.484976
     8     1      0.956560      0.190108      0.485156
     9     1      0.908237      0.040351      0.652338
    10     1      0.157983      0.289014      0.652059
    11     1      0.319031      0.400479      0.821718
    12     1      0.069424      0.151237      0.821907
    13     1      0.045220      0.491017      0.986709
    14     1      0.294145      0.740716      0.987673
    15     1      0.278653      0.911604      0.152057
    16     1      0.027789      0.662014      0.151909
    17     1      0.969954      0.514576      0.320105