ITEM: TIMESTEP
64001
ITEM: NUMBER OF ATOMS
48
ITEM: BOX BOUNDS xy xz yz  pp  pp  pp
     -0.003081      2.203080      0.000000
     -0.005336      3.815850      0.000000
     -0.007546      5.396420      0.000000
ITEM: ATOMS id type xs ys zs
     1     1      0.048684      0.988256      0.986925
     2     1      0.293020      0.237160      0.986196
     3     1      0.272451      0.408597      0.151635
     4     1      0.022436      0.159496      0.150389
     5     1      0.967211      0.015582      0.319050
     6     1      0.220627      0.262925      0.318734
     7     1      0.212010      0.443189      0.485035
     8     1      0.959256      0.195642      0.485224
     9     1      0.908023      0.044635      0.651788
    10     1      0.153822      0.294613      0.653619
    11     1      0.322807      0.400909      0.822714
    12     1      0.073640      0.149361      0.821765
    13     1      0.038937      0.487084      0.987077
    14     1      0.292520      0.735869      0.986903
    15     1      0.277824      0.908507      0.151303
    16     1      0.026215      0.657870      0.152735
    17     1      0.972192      0.513317      0.320836
    18     1      0.218943      0.764601      0.319871
    19     1      0.208852      0.943876      0.484379
    20     1      0.963836      0.693082      0.485615
    21     1      0.904846      0.544252      0.652419
    22     1      0.157463      0.794794      0.653287
    23     1      0.329725      0.899265      0.821589
    24     1      0.073571      0.649153      0.821807
    25     1      0.549127      0.987187      0.986205
    26     1      0.791116      0.238033      0.985465
    27     1      0.772883      0.410089      0.153108
    28     1      0.523814      0.159570      0.151567
    29     1      0.467916      0.015831      0.319735
    30     1      0.720976      0.265132      0.320196
    31     1      0.709831      0.444879      0.484565
    32     1      0.458892      0.193564      0.484221
    33     1      0.409307      0.042755      0.650888
    34     1      0.651718      0.294954      0.651404
    35     1      0.823483      0.399442      0.820516
    36     1      0.572390      0.150257      0.820126
    37     1      0.542214      0.488313      0.987989
    38     1      0.793941      0.737937      0.988914
    39     1      0.776601      0.909086      0.152412
    40     1      0.525799      0.659904      0.152710
    41     1      0.469574      0.513601      0.319475
    42     1      0.720703      0.763947      0.320525
    43     1      0.712086      0.943364      0.483885
    44     1      0.462239      0.694601      0.485078
    45     1      0.404698      0.544688      0.653266
    46     1      0.658512      0.793972      0.653139
    47     1      0.828860      0.898830      0.822489
    48     1      0.575758      0.649217      0.822910
ITEM: TIMESTEP
64050
ITEM: NUMBER OF ATOMS
48
ITEM: BOX BOUNDS xy xz yz  pp  pp  pp
     -0.003081      2.203080      0.000000
     -0.005336      3.815850      0.000000
     -0.007546      5.396420      0.000000
ITEM: ATOMS id type xs ys zs
     1     1      0.049202      0.988247      0.986790
     2     1      0.292715      0.238078      0.986309
     3     1      0.272799      0.409136      0.151360
     4     1      0.023029      0.160182      0.151056
     5     1      0.968365      0.015401      0.319425
     6     1      0.221407      0.263697      0.319013
     7     1      0.211180      0.443545      0.484990
     8     1      0.959181      0.194249      0.485292
     9     1      0.907163      0.043539      0.651586
    10     1      0.154621      0.294090      0.653360
    11     1      0.322659      0.400375      0.822622
    12     1      0.072664      0.149719      0.821336
    13     1      0.038327      0.487892      0.986897
    14     1      0.292443      0.736676      0.986695
    15     1      0.277401      0.908737      0.151370
    16     1      0.027035      0.658460      0.152894
    17     1      0.972503      0.513590      0.320115
    18     1      0.220820      0.764741      0.318966
    19     1      0.207972      0.943344      0.484499
    20     1      0.963560      0.693152      0.484694
    21     1      0.905266      0.543247      0.652684
    22     1      0.156018      0.794444      0.653306
    23     1      0.327781      0.899174      0.820956
    24     1      0.073561      0.649042      0.821632
    25     1      0.548363      0.987561      0.986402
    26     1      0.792175      0.238216      0.986025
    27     1      0.772717      0.409997      0.152873
    28     1      0.525212      0.159725      0.151662
    29     1      0.467776      0.015039      0.319815
    30     1      0.721481      0.264164      0.320387
    31     1      0.709263      0.444219      0.484030
    32     1      0.457937      0.192822      0.484508
    33     1      0.408309      0.042315      0.650605
    34     1      0.653364      0.294096      0.651242
    35     1      0.821820      0.399922      0.820977
    36     1      0.572252      0.149560      0.820499
    37     1      0.541156      0.488475      0.987910
    38     1      0.792801      0.738195      0.988430
    39     1      0.776888      0.910132      0.152211
    40     1      0.525177      0.659458      0.152292
    41     1      0.470855      0.513314      0.319376
    42     1      0.721941      0.764401      0.320074
    43     1      0.710733      0.942510      0.484365
    44     1      0.461650      0.693972      0.484794
    45     1      0.404300      0.544041      0.652802
    46     1      0.657644      0.793592      0.653013
    47     1      0.827167      0.900044      0.822653
    48     1      0.575057      0.649745      0.822763
ITEM: TIMESTEP
64100
ITEM: NUMBER OF ATOMS
48
ITEM: BOX BOUNDS xy xz yz  pp  pp  pp
     -0.003081      2.203080      0.000000
     -0.005336      3.815850      0.000000
     -0.007546      5.396420      0.000000
ITEM: ATOMS id type xs ys zs
     1     1      0.048671      0.988695      0.986431
     2     1      0.293475      0.239272      0.985947
     3     1      0.274787      0.409869      0.151178
     4     1      0.025043      0.161300      0.151246
     5     1      0.969213      0.014519      0.318910
     6     1      0.219806      0.263915      0.319196
     7     1      0.210105      0.443649      0.485027
     8     1      0.959968      0.193604      0.484695
     9     1      0.907717      0.043288      0.651911
    10     1      0.155457      0.293249      0.653072
    11     1      0.321765      0.400553      0.822414
    12     1      0.072234      0.149922      0.821748
    13     1      0.040565      0.488074      0.987053
    14     1      0.293587      0.736625      0.986755
    15     1      0.278051      0.909673      0.150818
    16     1      0.026535      0.659660      0.152408
    17     1      0.970998      0.513375      0.319979
    18     1      0.220410      0.765246      0.319237
    19     1      0.208944      0.943653      0.484123
    20     1      0.962633      0.693154      0.485093
    21     1      0.905410      0.543618      0.652189
    22     1      0.156096      0.793497      0.653234
    23     1      0.326919      0.900068      0.821066
    24     1      0.072909      0.649147      0.821801
    25     1      0.547784      0.987566      0.986047
    26     1      0.793045      0.237963      0.986548
    27     1      0.773737      0.410529      0.152139
    28     1      0.524589      0.160835      0.151717
    29     1      0.469005      0.014106      0.319665
    30     1      0.720789      0.263556      0.320198
    31     1      0.709301      0.443455      0.484496
    32     1      0.459498      0.192931      0.484111
    33     1      0.406274      0.041951      0.651453
    34     1      0.655145      0.293585      0.651631
    35     1      0.820870      0.399941      0.821138
    36     1      0.572872      0.149608      0.820570
    37     1      0.540305      0.488624      0.987673
    38     1      0.792842      0.738141      0.987897
    39     1      0.777068      0.910194      0.151978
    40     1      0.525347      0.660261      0.152485
    41     1      0.470504      0.513921      0.319325
    42     1      0.722373      0.763614      0.319655
    43     1      0.709077      0.942543      0.484287
    44     1      0.460591      0.693841      0.484508
    45     1      0.405860      0.544006      0.652903
    46     1      0.657328      0.793291      0.653085
    47     1      0.826650      0.899078      0.822420
    48     1      0.574604      0.650877      0.822158
ITEM: TIMESTEP
64150
ITEM: NUMBER OF ATOMS
48
ITEM: BOX BOUNDS xy xz yz  pp  pp  pp
     -0.003081      2.203080      0.000000
     -0.005336      3.815850      0.000000
     -0.007546      5.396420      0.000000
ITEM: ATOMS id type xs ys zs
     1     1      0.049150      0.988684      0.986784
     2     1      0.294837      0.238734      0.986837
     3     1      0.274157      0.410514      0.151427
     4     1      0.025818      0.161113      0.150853
     5     1      0.969138      0.013960      0.319052
     6     1      0.220272      0.264366      0.319167
     7     1      0.210486      0.443308      0.485342
     8     1      0.958792      0.192815      0.485238
     9     1      0.907455      0.042101      0.652017
    10     1      0.155453      0.292517      0.652971
    11     1      0.322379      0.400722      0.821664
    12     1      0.070335      0.150156      0.821284
    13     1      0.040705      0.488792      0.986824
    14     1      0.293378      0.737994      0.986016
    15     1      0.278327      0.909962      0.150674
    16     1      0.024826      0.659902      0.152114
    17     1      0.972449      0.513044      0.320113
    18     1      0.221177      0.764900      0.318864
    19     1      0.208517      0.943219      0.483887
    20     1      0.961936      0.692753      0.484488
    21     1      0.905436      0.542399      0.652105
    22     1      0.155932      0.791751      0.652532
    23     1      0.325976      0.900631      0.821438
    24     1      0.071706      0.649943      0.821751
    25     1      0.547655      0.988803      0.986638
    26     1      0.794889      0.239069      0.986151
    27     1      0.774493      0.410101      0.152207
    28     1      0.526577      0.159875      0.151836
    29     1      0.469546      0.014121      0.319284
    30     1      0.718602      0.263621      0.319672
    31     1      0.708858      0.442485      0.484209
    32     1      0.458741      0.192347      0.484065
    33     1      0.407032      0.042088      0.651854
    34     1      0.656268      0.292891      0.651423
    35     1      0.821671      0.400902      0.820903
    36     1      0.573576      0.150358      0.821077
    37     1      0.542038      0.488238      0.986905
    38     1      0.793305      0.738951      0.987112
    39     1      0.776672      0.909979      0.151928
    40     1      0.524558      0.660548      0.152432
    41     1      0.471839      0.513815      0.319121
    42     1      0.721974      0.763845      0.319628
    43     1      0.709018      0.941756      0.484383
    44     1      0.460298      0.693199      0.484541
    45     1      0.406512      0.543585      0.652893
    46     1      0.657598      0.792972      0.652326
    47     1      0.825380      0.900406      0.822638
    48     1      0.572168      0.651472      0.822248
ITEM: TIMESTEP
64200
ITEM: NUMBER OF ATOMS
48
ITEM: BOX BOUNDS xy xz yz  pp  pp  pp
     -0.003081      2.203080      0.000000
     -0.005336      3.815850      0.000000
     -0.007546      5.396420      0.000000
ITEM: ATOMS id type xs ys zs
     1     1      0.048073      0.989164      0.986893
     2     1      0.295439      0.239072      0.986432
     3     1      0.274983      0.410462      0.151706
     4     1      0.028141      0.160988      0.150527
     5     1      0.969672      0.014346      0.318678
     6     1      0.219816      0.263646      0.319030
     7     1      0.210082      0.441954      0.484543
     8     1      0.957532      0.192297      0.484632
     9     1      0.907341      0.041461      0.651768
    10     1      0.157297      0.292710      0.652476
    11     1      0.321443      0.400438      0.821557
    12     1      0.070616      0.149915      0.820755
    13     1      0.041249      0.489655      0.986522
    14     1      0.293225      0.739134      0.986593
    15     1      0.277736      0.910571      0.151287
    16     1      0.025514      0.661202      0.152238
    17     1      0.973947      0.513563      0.319131
    18     1      0.221820      0.764932      0.319592
    19     1      0.206770      0.942424      0.484491
    20     1      0.960908      0.692041      0.484466
    21     1      0.905471      0.542211      0.651961
    22     1      0.156767      0.791651      0.652791
    23     1      0.324369      0.900819      0.821388
    24     1      0.071275      0.649527      0.821650
    25     1      0.546268      0.989056      0.985995
    26     1      0.794568      0.239318      0.986538
    27     1      0.774636      0.411209      0.152149
    28     1      0.527021      0.160976      0.151808
    29     1      0.470053      0.014090      0.319014
    30     1      0.720105      0.264039      0.319978
    31     1      0.708411      0.442974      0.483756
    32     1      0.457235      0.191893      0.484299
    33     1      0.405720      0.041351      0.651932
    34     1      0.657312      0.292372      0.651649
    35     1      0.820882      0.400845      0.821025
    36     1      0.573275      0.150842      0.820990
    37     1      0.542804      0.489583      0.986615
    38     1      0.794554      0.739363      0.987114
    39     1      0.777183      0.911196      0.151761
    40     1      0.526507      0.660339      0.151597
    41     1      0.471722      0.513854      0.318797
    42     1      0.721537      0.764016      0.319635
    43     1      0.707994      0.942233      0.484592
    44     1      0.460355      0.692123      0.484713
    45     1      0.405408      0.542676      0.653092
    46     1      0.658222      0.792445      0.652693
    47     1      0.824333      0.900486      0.822385
    48     1      0.571407      0.651527      0.822248
ITEM: TIMESTEP
64250
ITEM: NUMBER OF ATOMS
48
ITEM: BOX BOUNDS xy xz yz  pp  pp  pp
     -0.003081      2.203080      0.000000
     -0.005336      3.815850      0.000000
     -0.007546      5.396420      0.000000
ITEM: ATOMS id type xs ys zs
     1     1      0.048524      0.988969      0.986014
     2     1      0.295654      0.239195      0.986361
     3     1      0.274933      0.411293      0.151383
     4     1      0.028286      0.161085      0.150402
     5     1      0.968895      0.014829      0.318920
     6     1      0.219731      0.264024      0.318789
     7     1      0.210467      0.442030      0.484785
     8     1      0.957674      0.192012      0.484987
     9     1      0.907133      0.042556      0.652013
    10     1      0.157771      0.291465      0.652239
    11     1      0.321050      0.400114      0.821659
    12     1      0.070899      0.150168      0.821480
    13     1      0.041457      0.488527      0.986951
    14     1      0.293601      0.738931      0.987028
    15     1      0.277690      0.910988      0.151501
    16     1      0.026625      0.662339      0.152499
    17     1      0.973922      0.513802      0.318903
    18     1      0.221343      0.764684      0.320332
    19     1      0.206639      0.942345      0.484734
    20     1      0.959689      0.691944      0.484444
    21     1      0.906006      0.542058      0.651805
    22     1      0.155991      0.791473      0.652457
    23     1      0.324105      0.899926      0.821509
    24     1      0.072016      0.649709      0.821080
    25     1      0.547386      0.990179      0.986676
    26     1      0.795654      0.239437      0.985953
    27     1      0.775434      0.412111      0.151913
    28     1      0.527683      0.161358      0.151813
    29     1      0.470194      0.014396      0.319749
    30     1      0.720970      0.265156      0.320211
    31     1      0.708761      0.442609      0.484459
    32     1      0.456486      0.191034      0.484262
    33     1      0.405666      0.041271      0.652094
    34     1      0.657099      0.291304      0.651214
    35     1      0.821302      0.400676      0.821392
    36     1      0.572672      0.150800      0.820882
    37     1      0.543886      0.489513      0.986379
    38     1      0.795169      0.739418      0.987346
    39     1      0.776572      0.911737      0.151813
    40     1      0.527135      0.660724      0.151256
    41     1      0.472321      0.513878      0.319326
    42     1      0.721775      0.764289      0.319581
    43     1      0.709773      0.941574      0.483967
    44     1      0.459462      0.692608      0.484842
    45     1      0.404811      0.542739      0.652797
    46     1      0.656827      0.791734      0.652462
    47     1      0.824199      0.900457      0.821782
    48     1      0.572173      0.651527      0.822140
ITEM: TIMESTEP
64300
ITEM: NUMBER OF ATOMS
48
ITEM: BOX BOUNDS xy xz yz  pp  pp  pp
     -0.003081      2.203080      0.000000
     -0.005336      3.815850      0.000000
     -0.007546      5.396420      0.000000
ITEM: ATOMS id type xs ys zs
     1     1      0.048554      0.989759      0.986156
     2     1      0.294870      0.239558      0.986402
     3     1      0.275323      0.411144      0.151098
     4     1      0.028876      0.160746      0.150994
     5     1      0.971337      0.015349      0.319415
     6     1      0.220963      0.264223      0.319503
     7     1      0.209789      0.441858      0.484565
     8     1      0.958157      0.191858      0.484462
     9     1      0.906165      0.041867      0.652416
    10     1      0.159291      0.290792      0.652571
    11     1      0.319957      0.400997      0.822017
    12     1      0.071482      0.149630      0.821417
    13     1      0.043337      0.489687      0.986611
    14     1      0.293426      0.739228      0.986747
    15     1      0.277824      0.911630      0.150906
    16     1      0.027826      0.661558      0.152396
    17     1      0.972704      0.513930      0.319318
    18     1      0.219747      0.765058      0.320452
    19     1      0.206099      0.941482      0.484915
    20     1      0.958097      0.690847      0.484244
    21     1      0.905675      0.541398      0.651616
    22     1      0.156824      0.790676      0.652115
    23     1      0.323101      0.900260      0.821497
    24     1      0.070439      0.650103      0.821606
    25     1      0.547424      0.990643      0.986442
    26     1      0.795516      0.239163      0.985896
    27     1      0.775572      0.411820      0.151594
    28     1      0.527532      0.161090      0.151627
    29     1      0.470170      0.014420      0.319476
    30     1      0.720421      0.265307      0.320253
    31     1      0.707684      0.442614      0.484295
    32     1      0.459088      0.190598      0.484689
    33     1      0.405006      0.040114      0.652053
    34     1      0.656932      0.291074      0.651665
    35     1      0.819777      0.400609      0.821689
    36     1      0.571314      0.149807      0.821123
    37     1      0.544921      0.488860      0.986747
    38     1      0.794956      0.740144      0.986967
    39     1      0.776834      0.911614      0.151621
    40     1      0.527287      0.661708      0.151059
    41     1      0.471572      0.514150      0.319006
    42     1      0.721423      0.764221      0.319231
    43     1      0.708822      0.941364      0.483870
    44     1      0.458513      0.692250      0.484735
    45     1      0.405879      0.541685      0.652744
    46     1      0.656704      0.791428      0.652744
    47     1      0.821841      0.900901      0.821958
    48     1      0.571756      0.651033      0.822129
ITEM: TIMESTEP
64350
ITEM: NUMBER OF ATOMS
48
ITEM: BOX BOUNDS xy xz yz  pp  pp  pp
     -0.003081      2.203080      0.000000
     -0.005336      3.815850      0.000000
     -0.007546      5.396420      0.000000
ITEM: ATOMS id type xs ys zs
     1     1      0.046621      0.990391      0.986069
     2     1      0.295111      0.239374      0.986570
     3     1      0.276641      0.411260      0.151777
     4     1      0.027103      0.161310      0.151164
     5     1      0.971860      0.015727      0.319547
     6     1      0.221635      0.264127      0.319289
     7     1      0.208261      0.441787      0.484492
     8     1      0.958086      0.191431      0.484358
     9     1      0.905997      0.040631      0.652221
    10     1      0.158419      0.291219      0.651799
    11     1      0.319189      0.401729      0.821843
    12     1      0.071720      0.150686      0.821367
    13     1      0.044920      0.490115      0.986938
    14     1      0.294338      0.739258      0.986288
    15     1      0.277671      0.911748      0.150873
    16     1      0.027747      0.662073      0.152228
    17     1      0.970909      0.514272      0.319875
    18     1      0.219666      0.765140      0.320323
    19     1      0.205968      0.941464      0.484743
    20     1      0.956881      0.691027      0.484810
    21     1      0.906148      0.541040      0.651648
    22     1      0.156948      0.790839      0.652418
    23     1      0.321322      0.900402      0.821979
    24     1      0.070965      0.650316      0.821400
    25     1      0.547906      0.990720      0.986486
    26     1      0.797421      0.239903      0.985799
    27     1      0.775476      0.411339      0.151698
    28     1      0.527807      0.161450      0.151174
    29     1      0.470447      0.014855      0.319725
    30     1      0.719242      0.265117      0.320205
    31     1      0.706539      0.440773      0.484481
    32     1      0.457496      0.190808      0.484921
    33     1      0.406700      0.039235      0.652674
    34     1      0.656358      0.291257      0.651845
    35     1      0.819214      0.400080      0.821319
    36     1      0.570584      0.150438      0.821140
    37     1      0.544904      0.489306      0.986391
    38     1      0.794815      0.740525      0.986934
    39     1      0.776873      0.911570      0.151829
    40     1      0.526069      0.661290      0.150732
    41     1      0.472117      0.514997      0.319171
    42     1      0.719922      0.764151      0.319721
    43     1      0.707674      0.941615      0.484464
    44     1      0.457234      0.691892      0.485021
    45     1      0.408062      0.541306      0.652213
    46     1      0.657399      0.790575      0.652718
    47     1      0.822499      0.901353      0.822421
    48     1      0.570117      0.651074      0.821966
ITEM: TIMESTEP
64400
ITEM: NUMBER OF ATOMS
48
ITEM: BOX BOUNDS xy xz yz  pp  pp  pp
     -0.003081      2.203080      0.000000
     -0.005336      3.815850      0.000000
     -0.007546      5.396420      0.000000
ITEM: ATOMS id type xs ys zs
     1     1      0.046397      0.990380      0.986600
     2     1      0.296418      0.240082      0.986231
     3     1      0.276289      0.411481      0.151315
     4     1      0.027916      0.161786      0.150609
     5     1      0.971289      0.015348      0.319961
     6     1      0.220790      0.264333      0.319453
     7     1      0.207062      0.441523      0.484190
     8     1      0.957927      0.190691      0.484434
     9     1      0.907101      0.040418      0.651744
    10     1      0.156980      0.290738      0.651818
    11     1      0.318406      0.400960      0.822059
    12     1      0.070899      0.150242      0.820753
    13     1      0.045045      0.490577      0.986767
    14     1      0.294320      0.739748      0.986602
    15     1      0.277901      0.911166      0.151539
    16     1      0.026798      0.661966      0.151835
    17     1      0.972141      0.514393      0.319885
    18     1      0.221346      0.765753      0.319936
    19     1      0.205782      0.941064      0.485421
    20     1      0.955099      0.691019      0.484795
    21     1      0.905633      0.540314      0.652325
    22     1      0.157194      0.790066      0.652583
    23     1      0.320098      0.900474      0.821654
    24     1      0.069484      0.650510      0.821571
    25     1      0.547606      0.990918      0.986713
    26     1      0.797209      0.240507      0.986136
    27     1      0.775775      0.411350      0.152070
    28     1      0.527551      0.162075      0.151895
    29     1      0.471066      0.015713      0.319510
    30     1      0.719344      0.264956      0.320009
    31     1      0.705511      0.440119      0.484244
    32     1      0.455908      0.190509      0.485615
    33     1      0.407899      0.039278      0.652383
    34     1      0.657231      0.290285      0.651855
    35     1      0.819140      0.400416      0.821460
    36     1      0.570155      0.150828      0.821228
    37     1      0.545517      0.489302      0.986626
    38     1      0.794372      0.741137      0.986555
    39     1      0.777263      0.911894      0.151833
    40     1      0.525995      0.661620      0.151075
    41     1      0.470253      0.515770      0.319276
    42     1      0.720320      0.764548      0.319013
    43     1      0.706822      0.941552      0.484114
    44     1      0.456917      0.692466      0.485331
    45     1      0.407626      0.540565      0.652489
    46     1      0.657801      0.789789      0.653040
    47     1      0.820756      0.901887      0.822080
    48     1      0.568631      0.650860      0.822219
ITEM: TIMESTEP
64450
ITEM: NUMBER OF ATOMS
48
ITEM: BOX BOUNDS xy xz yz  pp  pp  pp
     -0.003081      2.203080      0.000000
     -0.005336      3.815850      0.000000
     -0.007546      5.396420      0.000000
ITEM: ATOMS id type xs ys zs
     1     1      0.046747      0.992048      0.985432
     2     1      0.295923      0.240456      0.985362
     3     1      0.275915      0.411408      0.151381
     4     1      0.028055      0.161081      0.151368
     5     1      0.971977      0.014835      0.320446
     6     1      0.221282      0.264298      0.319737
     7     1      0.204958      0.440884      0.483359
     8     1      0.899433      0.224731      0.507798
     9     1      0.893899      0.039024      0.652481
    10     1      0.162073      0.292078      0.652204
    11     1      0.316854      0.400172      0.821977
    12     1      0.127015      0.121731      0.798323
    13     1      0.045596      0.490440      0.986622
    14     1      0.294045      0.740105      0.986749
    15     1      0.277819      0.910831      0.151119
    16     1      0.026515      0.663015      0.152108
    17     1      0.972448      0.515218      0.319396
    18     1      0.221622      0.766268      0.320187
    19     1      0.152086      0.972713      0.506706
    20     1      0.956001      0.691068      0.484835
    21     1      0.913088      0.539553      0.652873
    22     1      0.156883      0.789153      0.652720
    23     1      0.327130      0.891828      0.822899
    24     1      0.069369      0.650419      0.821599
    25     1      0.546687      0.990970      0.986504
    26     1      0.796941      0.240875      0.985990
    27     1      0.775455      0.411257      0.152039
    28     1      0.527880      0.161894      0.151787
    29     1      0.472612      0.015486      0.319541
    30     1      0.722012      0.265397      0.320032
    31     1      0.703214      0.447957      0.479996
    32     1      0.448479      0.190593      0.485382
    33     1      0.413915      0.038395      0.653322
    34     1      0.658426      0.284267      0.656443
    35     1      0.819791      0.400226      0.821658
    36     1      0.579862      0.151147      0.822232
    37     1      0.546321      0.490244      0.987168
    38     1      0.795937      0.741844      0.986759
    39     1      0.778613      0.912108      0.151597
    40     1      0.527339      0.661355      0.150959
    41     1      0.469709      0.516068      0.319237
    42     1      0.720614      0.764765      0.319187
    43     1      0.697922      0.940747      0.483869
    44     1      0.454380      0.692807      0.484356
    45     1      0.463156      0.509355      0.628895
    46     1      0.657452      0.789431      0.652215
    47     1      0.820019      0.901352      0.821758
    48     1      0.569492      0.649953      0.821523
ITEM: TIMESTEP
64500
ITEM: NUMBER OF ATOMS
48
ITEM: BOX BOUNDS xy xz yz  pp  pp  pp
     -0.003081      2.203080      0.000000
     -0.005336      3.815850      0.000000
     -0.007546      5.396420      0.000000
ITEM: ATOMS id type xs ys zs
     1     1      0.047791      0.992470      0.984108
     2     1      0.294848      0.240077      0.984228
     3     1      0.276773      0.411897      0.151619
     4     1      0.028452      0.161142      0.151431
     5     1      0.971111      0.015922      0.321519
     6     1      0.220185      0.264617      0.319922
     7     1      0.201909      0.440413      0.481192
     8     1      0.920366      0.210703      0.498326
     9     1      0.892537      0.036765      0.652689
    10     1      0.166771      0.292112      0.651778
    11     1      0.317846      0.400838      0.820680
    12     1      0.111529      0.133096      0.808365
    13     1      0.044668      0.490709      0.986965
    14     1      0.293877      0.740457      0.987602
    15     1      0.277147      0.911566      0.151004
    16     1      0.025481      0.662948      0.152156
    17     1      0.971707      0.516127      0.318234