ITEM: TIMESTEP
64001
ITEM: NUMBER OF ATOMS
48
ITEM: BOX BOUNDS xy xz yz  pp  pp  pp
     -0.003081      2.203080      0.000000
     -0.005336      3.815850      0.000000
     -0.007546      5.396420      0.000000
ITEM: ATOMS id type xs ys zs
     1     1      0.048757      0.988409      0.986889
     2     1      0.293225      0.237428      0.986246
     3     1      0.272523      0.408652      0.151641
     4     1      0.022203      0.159191      0.150422
     5     1      0.967236      0.015381      0.319093
     6     1      0.220100      0.262835      0.318831
     7     1      0.212169      0.443113      0.485025
     8     1      0.959226      0.195697      0.485231
     9     1      0.907800      0.044469      0.651815
    10     1      0.153997      0.294622      0.653387
    11     1      0.322767      0.400923      0.822904
    12     1      0.073771      0.149444      0.821821
    13     1      0.038827      0.487094      0.987110
    14     1      0.292077      0.735780      0.986938
    15     1      0.278067      0.908646      0.151403
    16     1      0.026205      0.657813      0.152823
    17     1      0.971762      0.513425      0.320627
    18     1      0.219140      0.764589      0.319828
    19     1      0.208717      0.944002      0.484208
    20     1      0.964093      0.692946      0.485607
    21     1      0.904508      0.544324      0.652430
    22     1      0.157686      0.794883      0.653254
    23     1      0.329212      0.899440      0.821653
    24     1      0.073650      0.649156      0.821792
    25     1      0.549094      0.987259      0.986228
    26     1      0.791731      0.238051      0.985538
    27     1      0.772680      0.409908      0.153172
    28     1      0.523719      0.159413      0.151516
    29     1      0.467837      0.015879      0.319720
    30     1      0.720628      0.265063      0.320166
    31     1      0.710028      0.444847      0.484526
    32     1      0.459085      0.193377      0.484168
    33     1      0.409143      0.042864      0.650978
    34     1      0.651939      0.294710      0.651240
    35     1      0.823682      0.399257      0.820407
    36     1      0.572528      0.150177      0.820232
    37     1      0.541998      0.488394      0.987940
    38     1      0.794000      0.737784      0.988827
    39     1      0.776562      0.909195      0.152395
    40     1      0.525619      0.659909      0.152819
    41     1      0.469536      0.513645      0.319467
    42     1      0.720703      0.764132      0.320497
    43     1      0.712366      0.943325      0.483928
    44     1      0.462019      0.694535      0.485107
    45     1      0.404306      0.544583      0.653305
    46     1      0.658803      0.793811      0.653186
    47     1      0.828827      0.898797      0.822347
    48     1      0.575633      0.649214      0.823007
ITEM: TIMESTEP
64050
ITEM: NUMBER OF ATOMS
48
ITEM: BOX BOUNDS xy xz yz  pp  pp  pp
     -0.003081      2.203080      0.000000
     -0.005336      3.815850      0.000000
     -0.007546      5.396420      0.000000
ITEM: ATOMS id type xs ys zs
     1     1      0.047878      0.988631      0.987383
     2     1      0.294542      0.238917      0.986761
     3     1      0.272647      0.409212      0.151645
     4     1      0.024003      0.160174      0.151209
     5     1      0.968867      0.015010      0.319080
     6     1      0.220695      0.263905      0.319275
     7     1      0.212825      0.442270      0.485126
     8     1      0.959271      0.194337      0.484963
     9     1      0.907340      0.043572      0.651950
    10     1      0.154476      0.293402      0.653438
    11     1      0.322841      0.400694      0.822967
    12     1      0.072323      0.149676      0.822106
    13     1      0.041136      0.487830      0.986836
    14     1      0.294922      0.737174      0.986670
    15     1      0.278946      0.909295      0.151407
    16     1      0.025026      0.658426      0.152300
    17     1      0.971953      0.514515      0.321183
    18     1      0.219685      0.765035      0.320027
    19     1      0.208579      0.943401      0.484127
    20     1      0.962589      0.693464      0.485225
    21     1      0.905922      0.543531      0.652305
    22     1      0.158173      0.794391      0.652432
    23     1      0.327395      0.899535      0.821392
    24     1      0.072992      0.649086      0.822008
    25     1      0.548856      0.988401      0.985869
    26     1      0.792145      0.237832      0.986103
    27     1      0.772908      0.410435      0.152509
    28     1      0.524405      0.158996      0.151060
    29     1      0.468738      0.014717      0.319245
    30     1      0.720223      0.265279      0.319812
    31     1      0.710587      0.444155      0.484959
    32     1      0.458799      0.192777      0.484341
    33     1      0.408775      0.042638      0.651124
    34     1      0.653554      0.293496      0.651428
    35     1      0.821736      0.400354      0.820814
    36     1      0.573038      0.150216      0.820646
    37     1      0.544012      0.488367      0.987545
    38     1      0.794076      0.738095      0.987848
    39     1      0.778169      0.909251      0.152090
    40     1      0.525800      0.659860      0.152874
    41     1      0.470090      0.513655      0.319459
    42     1      0.720729      0.764805      0.320647
    43     1      0.710362      0.943464      0.483711
    44     1      0.460774      0.692760      0.484745
    45     1      0.403869      0.544360      0.653060
    46     1      0.657941      0.793400      0.653338
    47     1      0.828882      0.899233      0.822208
    48     1      0.574505      0.649631      0.822806
ITEM: TIMESTEP
64100
ITEM: NUMBER OF ATOMS
48
ITEM: BOX BOUNDS xy xz yz  pp  pp  pp
     -0.003081      2.203080      0.000000
     -0.005336      3.815850      0.000000
     -0.007546      5.396420      0.000000
ITEM: ATOMS id type xs ys zs
     1     1      0.047483      0.988183      0.987448
     2     1      0.294611      0.238636      0.986977
     3     1      0.274042      0.410100      0.151519
     4     1      0.023774      0.160075      0.151735
     5     1      0.969058      0.014956      0.319453
     6     1      0.220697      0.264055      0.319400
     7     1      0.211722      0.442517      0.484982
     8     1      0.958610      0.194007      0.484868
     9     1      0.906522      0.043283      0.652210
    10     1      0.154523      0.293474      0.653238
    11     1      0.322465      0.400532      0.822563
    12     1      0.073391      0.149655      0.822157
    13     1      0.042429      0.488022      0.986769
    14     1      0.294335      0.737800      0.987387
    15     1      0.277600      0.910024      0.151768
    16     1      0.025979      0.659505      0.152758
    17     1      0.970664      0.514817      0.320968
    18     1      0.220044      0.765730      0.320023
    19     1      0.209525      0.942821      0.484178
    20     1      0.961697      0.692906      0.485895
    21     1      0.907267      0.543177      0.652270
    22     1      0.157901      0.793920      0.652549
    23     1      0.327148      0.899678      0.821508
    24     1      0.074365      0.649944      0.821631
    25     1      0.548095      0.988138      0.986407
    26     1      0.794438      0.239278      0.986245
    27     1      0.773716      0.410480      0.152887
    28     1      0.524811      0.159243      0.150585
    29     1      0.469480      0.014542      0.319369
    30     1      0.719617      0.264582      0.319598
    31     1      0.710428      0.443277      0.484743
    32     1      0.458405      0.192112      0.484804
    33     1      0.407600      0.042698      0.651208
    34     1      0.652171      0.292803      0.652288
    35     1      0.822360      0.400346      0.820264
    36     1      0.572762      0.149309      0.820802
    37     1      0.543150      0.488121      0.987394
    38     1      0.796016      0.739100      0.987747
    39     1      0.779500      0.909183      0.151666
    40     1      0.526058      0.660768      0.152352
    41     1      0.468497      0.514252      0.319748
    42     1      0.719079      0.764790      0.320800
    43     1      0.709337      0.942634      0.484843
    44     1      0.460849      0.692678      0.484617
    45     1      0.404182      0.543348      0.653460
    46     1      0.657019      0.792443      0.653673
    47     1      0.828639      0.899404      0.822242
    48     1      0.574182      0.649798      0.823153
ITEM: TIMESTEP
64150
ITEM: NUMBER OF ATOMS
48
ITEM: BOX BOUNDS xy xz yz  pp  pp  pp
     -0.003081      2.203080      0.000000
     -0.005336      3.815850      0.000000
     -0.007546      5.396420      0.000000
ITEM: ATOMS id type xs ys zs
     1     1      0.048478      0.988815      0.987619
     2     1      0.294853      0.238954      0.987081
     3     1      0.275385      0.410303      0.151596
     4     1      0.025133      0.160465      0.151340
     5     1      0.968385      0.015648      0.319629
     6     1      0.217629      0.263606      0.319900
     7     1      0.210806      0.441741      0.484856
     8     1      0.955385      0.193155      0.505358
     9     1      0.905410      0.039917      0.654941
    10     1      0.157334      0.295293      0.655369
    11     1      0.323596      0.400187      0.822340
    12     1      0.074688      0.149766      0.822050
    13     1      0.043225      0.488798      0.985942
    14     1      0.294646      0.737866      0.987653
    15     1      0.278150      0.909474      0.152085
    16     1      0.025940      0.659635      0.152897
    17     1      0.970489      0.514795      0.320824
    18     1      0.220878      0.765053      0.320125
    19     1      0.207525      0.942438      0.484145
    20     1      0.961526      0.692142      0.485264
    21     1      0.907963      0.546466      0.649291
    22     1      0.158166      0.793523      0.651825
    23     1      0.325565      0.899355      0.821756
    24     1      0.074554      0.649492      0.821007
    25     1      0.547689      0.988371      0.986904
    26     1      0.796028      0.239865      0.985357
    27     1      0.775512      0.410575      0.152651
    28     1      0.525509      0.159732      0.150182
    29     1      0.469772      0.015238      0.319087
    30     1      0.720154      0.264035      0.320028
    31     1      0.710288      0.442695      0.484703
    32     1      0.457637      0.191718      0.484134
    33     1      0.407212      0.042318      0.651478
    34     1      0.648787      0.290192      0.649120
    35     1      0.826305      0.400259      0.800652
    36     1      0.573026      0.150179      0.820650
    37     1      0.544324      0.488575      0.987555
    38     1      0.796409      0.739248      0.987429
    39     1      0.780094      0.909175      0.152173
    40     1      0.526210      0.661217      0.152122
    41     1      0.469654      0.514092      0.319725
    42     1      0.720440      0.765080      0.320738
    43     1      0.709650      0.942413      0.484692
    44     1      0.459728      0.691860      0.485319
    45     1      0.405128      0.542936      0.653458
    46     1      0.655346      0.792709      0.653432
    47     1      0.827505      0.899790      0.822359
    48     1      0.575288      0.649983      0.823000
ITEM: TIMESTEP
64200
ITEM: NUMBER OF ATOMS
48
ITEM: BOX BOUNDS xy xz yz  pp  pp  pp
     -0.003081      2.203080      0.000000
     -0.005336      3.815850      0.000000
     -0.007546      5.396420      0.000000
ITEM: ATOMS id type xs ys zs
     1     1      0.048475      0.990049      0.987542
     2     1      0.296286      0.239568      0.986732
     3     1      0.275724      0.411293      0.151758
     4     1      0.026935      0.160615      0.151654
     5     1      0.969115      0.015494      0.320274
     6     1      0.217600      0.264368      0.320632
     7     1      0.210420      0.440812      0.485304
     8     1      0.954344      0.193230      0.495247
     9     1      0.905487      0.038923      0.655688
    10     1      0.157521      0.294854      0.656360
    11     1      0.325048      0.400477      0.823485
    12     1      0.074761      0.150192      0.822276
    13     1      0.042189      0.488627      0.984938
    14     1      0.295317      0.738115      0.987257
    15     1      0.277056      0.910458      0.152086
    16     1      0.026155      0.659730      0.152543
    17     1      0.969849      0.515071      0.320557
    18     1      0.220625      0.764978      0.319999
    19     1      0.209186      0.941978      0.484432
    20     1      0.959943      0.692387      0.483921
    21     1      0.909241      0.545943      0.648421
    22     1      0.157217      0.793281      0.652122
    23     1      0.325452      0.899252      0.821362
    24     1      0.074875      0.649424      0.820527
    25     1      0.547543      0.988535      0.987166
    26     1      0.795652      0.240414      0.984615
    27     1      0.775561      0.411370      0.152035
    28     1      0.527287      0.160225      0.150712
    29     1      0.470112      0.014266      0.319647
    30     1      0.722009      0.264191      0.321247
    31     1      0.708891      0.442501      0.484463
    32     1      0.456255      0.190581      0.483183
    33     1      0.405693      0.041999      0.651457
    34     1      0.650303      0.289708      0.648663
    35     1      0.827988      0.400337      0.810404
    36     1      0.573350      0.150327      0.820569
    37     1      0.545431      0.488991      0.987679
    38     1      0.797018      0.739361      0.987004
    39     1      0.780426      0.909841      0.151826
    40     1      0.528198      0.661930      0.151801
    41     1      0.468588      0.515224      0.320184
    42     1      0.720395      0.764895      0.320427
    43     1      0.708944      0.941357      0.485338
    44     1      0.458854      0.691998      0.485450
    45     1      0.405164      0.542282      0.653344
    46     1      0.655694      0.791286      0.652707
    47     1      0.826822      0.899708      0.822486
    48     1      0.575058      0.650103      0.822767
ITEM: TIMESTEP
64250
ITEM: NUMBER OF ATOMS
48
ITEM: BOX BOUNDS xy xz yz  pp  pp  pp
     -0.003081      2.203080      0.000000
     -0.005336      3.815850      0.000000
     -0.007546      5.396420      0.000000
ITEM: ATOMS id type xs ys zs
     1     1      0.048480      0.991208      0.987065
     2     1      0.295984      0.239897      0.986767
     3     1      0.276005      0.412431      0.151630
     4     1      0.026261      0.161646      0.151774
     5     1      0.968742      0.015133      0.320682
     6     1      0.214883      0.264823      0.320593
     7     1      0.208445      0.440277      0.485345
     8     1      0.921437      0.192378      0.492337
     9     1      0.907472      0.039291      0.655141
    10     1      0.191830      0.290961      0.653424
    11     1      0.326621      0.401081      0.824253
    12     1      0.074214      0.150869      0.821732
    13     1      0.043238      0.489005      0.984920
    14     1      0.295352      0.738903      0.987512
    15     1      0.278391      0.910485      0.151541
    16     1      0.027832      0.659843      0.151875
    17     1      0.969160      0.514708      0.319964
    18     1      0.221452      0.764806      0.319317
    19     1      0.205896      0.941848      0.484208
    20     1      0.960166      0.692040      0.483147
    21     1      0.910253      0.543665      0.648627
    22     1      0.156743      0.792865      0.651482
    23     1      0.325526      0.898814      0.821405
    24     1      0.074893      0.649873      0.820592
    25     1      0.547339      0.988813      0.986740
    26     1      0.795451      0.240510      0.984456
    27     1      0.776165      0.411136      0.152468
    28     1      0.528320      0.160854      0.151031
    29     1      0.470757      0.015306      0.319597
    30     1      0.718612      0.264948      0.320119
    31     1      0.705841      0.443720      0.484151
    32     1      0.439633      0.190166      0.483676
    33     1      0.409376      0.039132      0.650950
    34     1      0.669769      0.289576      0.649629
    35     1      0.827261      0.400911      0.815503
    36     1      0.573421      0.149761      0.820604
    37     1      0.547320      0.490024      0.987578
    38     1      0.797099      0.740734      0.986931
    39     1      0.780750      0.909750      0.152056
    40     1      0.528633      0.661512      0.151669
    41     1      0.468853      0.515335      0.320204
    42     1      0.719095      0.765223      0.320125
    43     1      0.708024      0.939372      0.486042
    44     1      0.456950      0.691559      0.485836
    45     1      0.407546      0.543707      0.653440
    46     1      0.657034      0.791196      0.653504
    47     1      0.824462      0.899377      0.822669
    48     1      0.572760      0.650057      0.822669
ITEM: TIMESTEP
64300
ITEM: NUMBER OF ATOMS
48
ITEM: BOX BOUNDS xy xz yz  pp  pp  pp
     -0.003081      2.203080      0.000000
     -0.005336      3.815850      0.000000
     -0.007546      5.396420      0.000000
ITEM: ATOMS id type xs ys zs
     1     1      0.048921      0.991740      0.985783
     2     1      0.294963      0.240032      0.985696
     3     1      0.276733      0.411558      0.151937
     4     1      0.026187      0.162017      0.151347
     5     1      0.968489      0.015566      0.320833
     6     1      0.214614      0.263916      0.321104
     7     1      0.205354      0.443223      0.484395
     8     1      0.920769      0.192128      0.489458
     9     1      0.906542      0.037846      0.652774
    10     1      0.174600      0.298433      0.651434
    11     1      0.328172      0.402661      0.823438
    12     1      0.121928      0.146515      0.804676
    13     1      0.044914      0.489508      0.985723
    14     1      0.295895      0.739234      0.987119
    15     1      0.278299      0.910992      0.151791
    16     1      0.029090      0.660295      0.151644
    17     1      0.969710      0.516498      0.319937
    18     1      0.221441      0.765071      0.319875
    19     1      0.203363      0.939766      0.484055
    20     1      0.959397      0.692156      0.484111
    21     1      0.910943      0.541767      0.648477
    22     1      0.158307      0.791706      0.651616
    23     1      0.324776      0.897945      0.822081
    24     1      0.074091      0.650316      0.820056
    25     1      0.548581      0.989632      0.986694
    26     1      0.796784      0.240678      0.985260
    27     1      0.777425      0.411514      0.152525
    28     1      0.527712      0.160908      0.151582
    29     1      0.469956      0.015311      0.319648
    30     1      0.714567      0.264767      0.320524
    31     1      0.703679      0.442574      0.483822
    32     1      0.395807      0.191274      0.500767
    33     1      0.412293      0.034654      0.654430
    34     1      0.670795      0.289122      0.649754
    35     1      0.828791      0.400208      0.817647
    36     1      0.589576      0.149934      0.820267
    37     1      0.546339      0.490538      0.987770
    38     1      0.797778      0.740469      0.986883
    39     1      0.780599      0.910969      0.151819
    40     1      0.528961      0.661378      0.152263
    41     1      0.467346      0.514997      0.319132
    42     1      0.720324      0.764697      0.320308
    43     1      0.702992      0.940820      0.486004
    44     1      0.455909      0.691086      0.485392
    45     1      0.409140      0.542505      0.653101
    46     1      0.657975      0.789851      0.652966
    47     1      0.825239      0.900757      0.822680
    48     1      0.573625      0.650565      0.822648
ITEM: TIMESTEP
64350
ITEM: NUMBER OF ATOMS
48
ITEM: BOX BOUNDS xy xz yz  pp  pp  pp
     -0.003081      2.203080      0.000000
     -0.005336      3.815850      0.000000
     -0.007546      5.396420      0.000000
ITEM: ATOMS id type xs ys zs
     1     1      0.048399      0.992045      0.986194
     2     1      0.296446      0.239980      0.985473
     3     1      0.277211      0.411081      0.151784
     4     1      0.026230      0.162089      0.151639
     5     1      0.966942      0.016188      0.321253
     6     1      0.213997      0.265015      0.322421
     7     1      0.200083      0.446215      0.496276
     8     1      0.924718      0.193158      0.488658
     9     1      0.908216      0.038078      0.652227
    10     1      0.165697      0.293558      0.654850
    11     1      0.327376      0.402436      0.823630
    12     1      0.106918      0.144999      0.813165
    13     1      0.045327      0.491375      0.984460
    14     1      0.294715      0.738471      0.985880
    15     1      0.279648      0.911637      0.151711
    16     1      0.028955      0.659366      0.151869
    17     1      0.969881      0.514784      0.320997
    18     1      0.220776      0.765511      0.319506
    19     1      0.203161      0.940329      0.483916
    20     1      0.956107      0.692460      0.483398
    21     1      0.904974      0.539395      0.645963
    22     1      0.160184      0.793227      0.647254
    23     1      0.326318      0.896517      0.821874
    24     1      0.078792      0.649618      0.807602
    25     1      0.548544      0.989509      0.986353
    26     1      0.797293      0.241909      0.985371
    27     1      0.778913      0.411693      0.152522
    28     1      0.526457      0.161618      0.151304
    29     1      0.468371      0.016084      0.320156
    30     1      0.713267      0.265242      0.320418
    31     1      0.698734      0.442108      0.483136
    32     1      0.414651      0.192315      0.494397
    33     1      0.412865      0.035977      0.654910
    34     1      0.667292      0.289337      0.650116
    35     1      0.830386      0.400289      0.818327
    36     1      0.593590      0.149652      0.819984
    37     1      0.546532      0.490517      0.987976
    38     1      0.797354      0.741002      0.987105
    39     1      0.779802      0.910833      0.151547
    40     1      0.527991      0.661251      0.152169
    41     1      0.466473      0.515090      0.320180
    42     1      0.720865      0.764432      0.319651
    43     1      0.700363      0.941230      0.485912
    44     1      0.456637      0.690933      0.486007
    45     1      0.414181      0.544056      0.655971
    46     1      0.661229      0.789077      0.652761
    47     1      0.826009      0.900871      0.821888
    48     1      0.575853      0.651017      0.823660
ITEM: TIMESTEP
64400
ITEM: NUMBER OF ATOMS
48
ITEM: BOX BOUNDS xy xz yz  pp  pp  pp
     -0.003081      2.203080      0.000000
     -0.005336      3.815850      0.000000
     -0.007546      5.396420      0.000000
ITEM: ATOMS id type xs ys zs
     1     1      0.046859      0.992056      0.985378
     2     1      0.297350      0.239810      0.985133
     3     1      0.275608      0.411307      0.151462
     4     1      0.026519      0.161558      0.151851
     5     1      0.964290      0.017371      0.320235
     6     1      0.214516      0.265323      0.321719
     7     1      0.197438      0.446049      0.490811
     8     1      0.926478      0.196547      0.484196
     9     1      0.954662      0.037209      0.638130
    10     1      0.163728      0.293393      0.654337
    11     1      0.329733      0.401283      0.823733
    12     1      0.096568      0.145148      0.815469
    13     1      0.045666      0.492310      0.984297
    14     1      0.293988      0.739294      0.986083
    15     1      0.280208      0.911211      0.151328
    16     1      0.029728      0.659875      0.151930
    17     1      0.967957      0.515136      0.321455
    18     1      0.220259      0.765890      0.318925
    19     1      0.189945      0.939739      0.479710
    20     1      0.889862      0.730545      0.509326
    21     1      0.907653      0.538766      0.647147
    22     1      0.166933      0.790160      0.648387
    23     1      0.327295      0.896176      0.822072
    24     1      0.078373      0.649067      0.812903
    25     1      0.547636      0.990231      0.986737
    26     1      0.798593      0.242166      0.985743
    27     1      0.777372      0.410182      0.152248
    28     1      0.527207      0.161929      0.151283
    29     1      0.468500      0.015227      0.320967
    30     1      0.710986      0.265298      0.320164
    31     1      0.696853      0.441912      0.483517
    32     1      0.421456      0.192914      0.491822
    33     1      0.478162      0.005823      0.638332
    34     1      0.665934      0.287550      0.650121
    35     1      0.830797      0.400003      0.818889
    36     1      0.592753      0.149781      0.820175
    37     1      0.546495      0.490939      0.988268
    38     1      0.798350      0.740711      0.987505
    39     1      0.780338      0.910609      0.152233
    40     1      0.527913      0.660906      0.152190
    41     1      0.464972      0.515041      0.319967
    42     1      0.719208      0.765372      0.320435
    43     1      0.667448      0.944071      0.492230
    44     1      0.450562      0.689725      0.485478
    45     1      0.412277      0.542043      0.655689
    46     1      0.664468      0.782080      0.658531
    47     1      0.829197      0.901556      0.819868
    48     1      0.576009      0.649202      0.824464
ITEM: TIMESTEP
64450
ITEM: NUMBER OF ATOMS
48
ITEM: BOX BOUNDS xy xz yz  pp  pp  pp
     -0.003081      2.203080      0.000000
     -0.005336      3.815850      0.000000
     -0.007546      5.396420      0.000000
ITEM: ATOMS id type xs ys zs
     1     1      0.047968      0.991971      0.985943
     2     1      0.297131      0.240432      0.985683
     3     1      0.275603      0.410999      0.151312
     4     1      0.029384      0.161233      0.151569
     5     1      0.962290      0.016979      0.320000
     6     1      0.213192      0.266243      0.321101
     7     1      0.193405      0.447476      0.488971
     8     1      0.930965      0.197019      0.484643
     9     1      0.949469      0.035232      0.642840
    10     1      0.165015      0.290750      0.653174
    11     1      0.330107      0.400769      0.823269
    12     1      0.091996      0.146006      0.817158
    13     1      0.046431      0.491493      0.984453
    14     1      0.295874      0.739431      0.986138
    15     1      0.280139      0.911268      0.150701
    16     1      0.028264      0.660904      0.151417
    17     1      0.966495      0.515738      0.322163
    18     1      0.218215      0.766036      0.320123
    19     1      0.190884      0.942455      0.481818
    20     1      0.916204      0.712261      0.498215
    21     1      0.911151      0.535886      0.648494
    22     1      0.174734      0.787883      0.651142
    23     1      0.329495      0.897048      0.820631
    24     1      0.076178      0.649416      0.816089
    25     1      0.548073      0.991006      0.986216
    26     1      0.799552      0.241162      0.985817
    27     1      0.778141      0.410867      0.152596
    28     1      0.528677      0.160965      0.151140
    29     1      0.465440      0.016615      0.319572
    30     1      0.707946      0.266390      0.319688
    31     1      0.693124      0.443464      0.484456
    32     1      0.425723      0.193419      0.489871
    33     1      0.455057      0.022485      0.648088
    34     1      0.665542      0.285515      0.650356
    35     1      0.829500      0.399968      0.819255
    36     1      0.588568      0.148760      0.819367
    37     1      0.546799      0.490608      0.988836
    38     1      0.799343      0.741487      0.986514
    39     1      0.780911      0.910982      0.151692
    40     1      0.528087      0.661021      0.152601
    41     1      0.464126      0.516225      0.320120
    42     1      0.718972      0.765300      0.321754
    43     1      0.679526      0.947870      0.485384
    44     1      0.438102      0.691241      0.486314
    45     1      0.411632      0.539357      0.655090
    46     1      0.667589      0.779238      0.658988
    47     1      0.830181      0.902568      0.819799
    48     1      0.574945      0.648112      0.825608
ITEM: TIMESTEP
64500
ITEM: NUMBER OF ATOMS
48
ITEM: BOX BOUNDS xy xz yz  pp  pp  pp
     -0.003081      2.203080      0.000000
     -0.005336      3.815850      0.000000
     -0.007546      5.396420      0.000000
ITEM: ATOMS id type xs ys zs
     1     1      0.047137      0.991565      0.986107
     2     1      0.296801      0.240147      0.985745
     3     1      0.277197      0.410958      0.151350
     4     1      0.029644      0.160545      0.151755
     5     1      0.962084      0.016827      0.319911
     6     1      0.210641      0.266462      0.321096
     7     1      0.192975      0.446932      0.488397
     8     1      0.935029      0.196660      0.485075
     9     1      0.945525      0.034781      0.645980
    10     1      0.166812      0.289203      0.652801
    11     1      0.329515      0.400350      0.823124
    12     1      0.088791      0.146568      0.818576
    13     1      0.047832      0.491152      0.985106
    14     1      0.297408      0.740320      0.986028
    15     1      0.279415      0.910345      0.150407
    16     1      0.029473      0.660148      0.151176
    17     1      0.964622      0.516694      0.322066