ITEM: TIMESTEP
64001
ITEM: NUMBER OF ATOMS
48
ITEM: BOX BOUNDS xy xz yz  pp  pp  pp
     -0.003081      2.203080      0.000000
     -0.005336      3.815850      0.000000
     -0.007546      5.396420      0.000000
ITEM: ATOMS id type xs ys zs
     1     1      0.048868      0.988056      0.986895
     2     1      0.293023      0.237286      0.986060
     3     1      0.272482      0.408524      0.151610
     4     1      0.022212      0.159237      0.150470
     5     1      0.967240      0.015554      0.319026
     6     1      0.220309      0.262867      0.318790
     7     1      0.212126      0.443041      0.485178
     8     1      0.958742      0.195740      0.485135
     9     1      0.907728      0.044668      0.651950
    10     1      0.153740      0.294515      0.653627
    11     1      0.322827      0.400999      0.822835
    12     1      0.073710      0.149461      0.821770
    13     1      0.038961      0.487208      0.987105
    14     1      0.292137      0.735857      0.986853
    15     1      0.277868      0.908628      0.151279
    16     1      0.026219      0.657961      0.152751
    17     1      0.971757      0.513364      0.320560
    18     1      0.219192      0.764592      0.319760
    19     1      0.208949      0.943816      0.484304
    20     1      0.963849      0.692978      0.485650
    21     1      0.904706      0.544254      0.652441
    22     1      0.157624      0.794866      0.653281
    23     1      0.329249      0.899397      0.821670
    24     1      0.073713      0.649224      0.821589
    25     1      0.549052      0.987165      0.986228
    26     1      0.791147      0.237928      0.985474
    27     1      0.772815      0.410120      0.153234
    28     1      0.523775      0.159492      0.151439
    29     1      0.467710      0.016069      0.319707
    30     1      0.720647      0.265088      0.320298
    31     1      0.709936      0.444839      0.484468
    32     1      0.459081      0.193494      0.484300
    33     1      0.408894      0.042836      0.650900
    34     1      0.651647      0.294818      0.651257
    35     1      0.823829      0.399360      0.820443
    36     1      0.572612      0.150243      0.820100
    37     1      0.541840      0.488443      0.988038
    38     1      0.793900      0.738025      0.988886
    39     1      0.776379      0.908968      0.152355
    40     1      0.525636      0.659884      0.152832
    41     1      0.469608      0.513680      0.319477
    42     1      0.720795      0.763979      0.320456
    43     1      0.711839      0.943368      0.484016
    44     1      0.462128      0.694522      0.485277
    45     1      0.404219      0.544612      0.653353
    46     1      0.658618      0.793836      0.653112
    47     1      0.828892      0.898911      0.822388
    48     1      0.575576      0.649267      0.822887
ITEM: TIMESTEP
64050
ITEM: NUMBER OF ATOMS
48
ITEM: BOX BOUNDS xy xz yz  pp  pp  pp
     -0.003081      2.203080      0.000000
     -0.005336      3.815850      0.000000
     -0.007546      5.396420      0.000000
ITEM: ATOMS id type xs ys zs
     1     1      0.047722      0.988204      0.986699
     2     1      0.293327      0.237796      0.986673
     3     1      0.273469      0.408665      0.151584
     4     1      0.023643      0.159769      0.150719
     5     1      0.969102      0.015626      0.319384
     6     1      0.220035      0.262851      0.318665
     7     1      0.210016      0.442990      0.484990
     8     1      0.958533      0.194073      0.485578
     9     1      0.907724      0.044173      0.652074
    10     1      0.154633      0.294076      0.653694
    11     1      0.323382      0.400733      0.822624
    12     1      0.073038      0.149484      0.821359
    13     1      0.040531      0.488045      0.986762
    14     1      0.293218      0.737624      0.987009
    15     1      0.276319      0.910268      0.151538
    16     1      0.027731      0.659184      0.152618
    17     1      0.970973      0.514071      0.320595
    18     1      0.221288      0.765031      0.320283
    19     1      0.209814      0.943763      0.484505
    20     1      0.963136      0.692504      0.485221
    21     1      0.903401      0.543485      0.652309
    22     1      0.155635      0.793950      0.652927
    23     1      0.328881      0.899290      0.821736
    24     1      0.073613      0.649723      0.821640
    25     1      0.548273      0.988455      0.987035
    26     1      0.792263      0.238525      0.986121
    27     1      0.774766      0.410431      0.153434
    28     1      0.523753      0.160250      0.151822
    29     1      0.468622      0.014744      0.320185
    30     1      0.720117      0.264751      0.320536
    31     1      0.708690      0.443610      0.484984
    32     1      0.458181      0.192566      0.484333
    33     1      0.408299      0.042742      0.651618
    34     1      0.652433      0.294045      0.651433
    35     1      0.823823      0.399394      0.820632
    36     1      0.573116      0.150177      0.820735
    37     1      0.542805      0.488190      0.988083
    38     1      0.794218      0.739707      0.988512
    39     1      0.776663      0.909491      0.152410
    40     1      0.525425      0.659976      0.153001
    41     1      0.469121      0.514485      0.319636
    42     1      0.720697      0.763509      0.320145
    43     1      0.710534      0.942646      0.484464
    44     1      0.463458      0.693314      0.485577
    45     1      0.403677      0.544233      0.653160
    46     1      0.657461      0.794063      0.652873
    47     1      0.828837      0.899476      0.822088
    48     1      0.575922      0.649801      0.822067
ITEM: TIMESTEP
64100
ITEM: NUMBER OF ATOMS
48
ITEM: BOX BOUNDS xy xz yz  pp  pp  pp
     -0.003081      2.203080      0.000000
     -0.005336      3.815850      0.000000
     -0.007546      5.396420      0.000000
ITEM: ATOMS id type xs ys zs
     1     1      0.047821      0.988634      0.986543
     2     1      0.294199      0.237877      0.986847
     3     1      0.273693      0.409330      0.151435
     4     1      0.024309      0.160352      0.150342
     5     1      0.968303      0.014996      0.319662
     6     1      0.219046      0.264208      0.318925
     7     1      0.209752      0.442211      0.485342
     8     1      0.958601      0.193755      0.485420
     9     1      0.907337      0.043238      0.652198
    10     1      0.155464      0.293301      0.652944
    11     1      0.324439      0.399880      0.822608
    12     1      0.073983      0.149427      0.821267
    13     1      0.041238      0.488653      0.987094
    14     1      0.293982      0.738639      0.987216
    15     1      0.276551      0.910411      0.152250
    16     1      0.027389      0.659352      0.152309
    17     1      0.970653      0.514777      0.320305
    18     1      0.221310      0.764812      0.320246
    19     1      0.208517      0.942603      0.484430
    20     1      0.961923      0.692421      0.485474
    21     1      0.904025      0.543365      0.652379
    22     1      0.155888      0.793714      0.652342
    23     1      0.328631      0.899967      0.821454
    24     1      0.073822      0.649777      0.821287
    25     1      0.547243      0.989409      0.986817
    26     1      0.793339      0.239442      0.986193
    27     1      0.774919      0.410308      0.153476
    28     1      0.524643      0.161076      0.152098
    29     1      0.467926      0.014387      0.319843
    30     1      0.719075      0.264881      0.320466
    31     1      0.708418      0.442516      0.485166
    32     1      0.457873      0.190993      0.484000
    33     1      0.407730      0.042781      0.652489
    34     1      0.653532      0.293302      0.651980
    35     1      0.822920      0.399571      0.820863
    36     1      0.573539      0.149995      0.821120
    37     1      0.542565      0.488983      0.987696
    38     1      0.794308      0.739771      0.988437
    39     1      0.777313      0.910458      0.151948
    40     1      0.525753      0.659879      0.152562
    41     1      0.470332      0.514592      0.320262
    42     1      0.721430      0.764591      0.320199
    43     1      0.709160      0.942171      0.485221
    44     1      0.461985      0.692175      0.485436
    45     1      0.404225      0.543762      0.653777
    46     1      0.656207      0.794133      0.653211
    47     1      0.829639      0.900612      0.822312
    48     1      0.575303      0.649861      0.822967
ITEM: TIMESTEP
64150
ITEM: NUMBER OF ATOMS
48
ITEM: BOX BOUNDS xy xz yz  pp  pp  pp
     -0.003081      2.203080      0.000000
     -0.005336      3.815850      0.000000
     -0.007546      5.396420      0.000000
ITEM: ATOMS id type xs ys zs
     1     1      0.046935      0.989254      0.986529
     2     1      0.293964      0.238679      0.986704
     3     1      0.275373      0.409788      0.151496
     4     1      0.024361      0.160671      0.150877
     5     1      0.969003      0.015476      0.320264
     6     1      0.219506      0.264721      0.318367
     7     1      0.209886      0.440885      0.485258
     8     1      0.959280      0.193345      0.484746
     9     1      0.906674      0.043427      0.652667
    10     1      0.154422      0.293198      0.652967
    11     1      0.323730      0.400691      0.822524
    12     1      0.074391      0.149624      0.821367
    13     1      0.041829      0.489516      0.987024
    14     1      0.294015      0.739796      0.987141
    15     1      0.277382      0.910993      0.151747
    16     1      0.029049      0.659783      0.151914
    17     1      0.972344      0.514913      0.320355
    18     1      0.222140      0.765282      0.319557
    19     1      0.208338      0.942396      0.484056
    20     1      0.960513      0.692419      0.485143
    21     1      0.905312      0.543284      0.653147
    22     1      0.155637      0.793193      0.652426
    23     1      0.328870      0.899684      0.821886
    24     1      0.074549      0.650673      0.821598
    25     1      0.548137      0.990189      0.987178
    26     1      0.794606      0.240151      0.985530
    27     1      0.775620      0.411027      0.152892
    28     1      0.526504      0.160334      0.151091
    29     1      0.469688      0.014853      0.319920
    30     1      0.719223      0.264258      0.320431
    31     1      0.709126      0.442088      0.485172
    32     1      0.457094      0.191689      0.484196
    33     1      0.407190      0.042727      0.651695
    34     1      0.654589      0.292624      0.652433
    35     1      0.822822      0.399030      0.820516
    36     1      0.571800      0.149794      0.821535
    37     1      0.543267      0.488262      0.987525
    38     1      0.794615      0.740023      0.987971
    39     1      0.777056      0.910085      0.152050
    40     1      0.526362      0.660098      0.151688
    41     1      0.470269      0.514756      0.319764
    42     1      0.720713      0.764820      0.319834
    43     1      0.709796      0.941704      0.485248
    44     1      0.460848      0.692098      0.485290
    45     1      0.405260      0.543242      0.653190
    46     1      0.655960      0.793405      0.653409
    47     1      0.829317      0.900413      0.821900
    48     1      0.575659      0.649654      0.822931
ITEM: TIMESTEP
64200
ITEM: NUMBER OF ATOMS
48
ITEM: BOX BOUNDS xy xz yz  pp  pp  pp
     -0.003081      2.203080      0.000000
     -0.005336      3.815850      0.000000
     -0.007546      5.396420      0.000000
ITEM: ATOMS id type xs ys zs
     1     1      0.046057      0.990300      0.987075
     2     1      0.295584      0.239518      0.986611
     3     1      0.276015      0.410760      0.151426
     4     1      0.025684      0.161310      0.150986
     5     1      0.970386      0.015089      0.319997
     6     1      0.219831      0.264122      0.318997
     7     1      0.209381      0.441335      0.485385
     8     1      0.958046      0.192529      0.484690
     9     1      0.906826      0.043042      0.652448
    10     1      0.154398      0.292153      0.652883
    11     1      0.324191      0.399855      0.822209
    12     1      0.074426      0.150468      0.821863
    13     1      0.043009      0.489813      0.986663
    14     1      0.294299      0.740381      0.987404
    15     1      0.276971      0.911778      0.151888
    16     1      0.028387      0.659920      0.152024
    17     1      0.970955      0.514835      0.320357
    18     1      0.222152      0.764650      0.319810
    19     1      0.208970      0.941876      0.484008
    20     1      0.960813      0.691921      0.484720
    21     1      0.904561      0.542818      0.652912
    22     1      0.156915      0.792667      0.652143
    23     1      0.327890      0.900472      0.821835
    24     1      0.073729      0.650580      0.822149
    25     1      0.547300      0.990516      0.987346
    26     1      0.794521      0.240779      0.986151
    27     1      0.776822      0.411583      0.152696
    28     1      0.526388      0.161335      0.152132
    29     1      0.470190      0.015137      0.319908
    30     1      0.717428      0.264718      0.319837
    31     1      0.709119      0.441899      0.485576
    32     1      0.456960      0.190980      0.484710
    33     1      0.406810      0.042471      0.651677
    34     1      0.655428      0.292319      0.652206
    35     1      0.823482      0.400155      0.821220
    36     1      0.572806      0.150596      0.821231
    37     1      0.543707      0.489678      0.987483
    38     1      0.794866      0.739934      0.987312
    39     1      0.775385      0.910471      0.152313
    40     1      0.527251      0.661032      0.151798
    41     1      0.470688      0.514247      0.319724
    42     1      0.721046      0.764913      0.320151
    43     1      0.709427      0.941788      0.484919
    44     1      0.460771      0.691339      0.484740
    45     1      0.405190      0.542454      0.653004
    46     1      0.656656      0.793246      0.653063
    47     1      0.826948      0.900650      0.822198
    48     1      0.573760      0.650338      0.822904
ITEM: TIMESTEP
64250
ITEM: NUMBER OF ATOMS
48
ITEM: BOX BOUNDS xy xz yz  pp  pp  pp
     -0.003081      2.203080      0.000000
     -0.005336      3.815850      0.000000
     -0.007546      5.396420      0.000000
ITEM: ATOMS id type xs ys zs
     1     1      0.045423      0.989847      0.987081
     2     1      0.296037      0.240164      0.986908
     3     1      0.276776      0.411669      0.151260
     4     1      0.025262      0.161609      0.150745
     5     1      0.970261      0.014795      0.319873
     6     1      0.219540      0.263857      0.319341
     7     1      0.208903      0.439975      0.484860
     8     1      0.956711      0.191906      0.484628
     9     1      0.907195      0.042065      0.652530
    10     1      0.153915      0.291571      0.653163
    11     1      0.323148      0.401160      0.822164
    12     1      0.074305      0.150479      0.821799
    13     1      0.045147      0.490493      0.986699
    14     1      0.295061      0.740303      0.986890
    15     1      0.276464      0.911572      0.152046
    16     1      0.026811      0.660079      0.152046
    17     1      0.970678      0.514075      0.320713
    18     1      0.222423      0.764454      0.319542
    19     1      0.209891      0.941021      0.484343
    20     1      0.959880      0.691252      0.484934
    21     1      0.905233      0.542311      0.653187
    22     1      0.156966      0.791989      0.652450
    23     1      0.326051      0.900855      0.821267
    24     1      0.073300      0.651236      0.821593
    25     1      0.546997      0.990857      0.986733
    26     1      0.794184      0.240714      0.986227
    27     1      0.776420      0.411297      0.152571
    28     1      0.526364      0.161564      0.151827
    29     1      0.469198      0.014846      0.319754
    30     1      0.719704      0.264171      0.320310
    31     1      0.709568      0.441094      0.485481
    32     1      0.456723      0.191374      0.484728
    33     1      0.407158      0.042440      0.651423
    34     1      0.655084      0.291937      0.652273
    35     1      0.823435      0.400436      0.821594
    36     1      0.572482      0.150371      0.821528
    37     1      0.544329      0.489967      0.986997
    38     1      0.794913      0.740483      0.987478
    39     1      0.775935      0.911613      0.152112
    40     1      0.527480      0.661385      0.151544
    41     1      0.471376      0.514449      0.320152
    42     1      0.722066      0.764319      0.319979
    43     1      0.708929      0.941242      0.484906
    44     1      0.460318      0.690364      0.484794
    45     1      0.405284      0.541893      0.653085
    46     1      0.657172      0.792781      0.652586
    47     1      0.825171      0.900373      0.822245
    48     1      0.573233      0.650390      0.822418
ITEM: TIMESTEP
64300
ITEM: NUMBER OF ATOMS
48
ITEM: BOX BOUNDS xy xz yz  pp  pp  pp
     -0.003081      2.203080      0.000000
     -0.005336      3.815850      0.000000
     -0.007546      5.396420      0.000000
ITEM: ATOMS id type xs ys zs
     1     1      0.045987      0.990275      0.986957
     2     1      0.295846      0.240287      0.986840
     3     1      0.277412      0.412173      0.152045
     4     1      0.026002      0.161709      0.150740
     5     1      0.970290      0.014565      0.319773
     6     1      0.219472      0.264147      0.319362
     7     1      0.208980      0.440073      0.485389
     8     1      0.956409      0.190583      0.484984
     9     1      0.906444      0.041959      0.652864
    10     1      0.155309      0.291759      0.653013
    11     1      0.321940      0.400437      0.821847
    12     1      0.072245      0.150340      0.821869
    13     1      0.045443      0.489653      0.987460
    14     1      0.295819      0.739692      0.986919
    15     1      0.275011      0.911615      0.151425
    16     1      0.027525      0.660171      0.151847
    17     1      0.970063      0.514290      0.320508
    18     1      0.222023      0.764527      0.319413
    19     1      0.208079      0.941318      0.484475
    20     1      0.959880      0.691177      0.484810
    21     1      0.905854      0.542039      0.652548
    22     1      0.157582      0.791890      0.652643
    23     1      0.324143      0.901597      0.821655
    24     1      0.072557      0.650851      0.821834
    25     1      0.547081      0.990337      0.986719
    26     1      0.794195      0.240639      0.986106
    27     1      0.775789      0.411722      0.152889
    28     1      0.526027      0.161793      0.151736
    29     1      0.469066      0.014960      0.319491
    30     1      0.718672      0.264192      0.320535
    31     1      0.708471      0.441221      0.485633
    32     1      0.456746      0.191117      0.485311
    33     1      0.407835      0.041911      0.652227
    34     1      0.654675      0.292262      0.652681
    35     1      0.822160      0.400596      0.821566
    36     1      0.572118      0.150147      0.821745
    37     1      0.545367      0.490867      0.986554
    38     1      0.795868      0.740155      0.987367
    39     1      0.777045      0.911448      0.151957
    40     1      0.528466      0.661395      0.151544
    41     1      0.470674      0.514266      0.320411
    42     1      0.721224      0.764414      0.320318
    43     1      0.706298      0.940457      0.485162
    44     1      0.459112      0.690194      0.485349
    45     1      0.405878      0.541765      0.653097
    46     1      0.656767      0.791692      0.653219
    47     1      0.823090      0.901040      0.821988
    48     1      0.571404      0.650626      0.821975
ITEM: TIMESTEP
64350
ITEM: NUMBER OF ATOMS
48
ITEM: BOX BOUNDS xy xz yz  pp  pp  pp
     -0.003081      2.203080      0.000000
     -0.005336      3.815850      0.000000
     -0.007546      5.396420      0.000000
ITEM: ATOMS id type xs ys zs
     1     1      0.046836      0.991302      0.987156
     2     1      0.293956      0.239781      0.986836
     3     1      0.277085      0.412201      0.152116
     4     1      0.024544      0.161670      0.151128
     5     1      0.969748      0.014480      0.319305
     6     1      0.218371      0.263358      0.319054
     7     1      0.208279      0.439666      0.484995
     8     1      0.957383      0.189930      0.484847
     9     1      0.908637      0.041616      0.652875
    10     1      0.154483      0.291787      0.653092
    11     1      0.320997      0.401080      0.821902
    12     1      0.071573      0.150775      0.821955
    13     1      0.044975      0.489731      0.986977
    14     1      0.294618      0.740827      0.986476
    15     1      0.276891      0.911722      0.151822
    16     1      0.027387      0.661232      0.151922
    17     1      0.971862      0.514612      0.320579
    18     1      0.223065      0.764495      0.319309
    19     1      0.207812      0.940753      0.483777
    20     1      0.959524      0.690522      0.484900
    21     1      0.905668      0.541629      0.651920
    22     1      0.158637      0.791418      0.652602
    23     1      0.324350      0.901851      0.821867
    24     1      0.072691      0.651600      0.821546
    25     1      0.546455      0.990835      0.986844
    26     1      0.793839      0.240251      0.986444
    27     1      0.778114      0.411760      0.152568
    28     1      0.526096      0.161953      0.151853
    29     1      0.471282      0.014749      0.319934
    30     1      0.719963      0.265247      0.320559
    31     1      0.708646      0.440378      0.484948
    32     1      0.456208      0.191040      0.485092
    33     1      0.407247      0.041356      0.651671
    34     1      0.653342      0.291258      0.652245
    35     1      0.821730      0.400592      0.821675
    36     1      0.570546      0.150776      0.821579
    37     1      0.544711      0.489840      0.987194
    38     1      0.795879      0.740950      0.986852
    39     1      0.777405      0.911656      0.151621
    40     1      0.527180      0.661354      0.151867
    41     1      0.470409      0.514305      0.320295
    42     1      0.722256      0.764586      0.320021
    43     1      0.706327      0.940169      0.485298
    44     1      0.458806      0.689627      0.485584
    45     1      0.405355      0.541274      0.652620
    46     1      0.657405      0.791013      0.653491
    47     1      0.823604      0.900720      0.822151
    48     1      0.571906      0.650125      0.821918
ITEM: TIMESTEP
64400
ITEM: NUMBER OF ATOMS
48
ITEM: BOX BOUNDS xy xz yz  pp  pp  pp
     -0.003081      2.203080      0.000000
     -0.005336      3.815850      0.000000
     -0.007546      5.396420      0.000000
ITEM: ATOMS id type xs ys zs
     1     1      0.046672      0.990738      0.987287
     2     1      0.293670      0.241152      0.986774
     3     1      0.275103      0.412307      0.152234
     4     1      0.025968      0.161626      0.151515
     5     1      0.968805      0.014119      0.319626
     6     1      0.219002      0.263853      0.319607
     7     1      0.208228      0.439136      0.485658
     8     1      0.957879      0.189438      0.485120
     9     1      0.907125      0.040532      0.652626
    10     1      0.153781      0.292077      0.652888
    11     1      0.320851      0.401279      0.821699
    12     1      0.070485      0.150283      0.821681
    13     1      0.045311      0.490542      0.986737
    14     1      0.296435      0.740747      0.986687
    15     1      0.277917      0.911736      0.151883
    16     1      0.025981      0.661723      0.151754
    17     1      0.971732      0.515359      0.320615
    18     1      0.222134      0.764884      0.319355
    19     1      0.207237      0.940131      0.484123
    20     1      0.957792      0.690182      0.485172
    21     1      0.905865      0.541181      0.652487
    22     1      0.158055      0.791765      0.652957
    23     1      0.322663      0.900727      0.821939
    24     1      0.070794      0.651289      0.822145
    25     1      0.546309      0.990288      0.986759
    26     1      0.794589      0.240541      0.986063
    27     1      0.777766      0.411522      0.152312
    28     1      0.526588      0.162401      0.151011
    29     1      0.471231      0.014370      0.320055
    30     1      0.718569      0.264844      0.320134
    31     1      0.708643      0.439930      0.484781
    32     1      0.456633      0.190791      0.484622
    33     1      0.407448      0.041738      0.651817
    34     1      0.655617      0.291553      0.652523
    35     1      0.821489      0.400912      0.821233
    36     1      0.570849      0.150332      0.821263
    37     1      0.546216      0.489848      0.987291
    38     1      0.796773      0.740874      0.986603
    39     1      0.776879      0.911684      0.152088
    40     1      0.527223      0.661678      0.151811
    41     1      0.471580      0.514517      0.319841
    42     1      0.720816      0.764697      0.320465
    43     1      0.706048      0.939699      0.485578
    44     1      0.457124      0.689348      0.484938
    45     1      0.406581      0.540646      0.652322
    46     1      0.658081      0.790393      0.653278
    47     1      0.823375      0.901326      0.822077
    48     1      0.570347      0.650494      0.822381
ITEM: TIMESTEP
64450
ITEM: NUMBER OF ATOMS
48
ITEM: BOX BOUNDS xy xz yz  pp  pp  pp
     -0.003081      2.203080      0.000000
     -0.005336      3.815850      0.000000
     -0.007546      5.396420      0.000000
ITEM: ATOMS id type xs ys zs
     1     1      0.045883      0.991114      0.986919
     2     1      0.295321      0.241604      0.986578
     3     1      0.276260      0.412532      0.151638
     4     1      0.026288      0.161432      0.151767
     5     1      0.968270      0.015091      0.319726
     6     1      0.220267      0.263432      0.319486
     7     1      0.208556      0.440037      0.485398
     8     1      0.956367      0.189563      0.484910
     9     1      0.905820      0.040962      0.652951
    10     1      0.154442      0.290592      0.652596
    11     1      0.321495      0.401223      0.821538
    12     1      0.071175      0.151646      0.821689
    13     1      0.045622      0.489830      0.986313
    14     1      0.295837      0.740729      0.987637
    15     1      0.278130      0.912334      0.151761
    16     1      0.026480      0.661738      0.151372
    17     1      0.971857      0.515015      0.320056
    18     1      0.220634      0.765079      0.319508
    19     1      0.206336      0.939168      0.483923
    20     1      0.957506      0.690310      0.485584
    21     1      0.906935      0.540496      0.652388
    22     1      0.157622      0.790614      0.653136
    23     1      0.321146      0.901050      0.822077
    24     1      0.069901      0.651326      0.821966
    25     1      0.545797      0.990726      0.986845
    26     1      0.795401      0.240706      0.986307
    27     1      0.775687      0.411880      0.151935
    28     1      0.526978      0.161819      0.151695
    29     1      0.471415      0.015485      0.319613
    30     1      0.718698      0.265643      0.320319
    31     1      0.708757      0.439907      0.485018
    32     1      0.456119      0.190425      0.484383
    33     1      0.406662      0.040901      0.651476
    34     1      0.655084      0.290857      0.652578
    35     1      0.822196      0.400849      0.822204
    36     1      0.569690      0.150510      0.821414
    37     1      0.546073      0.490630      0.986418
    38     1      0.795864      0.740495      0.986225
    39     1      0.777813      0.911340      0.152022
    40     1      0.527566      0.662125      0.151978
    41     1      0.471242      0.514165      0.319525
    42     1      0.721117      0.765177      0.320512
    43     1      0.707838      0.939455      0.485000
    44     1      0.457391      0.689762      0.485232
    45     1      0.407290      0.541086      0.652756
    46     1      0.657738      0.790710      0.652741
    47     1      0.821847      0.902105      0.822766
    48     1      0.569747      0.651355      0.822496
ITEM: TIMESTEP
64500
ITEM: NUMBER OF ATOMS
48
ITEM: BOX BOUNDS xy xz yz  pp  pp  pp
     -0.003081      2.203080      0.000000
     -0.005336      3.815850      0.000000
     -0.007546      5.396420      0.000000
ITEM: ATOMS id type xs ys zs
     1     1      0.046265      0.990910      0.987309
     2     1      0.295477      0.241476      0.987464
     3     1      0.275749      0.413007      0.151861
     4     1      0.026690      0.161882      0.151509
     5     1      0.969753      0.015199      0.320087
     6     1      0.221085      0.264472      0.319230
     7     1      0.208159      0.440234      0.484633
     8     1      0.958453      0.189559      0.484689
     9     1      0.907397      0.040643      0.652502
    10     1      0.155494      0.290514      0.652637
    11     1      0.321640      0.401477      0.820912
    12     1      0.072003      0.151461      0.822007
    13     1      0.044706      0.490280      0.986460
    14     1      0.295356      0.740827      0.987457
    15     1      0.277368      0.912645      0.151741
    16     1      0.026424      0.661846      0.151388
    17     1      0.971030      0.514204      0.319425