 Input for lammps
 
        48 atoms
         1 atom types
       -0.003081        2.203080 xlo xhi
       -0.005336        3.815850 ylo yhi
       -0.007546        5.396420 zlo zhi
        0.000000        0.000000        0.000000  xy xz yz
 
 Masses
 
         1        1.0000000000
 
 Atoms
 
         1         1        0.1059306264       -0.0581126372        5.3268838478
         2         1        0.6432311604        0.9003874117        5.3231470270
         3         1        0.5981697128        1.5507350066        0.8088636611
         4         1        0.0440885421        0.6043049000        0.8040498112
         5         1        2.1316746501        0.0540070941        1.7181169919
         6         1        0.4826582589        1.0037511858        1.7143122156
         7         1        0.4638330455        1.6919397309        2.6111011406
         8         1        2.1162332483        0.7424687500        2.6168297579
         9         1        1.9979507748        0.1665251821        3.5110949065
        10         1        0.3379453580        1.1201823264        3.5223303774
        11         1        0.7127650195        1.5246803020        4.4409589196
        12         1        0.1598927362        0.5640866702        4.4323801557
        13         1        0.0817395060        1.8543403781        5.3233261985
        14         1        0.6389872230        2.8074382645        5.3270432635
        15         1        0.6106084264        3.4656213057        0.8139207175
        16         1        0.0560183684        2.5074556728        0.8203642230
        17         1        2.1365724261        1.9589177362        1.7235626821
        18         1        0.4772726735        2.9174952295        1.7191599360
        19         1        0.4601335213        3.6027790665        2.6101227610
        20         1        2.1188580910        2.6416402750        2.6171222764
        21         1        1.9938240397        2.0765224119        3.5170544980
        22         1        0.3454449196        3.0337038903        3.5221852977
        23         1        0.7251460389        3.4295671372        4.4317191996
        24         1        0.1592935686        2.4746082172        4.4351345608
        25         1        1.2143102287       -0.0542208198        5.3259236997
        26         1        1.7446533201        0.9049604921        5.3180606929
        27         1        1.6987840624        1.5596067934        0.8244074006
        28         1        1.1506772338        0.6100535193        0.8107517939
        29         1        1.0288976451        0.0531851283        1.7202975589
        30         1        1.5892233472        1.0096913789        1.7220909692
        31         1        1.5615952831        1.6923420970        2.6110168488
        32         1        1.0095881114        0.7405368045        2.6099500892
        33         1        0.9046701982        0.1581321529        3.5091384657
        34         1        1.4363936956        1.1236269569        3.5124552989
        35         1        1.8140406055        1.5202465955        4.4252307015
        36         1        1.2635367153        0.5647909474        4.4226697381
        37         1        1.1928627261        1.8616524429        5.3355266496
        38         1        1.7466677769        2.8102362186        5.3379221107
        39         1        1.7078018979        3.4678212967        0.8187025480
        40         1        1.1567168525        2.5141203189        0.8226271413
        41         1        1.0292898567        1.9598019650        1.7219920865
        42         1        1.5879387357        2.9161079555        1.7242226284
        43         1        1.5711386337        3.5945661089        2.6053867273
        44         1        1.0178031016        2.6457182271        2.6124233033
        45         1        0.8907006266        2.0741017096        3.5239327761
        46         1        1.4461565322        3.0271557750        3.5205721854
        47         1        1.8284645994        3.4253528859        4.4327898664
        48         1        1.2628477067        2.4755102831        4.4425818544
