 Input for lammps
 
        48 atoms
         1 atom types
       -0.003081        2.203080 xlo xhi
       -0.005336        3.815850 ylo yhi
       -0.007546        5.396420 zlo zhi
        0.000000        0.000000        0.000000  xy xz yz
 
 Masses
 
         1        1.0000000000
 
 Atoms
 
         1         1        0.0212110000        0.0005410000        5.3310213000
         2         1        0.5798309000        0.9545574000        5.3345285000
         3         1        0.5410179000        1.5874833000        0.8178612000
         4         1        0.0001356000        0.6322213000        0.8217953000
         5         1        2.1519742000        0.0309118000        1.7192265000
         6         1        0.5039830000        0.9916878000        1.7190104000
         7         1        0.4575632000        1.6794594000        2.6117077000
         8         1        2.1379211000        0.7210295000        2.6186843000
         9         1        2.1198194000        0.1029488000        3.5216058000
        10         1        0.4693772000        1.0548406000        3.5139971000
        11         1        0.5762084000        1.6138457000        4.4322825000
        12         1        0.0223274000        0.6611591000        4.4359570000
        13         1        0.0251358000        1.9102284000        5.3241420000
        14         1        0.5796389000        2.8665606000        5.3241258000
        15         1        0.5529863000        3.4983821000        0.8184989000
        16         1       -0.0017992000        2.5454469000        0.8160239000
        17         1        2.1399992000        1.9478136000        1.7116124000
        18         1        0.4869140000        2.9000876000        1.7165733000
        19         1        0.4777474000        3.5919018000        2.6234777000
        20         1        2.1258512000        2.6419854000        2.6177871000
        21         1        2.1063640000        2.0146956000        3.5042537000
        22         1        0.4523766000        2.9678752000        3.5212815000
        23         1        0.5626008000        3.5288332000        4.4322391000
        24         1        0.0209750000        2.5676098000        4.4260407000
        25         1        1.1276537000        0.0023790000        5.3257470000
        26         1        1.6822143000        0.9575074000        5.3282223000
        27         1        1.6450449000        1.5854314000        0.8164453000
        28         1        1.1051554000        0.6292598000        0.8211035000
        29         1        1.0464715000        0.0349431000        1.7229661000
        30         1        1.6072445000        0.9875648000        1.7179404000
        31         1        1.5663600000        1.6838001000        2.6130696000
        32         1        1.0334132000        0.7282018000        2.6230452000
        33         1        1.0152719000        0.1008013000        3.5230272000
        34         1        1.5741167000        1.0540152000        3.5173207000
        35         1        1.6786469000        1.6192603000        4.4266892000
        36         1        1.1234268000        0.6633754000        4.4360652000
        37         1        1.1270824000        1.9118984000        5.3250661000
        38         1        1.6789954000        2.8636220000        5.3216019000
        39         1        1.6557029000        3.4943850000        0.8180882000
        40         1        1.1027793000        2.5461273000        0.8205415000
        41         1        1.0367953000        1.9464762000        1.7158653000
        42         1        1.5863565000        2.9027778000        1.7262895000
        43         1        1.5781850000        3.5955854000        2.6223753000
        44         1        1.0183120000        2.6373620000        2.6207323000
        45         1        1.0053067000        2.0092201000        3.5126729000
        46         1        1.5570190000        2.9670118000        3.5122893000
        47         1        1.6679757000        3.5255392000        4.4297533000
        48         1        1.1204397000        2.5712974000        4.4233384000
