ITEM: TIMESTEP
1
ITEM: NUMBER OF ATOMS
7
ITEM: BOX BOUNDS ss ss ss
-2.8696 3.3399
-2.5067 3.5103
-1.6142 2.2163
ITEM: ATOMS id type xs ys zs
1 1 .516246 .999435 .478301
2 1 .999197 .601197 .443706
3 1 .774972 .001003 .468819
4 1 .140128 .047307 .527768
5 1 .000741 .661095 .552579
6 1 .513948 .456381 .998719
7 1 .469492 .452548 .001094
ITEM: TIMESTEP
50
ITEM: NUMBER OF ATOMS
7
ITEM: BOX BOUNDS ss ss ss
-2.8941 3.3657
-2.5282 3.5319
-1.6398 2.2409
ITEM: ATOMS id type xs ys zs
1 1 .516814 .995855 .476217
2 1 .995920 .602118 .440716
3 1 .772558 .005240 .468687
4 1 .144072 .051251 .525713
5 1 .005111 .660640 .551528
6 1 .516546 .456948 .989652
7 1 .468383 .453875 .007530
ITEM: TIMESTEP
100
ITEM: NUMBER OF ATOMS
7
ITEM: BOX BOUNDS ss ss ss
-2.9015 3.3713
-2.5442 3.5393
-1.6460 2.2455
ITEM: ATOMS id type xs ys zs
1 1 .517132 .993916 .480328
2 1 .992406 .600436 .444253
3 1 .770432 .006010 .473244
4 1 .139636 .053230 .529749
5 1 .005679 .659307 .553985
6 1 .512461 .455275 .988980
7 1 .468793 .451864 .010405
ITEM: TIMESTEP
150
ITEM: NUMBER OF ATOMS
7
ITEM: BOX BOUNDS ss ss ss
-2.8985 3.3748
-2.5445 3.5449
-1.6575 2.2483
ITEM: ATOMS id type xs ys zs
1 1 .517984 .991910 .481583
2 1 .992425 .598731 .446549
3 1 .771972 .005794 .471666
4 1 .143908 .052325 .531759
5 1 .009052 .660421 .552133
6 1 .514967 .453630 .991323
7 1 .467061 .452553 .008732
ITEM: TIMESTEP
200
ITEM: NUMBER OF ATOMS
7
ITEM: BOX BOUNDS ss ss ss
-2.9098 3.3705
-2.5453 3.5436
-1.6671 2.2553
ITEM: ATOMS id type xs ys zs
1 1 .519543 .993475 .482741
2 1 .993834 .598164 .449624
3 1 .769679 .007775 .470629
4 1 .145890 .051765 .527443
5 1 .007595 .661468 .558286
6 1 .511111 .457688 .988101
7 1 .470406 .456088 .014893
ITEM: TIMESTEP
250
ITEM: NUMBER OF ATOMS
7
ITEM: BOX BOUNDS ss ss ss
-2.9110 3.3735
-2.5557 3.5487
-1.6802 2.2499
ITEM: ATOMS id type xs ys zs
1 1 .517713 .994009 .488113
2 1 .989927 .600380 .448317
3 1 .768974 .006935 .468171
4 1 .150577 .052403 .527795
5 1 .008928 .660045 .562607
6 1 .515933 .458122 .987553
7 1 .468204 .455434 .009616
ITEM: TIMESTEP
300
ITEM: NUMBER OF ATOMS
7
ITEM: BOX BOUNDS ss ss ss
-2.9113 3.3702
-2.5513 3.5507
-1.6832 2.2558
ITEM: ATOMS id type xs ys zs
1 1 .517072 .995290 .488362
2 1 .990207 .599547 .448144
3 1 .770938 .007360 .468796
4 1 .150119 .052722 .528388
5 1 .008692 .658327 .566165
6 1 .515546 .456978 .987642
7 1 .468794 .455543 .012109
ITEM: TIMESTEP
350
ITEM: NUMBER OF ATOMS
7
ITEM: BOX BOUNDS ss ss ss
-2.9132 3.3736
-2.5429 3.5504
-1.6867 2.2556
ITEM: ATOMS id type xs ys zs
1 1 .520456 .994470 .479654
2 1 .994540 .594189 .449924
3 1 .770572 .009552 .472810
4 1 .151159 .046756 .536888
5 1 .004789 .660418 .555630
6 1 .506277 .459920 .988312
7 1 .466423 .452950 .013085
ITEM: TIMESTEP
400
ITEM: NUMBER OF ATOMS
7
ITEM: BOX BOUNDS ss ss ss
-2.9152 3.3686
-2.5458 3.5467
-1.6880 2.2607
ITEM: ATOMS id type xs ys zs
1 1 .519650 .995222 .482162
2 1 .990006 .602858 .444803
3 1 .766524 .010854 .487921
4 1 .156524 .049173 .537443
5 1 .010879 .656696 .539937
6 1 .515179 .463086 .990105
7 1 .471732 .457048 .006742
ITEM: TIMESTEP
1
ITEM: NUMBER OF ATOMS
7
ITEM: BOX BOUNDS ss ss ss
-2.9051 3.3572
-2.5465 3.5448
-1.6931 2.2574
ITEM: ATOMS id type xs ys zs
1 1 .517574 .993663 .484082
2 1 .996890 .600525 .450240
3 1 .774075 .007163 .474398
4 1 .144332 .053567 .531998
5 1 .006058 .659752 .555755
6 1 .515318 .457320 .988967
7 1 .471069 .453200 .021020
ITEM: TIMESTEP
50
ITEM: NUMBER OF ATOMS
7
ITEM: BOX BOUNDS ss ss ss
-2.9037 3.3658
-2.5465 3.5448
-1.6931 2.2574
ITEM: ATOMS id type xs ys zs
1 1 .515417 .994138 .486265
2 1 .995354 .603108 .450553
3 1 .772678 .006051 .474267
4 1 .144872 .051979 .531314
5 1 .006639 .660738 .555461
6 1 .514437 .456436 .986787
7 1 .471574 .453340 .018792
ITEM: TIMESTEP
100
ITEM: NUMBER OF ATOMS
7
ITEM: BOX BOUNDS ss ss ss
-2.9037 3.3738
-2.5465 3.5448
-1.6931 2.2574
ITEM: ATOMS id type xs ys zs
1 1 .515410 .992087 .489410
2 1 .994487 .606847 .449958
3 1 .771876 .004201 .473989
4 1 .145063 .050932 .531242
5 1 .006842 .659870 .554203
6 1 .513325 .455953 .986557
7 1 .471263 .453813 .020748
ITEM: TIMESTEP
150
ITEM: NUMBER OF ATOMS
7
ITEM: BOX BOUNDS ss ss ss
-2.9028 3.3794
-2.5438 3.5515
-1.6861 2.2574
ITEM: ATOMS id type xs ys zs
1 1 .514339 .991922 .483785
2 1 .990843 .599285 .448120
3 1 .771364 .004440 .468054
4 1 .146625 .050374 .528781
5 1 .005826 .660023 .556791
6 1 .510303 .456844 .992946
7 1 .468932 .451642 .017455
ITEM: TIMESTEP
200
ITEM: NUMBER OF ATOMS
7
ITEM: BOX BOUNDS ss ss ss
-2.9092 3.3748
-2.5464 3.5498
-1.6861 2.2574
ITEM: ATOMS id type xs ys zs
1 1 .517184 .992024 .481824
2 1 .992215 .597721 .446627
3 1 .771735 .010009 .471703
4 1 .144298 .054423 .538837
5 1 .008141 .662231 .549693
6 1 .512265 .457865 .984587
7 1 .470697 .452172 .015377
ITEM: TIMESTEP
250
ITEM: NUMBER OF ATOMS
7
ITEM: BOX BOUNDS ss ss ss
-2.9019 3.3778
-2.5508 3.5491
-1.6861 2.2540
ITEM: ATOMS id type xs ys zs
1 1 .517347 .993441 .477477
2 1 .990455 .601215 .445951
3 1 .768480 .010980 .478833
4 1 .145783 .054608 .541340
5 1 .010385 .660476 .547523
6 1 .510139 .459707 .990810
7 1 .472542 .449537 .008435
ITEM: TIMESTEP
300
ITEM: NUMBER OF ATOMS
7
ITEM: BOX BOUNDS ss ss ss
-2.9054 3.3755
-2.5570 3.5494
-1.6755 2.2565
ITEM: ATOMS id type xs ys zs
1 1 .519806 .991353 .483554
2 1 .995650 .600809 .454176
3 1 .769145 .012199 .468720
4 1 .146678 .054910 .533432
5 1 .009534 .660687 .550838
6 1 .512665 .458437 .986360
7 1 .468935 .456829 .008781
ITEM: TIMESTEP
350
ITEM: NUMBER OF ATOMS
7
ITEM: BOX BOUNDS ss ss ss
-2.9112 3.3740
-2.5473 3.5469
-1.6846 2.2617
ITEM: ATOMS id type xs ys zs
1 1 .517912 .990971 .484597
2 1 .995762 .598975 .456574
3 1 .768319 .010192 .471130
4 1 .146643 .055573 .532594
5 1 .011023 .660871 .552692
6 1 .513686 .456463 .983740
7 1 .469848 .455390 .007916
ITEM: TIMESTEP
400
ITEM: NUMBER OF ATOMS
7
ITEM: BOX BOUNDS ss ss ss
-2.9020 3.3719
-2.5482 3.5575
-1.6918 2.2621
ITEM: ATOMS id type xs ys zs
1 1 .516793 .992144 .488038
2 1 .990799 .597114 .443811
3 1 .770047 .006356 .479293
4 1 .151690 .051235 .525542
5 1 .006684 .661715 .563175
6 1 .507808 .454114 .988818
7 1 .469810 .454447 .011149
ITEM: TIMESTEP
1
ITEM: NUMBER OF ATOMS
7
ITEM: BOX BOUNDS ss ss ss
-2.9012 3.3596
-2.5413 3.5411
-1.6833 2.2590
ITEM: ATOMS id type xs ys zs
1 1 .517093 .994274 .482960
2 1 .996193 .600555 .447944
3 1 .774060 .006250 .473285
4 1 .143883 .052593 .530722
5 1 .005771 .660094 .554316
6 1 .514529 .457167 .988397
7 1 .470470 .453176 .018178
ITEM: TIMESTEP
50
ITEM: NUMBER OF ATOMS
7
ITEM: BOX BOUNDS ss ss ss
-2.9012 3.3669
-2.5413 3.5411
-1.6833 2.2590
ITEM: ATOMS id type xs ys zs
1 1 .517033 .994120 .481915
2 1 .994475 .600395 .448727
3 1 .772510 .006303 .471308
4 1 .143672 .051459 .532065
5 1 .005059 .659730 .552770
6 1 .515911 .456787 .991959
7 1 .470741 .454258 .020404
ITEM: TIMESTEP
100
ITEM: NUMBER OF ATOMS
7
ITEM: BOX BOUNDS ss ss ss
-2.9082 3.3707
-2.5400 3.5497
-1.6833 2.2590
ITEM: ATOMS id type xs ys zs
1 1 .516040 .993153 .479241
2 1 .993329 .599215 .447648
3 1 .773339 .006297 .473133
4 1 .143088 .048386 .530346
5 1 .005380 .660588 .552980
6 1 .520359 .456533 .993086
7 1 .470561 .453467 .018613
ITEM: TIMESTEP
150
ITEM: NUMBER OF ATOMS
7
ITEM: BOX BOUNDS ss ss ss
-2.9077 3.3793
-2.5491 3.5488
-1.6833 2.2590
ITEM: ATOMS id type xs ys zs
1 1 .516417 .992404 .489193
2 1 .992744 .601370 .443118
3 1 .771773 .008996 .476203
4 1 .147967 .050867 .525020
5 1 .006743 .662808 .553578
6 1 .511700 .458067 .985299
7 1 .472150 .451859 .016788
ITEM: TIMESTEP
200
ITEM: NUMBER OF ATOMS
7
ITEM: BOX BOUNDS ss ss ss
-2.9056 3.3820
-2.5596 3.5492
-1.6833 2.2590
ITEM: ATOMS id type xs ys zs
1 1 .517550 .992261 .488766
2 1 .992060 .603548 .441763
3 1 .770940 .010668 .479413
4 1 .146287 .053915 .525763
5 1 .006995 .662134 .551453
6 1 .513395 .459194 .980880
7 1 .473135 .451786 .015181
ITEM: TIMESTEP
250
ITEM: NUMBER OF ATOMS
7
ITEM: BOX BOUNDS ss ss ss
-2.9057 3.3776
-2.5537 3.5509
-1.6833 2.2590
ITEM: ATOMS id type xs ys zs
1 1 .514732 .993643 .481150
2 1 .993161 .597759 .450065
3 1 .768990 .006991 .472146
4 1 .149906 .054957 .531640
5 1 .001932 .659653 .556182
6 1 .511966 .462014 .991945
7 1 .466882 .453625 .015853
ITEM: TIMESTEP
300
ITEM: NUMBER OF ATOMS
7
ITEM: BOX BOUNDS ss ss ss
-2.9004 3.3802
-2.5576 3.5492
-1.6713 2.2590
ITEM: ATOMS id type xs ys zs
1 1 .516383 .994055 .482159
2 1 .991934 .600930 .447170
3 1 .766115 .009544 .477162
4 1 .148282 .050849 .527328
5 1 .003597 .658040 .556166
6 1 .508867 .456980 .985386
7 1 .471133 .456699 .011361
ITEM: TIMESTEP
350
ITEM: NUMBER OF ATOMS
7
ITEM: BOX BOUNDS ss ss ss
-2.9048 3.3756
-2.5470 3.5492
-1.6874 2.2590
ITEM: ATOMS id type xs ys zs
1 1 .519273 .992483 .479647
2 1 .993419 .599249 .452976
3 1 .767135 .005394 .476690
4 1 .148678 .052261 .528542
5 1 .006890 .663574 .567557
6 1 .509677 .459521 .986076
7 1 .472193 .456567 .015020
ITEM: TIMESTEP
400
ITEM: NUMBER OF ATOMS
7
ITEM: BOX BOUNDS ss ss ss
-2.8991 3.3735
-2.5600 3.5512
-1.6882 2.2573
ITEM: ATOMS id type xs ys zs
1 1 .516977 .992666 .480379
2 1 .994637 .599406 .452054
3 1 .766982 .006123 .475748
4 1 .146120 .053686 .525438
5 1 .006421 .665689 .568486
6 1 .509580 .459067 .984269
7 1 .473229 .457341 .018030
ITEM: TIMESTEP
1
ITEM: NUMBER OF ATOMS
7
ITEM: BOX BOUNDS ss ss ss
-2.9025 3.3557
-2.5413 3.5444
-1.6894 2.2511
ITEM: ATOMS id type xs ys zs
1 1 .517381 .993810 .484473
2 1 .997168 .600170 .450146
3 1 .774253 .006313 .475332
4 1 .144353 .052875 .532303
5 1 .005834 .659750 .555740
6 1 .515214 .456963 .990738
7 1 .471204 .452903 .020011
ITEM: TIMESTEP
50
ITEM: NUMBER OF ATOMS
7
ITEM: BOX BOUNDS ss ss ss
-2.9025 3.3639
-2.5413 3.5444
-1.6894 2.2511
ITEM: ATOMS id type xs ys zs
1 1 .516980 .991489 .484923
2 1 .995431 .599775 .450905
3 1 .772816 .007729 .473319
4 1 .146119 .053419 .531762
5 1 .005667 .658730 .556976
6 1 .513654 .455015 .990292
7 1 .469460 .454188 .018296
ITEM: TIMESTEP
100
ITEM: NUMBER OF ATOMS
7
ITEM: BOX BOUNDS ss ss ss
-2.9079 3.3721
-2.5506 3.5531
-1.6894 2.2522
ITEM: ATOMS id type xs ys zs
1 1 .516389 .989909 .483653
2 1 .993650 .600303 .450696
3 1 .773519 .010113 .475152
4 1 .144873 .054561 .526414
5 1 .005658 .658065 .558674
6 1 .512268 .455616 .986274
7 1 .467288 .453775 .020417
ITEM: TIMESTEP
150
ITEM: NUMBER OF ATOMS
7
ITEM: BOX BOUNDS ss ss ss
-2.9128 3.3800
-2.5445 3.5531
-1.6894 2.2558
ITEM: ATOMS id type xs ys zs
1 1 .517254 .990743 .483549
2 1 .991904 .603759 .451192
3 1 .771765 .010785 .478149
4 1 .145264 .054630 .533498
5 1 .006645 .659989 .557028
6 1 .513445 .459201 .989273
7 1 .471782 .451280 .018885
ITEM: TIMESTEP
200
ITEM: NUMBER OF ATOMS
7
ITEM: BOX BOUNDS ss ss ss
-2.9127 3.3757
-2.5482 3.5527
-1.6894 2.2670
ITEM: ATOMS id type xs ys zs
1 1 .518147 .990351 .476517
2 1 .992757 .598144 .451437
3 1 .779591 .007536 .472453
4 1 .145728 .054057 .530728
5 1 .007648 .658700 .559041
6 1 .511494 .453110 .982746
7 1 .470610 .448804 .013861
ITEM: TIMESTEP
250
ITEM: NUMBER OF ATOMS
7
ITEM: BOX BOUNDS ss ss ss
-2.9213 3.3802
-2.5528 3.5444
-1.6894 2.2643
ITEM: ATOMS id type xs ys zs
1 1 .516718 .990973 .473910
2 1 .991259 .600265 .452937
3 1 .780671 .007967 .470466
4 1 .146029 .055656 .530924
5 1 .008280 .658803 .556302
6 1 .512255 .453671 .985521
7 1 .470198 .448187 .013694
ITEM: TIMESTEP
300
ITEM: NUMBER OF ATOMS
7
ITEM: BOX BOUNDS ss ss ss
-2.9144 3.3778
-2.5456 3.5514
-1.6809 2.2671
ITEM: ATOMS id type xs ys zs
1 1 .518685 .991781 .484191
2 1 .992947 .600556 .443090
3 1 .771726 .005615 .476570
4 1 .147112 .055452 .527966
5 1 .007219 .663225 .554265
6 1 .511931 .457633 .979501
7 1 .473721 .453801 .012529
ITEM: TIMESTEP
350
ITEM: NUMBER OF ATOMS
7
ITEM: BOX BOUNDS ss ss ss
-2.9140 3.3738
-2.5492 3.5488
-1.6752 2.2618
ITEM: ATOMS id type xs ys zs
1 1 .518252 .990670 .484190
2 1 .991157 .600604 .442376
3 1 .773603 .006615 .478854
4 1 .146216 .053974 .532167
5 1 .007373 .661527 .554440
6 1 .515346 .458993 .979201
7 1 .475038 .455255 .013859
ITEM: TIMESTEP
400
ITEM: NUMBER OF ATOMS
7
ITEM: BOX BOUNDS ss ss ss
-2.9175 3.3722
-2.5528 3.5616
-1.6739 2.2702
ITEM: ATOMS id type xs ys zs
1 1 .520520 .993752 .480230
2 1 .986427 .600202 .453277
3 1 .774636 .012168 .472075
4 1 .146569 .055093 .528486
5 1 .010178 .658853 .551135
6 1 .510640 .455106 .987540
7 1 .469701 .457134 .011180
ITEM: TIMESTEP
1
ITEM: NUMBER OF ATOMS
7
ITEM: BOX BOUNDS ss ss ss
-2.9198 3.3648
-2.5415 3.5509
-1.6825 2.2656
ITEM: ATOMS id type xs ys zs
1 1 .518027 .992601 .481884
2 1 .995667 .599427 .448006
3 1 .773798 .006330 .472338
4 1 .146597 .052992 .530112
5 1 .008851 .658737 .553389
6 1 .515992 .456364 .986474
7 1 .471868 .452433 .018189
ITEM: TIMESTEP
50
ITEM: NUMBER OF ATOMS
7
ITEM: BOX BOUNDS ss ss ss
-2.9198 3.3666
-2.5415 3.5509
-1.6825 2.2656
ITEM: ATOMS id type xs ys zs
1 1 .518628 .994376 .479728
2 1 .995516 .598581 .447350
3 1 .774294 .004420 .471562
4 1 .143136 .055400 .530046
5 1 .009770 .659248 .553592
6 1 .514385 .457454 .989221
7 1 .471251 .452749 .016852
ITEM: TIMESTEP
100
ITEM: NUMBER OF ATOMS
7
ITEM: BOX BOUNDS ss ss ss
-2.9090 3.3723
-2.5415 3.5509
-1.6825 2.2656
ITEM: ATOMS id type xs ys zs
1 1 .516180 .993314 .480311
2 1 .991563 .596554 .439737
3 1 .771565 .002805 .472161
4 1 .141448 .051483 .529775
5 1 .007851 .661325 .553657
6 1 .514378 .451261 .988369
7 1 .470058 .452273 .022532
ITEM: TIMESTEP
150
ITEM: NUMBER OF ATOMS
7
ITEM: BOX BOUNDS ss ss ss
-2.9094 3.3798
-2.5495 3.5509
-1.6825 2.2656
ITEM: ATOMS id type xs ys zs
1 1 .515051 .988123 .478934
2 1 .994828 .600761 .448354
3 1 .772137 .008896 .469892
4 1 .145780 .053659 .526582
5 1 .008699 .659302 .554800
6 1 .513380 .462290 .984683
7 1 .469428 .453150 .023579
ITEM: TIMESTEP
200
ITEM: NUMBER OF ATOMS
7
ITEM: BOX BOUNDS ss ss ss
-2.9127 3.3824
-2.5747 3.5534
-1.6825 2.2656
ITEM: ATOMS id type xs ys zs
1 1 .515017 .989504 .482586
2 1 .991358 .606079 .445729
3 1 .771139 .012504 .472535
4 1 .143387 .057261 .533800
5 1 .007245 .660259 .557201
6 1 .513026 .455613 .981602
7 1 .471573 .453965 .014638
ITEM: TIMESTEP
250
ITEM: NUMBER OF ATOMS
7
ITEM: BOX BOUNDS ss ss ss
-2.9228 3.3875
-2.5605 3.5509
-1.6825 2.2656
ITEM: ATOMS id type xs ys zs
1 1 .520465 .992506 .482859
2 1 .990344 .597747 .444078
3 1 .775379 .012036 .472313
4 1 .145163 .057986 .537433
5 1 .006229 .661681 .556103
6 1 .511975 .458529 .979591
7 1 .468047 .456020 .012809
ITEM: TIMESTEP
300
ITEM: NUMBER OF ATOMS
7
ITEM: BOX BOUNDS ss ss ss
-2.9140 3.3878
-2.5536 3.5509
-1.6825 2.2656
ITEM: ATOMS id type xs ys zs
1 1 .519047 .991664 .482830
2 1 .991334 .597588 .442556
3 1 .774133 .008757 .472920
4 1 .141735 .056643 .538425
5 1 .003534 .659429 .555475
6 1 .512000 .458528 .979151
7 1 .466035 .456727 .011593
ITEM: TIMESTEP
350
ITEM: NUMBER OF ATOMS
7
ITEM: BOX BOUNDS ss ss ss
-2.9256 3.3900
-2.5614 3.5503
-1.6825 2.2594
ITEM: ATOMS id type xs ys zs
1 1 .517817 .990694 .485625
2 1 .992081 .599470 .446932
3 1 .770827 .013885 .475834
4 1 .147484 .056241 .529096
5 1 .006643 .657345 .551637
6 1 .508967 .458588 .988019
7 1 .469296 .454882 .010267
ITEM: TIMESTEP
400
ITEM: NUMBER OF ATOMS
7
ITEM: BOX BOUNDS ss ss ss
-2.9291 3.3963
-2.5599 3.5461
-1.6860 2.2589
ITEM: ATOMS id type xs ys zs
1 1 .518966 .990644 .488569
2 1 .992251 .600806 .447445
3 1 .770974 .012720 .478392
4 1 .146006 .056783 .532053
5 1 .006928 .658325 .552935
6 1 .507436 .456657 .988808
7 1 .469713 .456592 .009365
ITEM: TIMESTEP
1
ITEM: NUMBER OF ATOMS
7
ITEM: BOX BOUNDS ss ss ss
-2.9252 3.3835
-2.5450 3.5421
-1.6825 2.2566
ITEM: ATOMS id type xs ys zs
1 1 .516994 .994441 .483002
2 1 .992696 .600655 .448677
3 1 .771306 .007122 .473236
4 1 .146614 .053531 .531019
5 1 .009390 .659869 .554211
6 1 .514390 .457307 .988711
7 1 .471160 .453494 .018301
ITEM: TIMESTEP
50
ITEM: NUMBER OF ATOMS
7
ITEM: BOX BOUNDS ss ss ss
-2.9252 3.3835
-2.5450 3.5421
-1.6825 2.2566
ITEM: ATOMS id type xs ys zs
1 1 .516811 .994487 .481765
2 1 .993338 .599559 .448785
3 1 .771710 .007443 .472139
4 1 .145805 .053506 .534649
5 1 .010602 .662299 .553946
6 1 .514188 .458699 .989848
7 1 .472056 .451883 .019164
ITEM: TIMESTEP
100
ITEM: NUMBER OF ATOMS
7
ITEM: BOX BOUNDS ss ss ss
-2.9204 3.3835
-2.5450 3.5421
-1.6825 2.2566
ITEM: ATOMS id type xs ys zs
1 1 .514947 .994035 .480714
2 1 .995924 .599842 .448089
3 1 .774283 .007044 .471330
4 1 .145956 .055169 .532627
5 1 .006432 .663113 .557965
6 1 .514495 .457827 .988532
7 1 .474758 .450826 .022957
ITEM: TIMESTEP
150
ITEM: NUMBER OF ATOMS
7
ITEM: BOX BOUNDS ss ss ss
-2.9204 3.3795
-2.5484 3.5421
-1.6825 2.2566
ITEM: ATOMS id type xs ys zs
1 1 .515640 .994757 .481573
2 1 .994934 .600834 .445906
3 1 .774314 .009109 .470954
4 1 .143271 .053531 .533670
5 1 .008397 .663279 .556390
6 1 .517202 .455621 .983763
7 1 .471355 .451211 .017011
ITEM: TIMESTEP
200
ITEM: NUMBER OF ATOMS
7
ITEM: BOX BOUNDS ss ss ss
-2.9204 3.3831
-2.5503 3.5480
-1.6825 2.2566
ITEM: ATOMS id type xs ys zs
1 1 .512980 .988610 .487528
2 1 .991728 .599237 .446780
3 1 .773472 .008380 .468939
4 1 .149917 .058268 .533417
5 1 .004165 .659236 .553493
6 1 .514535 .455744 .986779
7 1 .468135 .453458 .008415
ITEM: TIMESTEP
250
ITEM: NUMBER OF ATOMS
7
ITEM: BOX BOUNDS ss ss ss
-2.9204 3.3839
-2.5561 3.5521
-1.6825 2.2566
ITEM: ATOMS id type xs ys zs
1 1 .514684 .988029 .489068
2 1 .993544 .598976 .445885
3 1 .774147 .009609 .469607
4 1 .147875 .059220 .532191
5 1 .001310 .660100 .556009
6 1 .515032 .455708 .986810
7 1 .469078 .453598 .010986
ITEM: TIMESTEP
300
ITEM: NUMBER OF ATOMS
7
ITEM: BOX BOUNDS ss ss ss
-2.9144 3.3821
-2.5610 3.5455
-1.6825 2.2566
ITEM: ATOMS id type xs ys zs
1 1 .523252 .990721 .486896
2 1 .991624 .601679 .448686
3 1 .771758 .009740 .475105
4 1 .143825 .056377 .531740
5 1 .012351 .663617 .560648
6 1 .511507 .456283 .988563
7 1 .471915 .454977 .010494
ITEM: TIMESTEP
350
ITEM: NUMBER OF ATOMS
7
ITEM: BOX BOUNDS ss ss ss
-2.9142 3.3869
-2.5580 3.5562
-1.6844 2.2566
ITEM: ATOMS id type xs ys zs
1 1 .523735 .990203 .489769
2 1 .990043 .601353 .448333
3 1 .772959 .008528 .477157
4 1 .142927 .058258 .530581
5 1 .011505 .661298 .562916
6 1 .511615 .453564 .985387
7 1 .470729 .451478 .012753
ITEM: TIMESTEP
400
ITEM: NUMBER OF ATOMS
7
ITEM: BOX BOUNDS ss ss ss
-2.9100 3.3780
-2.5506 3.5422
-1.6890 2.2566
ITEM: ATOMS id type xs ys zs
1 1 .522872 .992678 .481624
2 1 .993031 .602174 .448924
3 1 .775088 .006134 .477877
4 1 .146859 .057162 .536564
5 1 .009020 .667816 .558964
6 1 .512381 .457299 .984967
7 1 .470646 .452795 .014360
ITEM: TIMESTEP
1
ITEM: NUMBER OF ATOMS
7
ITEM: BOX BOUNDS ss ss ss
-2.9132 3.3793
-2.5474 3.5440
-1.6829 2.2566
ITEM: ATOMS id type xs ys zs
1 1 .516544 .993655 .482952
2 1 .993110 .600634 .448515
3 1 .771621 .007271 .473593
4 1 .145226 .053654 .530775
5 1 .007555 .659692 .554720
6 1 .514197 .457495 .989027
7 1 .470442 .453493 .018828
ITEM: TIMESTEP
50
ITEM: NUMBER OF ATOMS
7
ITEM: BOX BOUNDS ss ss ss
-2.9132 3.3793
-2.5474 3.5440
-1.6829 2.2566
ITEM: ATOMS id type xs ys zs
1 1 .517171 .992141 .482317
2 1 .991985 .600366 .445587
3 1 .770416 .008622 .471531
4 1 .146180 .054015 .529802
5 1 .009090 .659680 .552530
6 1 .515348 .455691 .987500
7 1 .468199 .453491 .019777
ITEM: TIMESTEP
100
ITEM: NUMBER OF ATOMS
7
ITEM: BOX BOUNDS ss ss ss
-2.9132 3.3793
-2.5474 3.5440
-1.6829 2.2566
ITEM: ATOMS id type xs ys zs
1 1 .518656 .994839 .485627
2 1 .991456 .599506 .448593
3 1 .773323 .009073 .472685
4 1 .144424 .054041 .530713
5 1 .009025 .661501 .553799
6 1 .514584 .456758 .986919
7 1 .472901 .453981 .017748
ITEM: TIMESTEP
150
ITEM: NUMBER OF ATOMS
7
ITEM: BOX BOUNDS ss ss ss
-2.9132 3.3793
-2.5474 3.5453
-1.6828 2.2566
ITEM: ATOMS id type xs ys zs
1 1 .519087 .990400 .485248
2 1 .991540 .604004 .448107
3 1 .771164 .007193 .471537
4 1 .144176 .055674 .528259
5 1 .006481 .659126 .552131
6 1 .511606 .454970 .985477
7 1 .472236 .453794 .016842
ITEM: TIMESTEP
200
ITEM: NUMBER OF ATOMS
7
ITEM: BOX BOUNDS ss ss ss
-2.9176 3.3816
-2.5539 3.5453
-1.6825 2.2566
ITEM: ATOMS id type xs ys zs
1 1 .520656 .991572 .485546
2 1 .992750 .607329 .447157
3 1 .775654 .006792 .474520
4 1 .143073 .057284 .525329
5 1 .005382 .659933 .554016
6 1 .509807 .454484 .985499
7 1 .472136 .454489 .020339
ITEM: TIMESTEP
250
ITEM: NUMBER OF ATOMS
7
ITEM: BOX BOUNDS ss ss ss
-2.9149 3.3843
-2.5576 3.5460
-1.6825 2.2566
ITEM: ATOMS id type xs ys zs
1 1 .512684 .993936 .488164
2 1 .993048 .600098 .453045
3 1 .770040 .010019 .476558
4 1 .143068 .053552 .531909
5 1 .007204 .654921 .555499
6 1 .510008 .457382 .989652
7 1 .473786 .455436 .018699
ITEM: TIMESTEP
300
ITEM: NUMBER OF ATOMS
7
ITEM: BOX BOUNDS ss ss ss
-2.9120 3.3797
-2.5509 3.5535
-1.6825 2.2572
ITEM: ATOMS id type xs ys zs
1 1 .516152 .989798 .486912
2 1 .988998 .602578 .455009
3 1 .771019 .005802 .471303
4 1 .144030 .055143 .541299
5 1 .009381 .658801 .553953
6 1 .512860 .457310 .989639
7 1 .472404 .452220 .015720
ITEM: TIMESTEP
350
ITEM: NUMBER OF ATOMS
7
ITEM: BOX BOUNDS ss ss ss
-2.9145 3.3836
-2.5522 3.5550
-1.6825 2.2625
ITEM: ATOMS id type xs ys zs
1 1 .514500 .986568 .485808
2 1 .989138 .601558 .446911
3 1 .773057 .012375 .476737
4 1 .142264 .057852 .526032
5 1 .003167 .661037 .554062
6 1 .507313 .453250 .987716
7 1 .470511 .454462 .017817
ITEM: TIMESTEP
400
ITEM: NUMBER OF ATOMS
7
ITEM: BOX BOUNDS ss ss ss
-2.9112 3.3837
-2.5544 3.5506
-1.6825 2.2640
ITEM: ATOMS id type xs ys zs
1 1 .515753 .986685 .483822
2 1 .988816 .602005 .448505
3 1 .774748 .012813 .474238
4 1 .141492 .058050 .524979
5 1 .001697 .661163 .554882
6 1 .505450 .453424 .985362
7 1 .469981 .455243 .018006
ITEM: TIMESTEP
1
ITEM: NUMBER OF ATOMS
7
ITEM: BOX BOUNDS ss ss ss
-2.9033 3.3732
-2.5405 3.5488
-1.6825 2.2573
ITEM: ATOMS id type xs ys zs
1 1 .516028 .992847 .482460
2 1 .994051 .599607 .448304
3 1 .771830 .005805 .472732
4 1 .143905 .052811 .530852
5 1 .005990 .658900 .554184
6 1 .513766 .456569 .988439
7 1 .469651 .452367 .017964
ITEM: TIMESTEP
50
ITEM: NUMBER OF ATOMS
7
ITEM: BOX BOUNDS ss ss ss
-2.9033 3.3732
-2.5405 3.5488
-1.6825 2.2573
ITEM: ATOMS id type xs ys zs
1 1 .516679 .993589 .485180
2 1 .994917 .601723 .447709
3 1 .773105 .006081 .470165
4 1 .143283 .053333 .533465
5 1 .006454 .657389 .554957
6 1 .511890 .455447 .989463
7 1 .469100 .451957 .018796
ITEM: TIMESTEP
100
ITEM: NUMBER OF ATOMS
7
ITEM: BOX BOUNDS ss ss ss
-2.9094 3.3773
-2.5405 3.5507
-1.6825 2.2573
ITEM: ATOMS id type xs ys zs
1 1 .515596 .993296 .488576
2 1 .996681 .603248 .445219
3 1 .774289 .007486 .469485
4 1 .142512 .053474 .533077
5 1 .005821 .656042 .553181
6 1 .509710 .454486 .990656
7 1 .469111 .450373 .017869
ITEM: TIMESTEP
150
ITEM: NUMBER OF ATOMS
7
ITEM: BOX BOUNDS ss ss ss
-2.9093 3.3889
-2.5485 3.5488
-1.6825 2.2610
ITEM: ATOMS id type xs ys zs
1 1 .512071 .988751 .478106
2 1 .995394 .601078 .449669
3 1 .767662 .009229 .475157
4 1 .143081 .054284 .533067
5 1 .006778 .657641 .555473
6 1 .514331 .457674 .993023
7 1 .468737 .454559 .020235
ITEM: TIMESTEP
200
ITEM: NUMBER OF ATOMS
7
ITEM: BOX BOUNDS ss ss ss
-2.9133 3.3861
-2.5552 3.5508
-1.6825 2.2638
ITEM: ATOMS id type xs ys zs
1 1 .512638 .992713 .486419
2 1 .992792 .600955 .442921
3 1 .773277 .007890 .467804
4 1 .144062 .057859 .524428
5 1 .004877 .662999 .548943
6 1 .508232 .457072 .986588
7 1 .476608 .453254 .017992
ITEM: TIMESTEP
250
ITEM: NUMBER OF ATOMS
7
ITEM: BOX BOUNDS ss ss ss
-2.9145 3.3777
-2.5587 3.5534
-1.6825 2.2573
ITEM: ATOMS id type xs ys zs
1 1 .513716 .992938 .483129
2 1 .993797 .598793 .448752
3 1 .768701 .009934 .478741
4 1 .143990 .052145 .531659
5 1 .006908 .658311 .554838
6 1 .510409 .458815 .985086
7 1 .472772 .456157 .011346
ITEM: TIMESTEP
300
ITEM: NUMBER OF ATOMS
7
ITEM: BOX BOUNDS ss ss ss
-2.9145 3.3849
-2.5466 3.5648
-1.6825 2.2573
ITEM: ATOMS id type xs ys zs
1 1 .512909 .991262 .484851
2 1 .988224 .597959 .447502
3 1 .772816 .004458 .471381
4 1 .145131 .056836 .528503
5 1 .004524 .660498 .552524
6 1 .509069 .453858 .978761
7 1 .468958 .454964 .013797
ITEM: TIMESTEP
350
ITEM: NUMBER OF ATOMS
7
ITEM: BOX BOUNDS ss ss ss
-2.9172 3.3750
-2.5532 3.5603
-1.6825 2.2638
ITEM: ATOMS id type xs ys zs
1 1 .514418 .991820 .482057
2 1 .990927 .598751 .446074
3 1 .774360 .007459 .472702
4 1 .144473 .058773 .528720
5 1 .004683 .662754 .550632
6 1 .509708 .451839 .975560
7 1 .468745 .456344 .013579
ITEM: TIMESTEP
400
ITEM: NUMBER OF ATOMS
7
ITEM: BOX BOUNDS ss ss ss
-2.9188 3.3717
-2.5551 3.5577
-1.6825 2.2585
ITEM: ATOMS id type xs ys zs
1 1 .515698 .990242 .493982
2 1 .991643 .597247 .454891
3 1 .768238 .010110 .476062
4 1 .145205 .057012 .531326
5 1 .007977 .658557 .559630
6 1 .511651 .456652 .983481
7 1 .473435 .457136 .008700
ITEM: TIMESTEP
1
ITEM: NUMBER OF ATOMS
7
ITEM: BOX BOUNDS ss ss ss
-2.9144 3.3718
-2.5549 3.5478
-1.6830 2.2551
ITEM: ATOMS id type xs ys zs
1 1 .516965 .993238 .482493
2 1 .994546 .600820 .449100
3 1 .772153 .008343 .473628
4 1 .145605 .054883 .531758
5 1 .008019 .659649 .554853
6 1 .514845 .457930 .989006
7 1 .470864 .453861 .018099
ITEM: TIMESTEP
50
ITEM: NUMBER OF ATOMS
7
ITEM: BOX BOUNDS ss ss ss
-2.9144 3.3718
-2.5518 3.5478
-1.6830 2.2551
ITEM: ATOMS id type xs ys zs
1 1 .516036 .994943 .483195
2 1 .995659 .600529 .449951
3 1 .772780 .008535 .473723
4 1 .142887 .053987 .536873
5 1 .006511 .659784 .552273
6 1 .515475 .458673 .986363
7 1 .472376 .453120 .021530
ITEM: TIMESTEP
100
ITEM: NUMBER OF ATOMS
7
ITEM: BOX BOUNDS ss ss ss
-2.9144 3.3808
-2.5518 3.5486
-1.6830 2.2551
ITEM: ATOMS id type xs ys zs
1 1 .514668 .994314 .483242
2 1 .992393 .601767 .450289
3 1 .772446 .009312 .475960
4 1 .140641 .054685 .539725
5 1 .007387 .661578 .548366
6 1 .512951 .459825 .987187
7 1 .472254 .451824 .023443
ITEM: TIMESTEP
150
ITEM: NUMBER OF ATOMS
7
ITEM: BOX BOUNDS ss ss ss
-2.9144 3.3794
-2.5525 3.5500
-1.6830 2.2551
ITEM: ATOMS id type xs ys zs
1 1 .518030 .992794 .483099
2 1 .990642 .602335 .449356
3 1 .770787 .006566 .473025
4 1 .145069 .055499 .529305
5 1 .004938 .660094 .557315
6 1 .513740 .459578 .989590
7 1 .472808 .453087 .015717
ITEM: TIMESTEP
200
ITEM: NUMBER OF ATOMS
7
ITEM: BOX BOUNDS ss ss ss
-2.9144 3.3783
-2.5644 3.5624
-1.6830 2.2551
ITEM: ATOMS id type xs ys zs
1 1 .516169 .991742 .481677
2 1 .990811 .603007 .455872
3 1 .769829 .011820 .468384
4 1 .146239 .052892 .531979
5 1 .010657 .658308 .558501
6 1 .511432 .454378 .992389
7 1 .471876 .452961 .018364
ITEM: TIMESTEP
250
ITEM: NUMBER OF ATOMS
7
ITEM: BOX BOUNDS ss ss ss
-2.9154 3.3860
-2.5568 3.5599
-1.6830 2.2628
ITEM: ATOMS id type xs ys zs
1 1 .512281 .993100 .492276
2 1 .991240 .602482 .449798
3 1 .771496 .012594 .470814
4 1 .144508 .058013 .523848
5 1 .004664 .659424 .561010
6 1 .510516 .458048 .987511
7 1 .472034 .455402 .015875
ITEM: TIMESTEP
300
ITEM: NUMBER OF ATOMS
7
ITEM: BOX BOUNDS ss ss ss
-2.9144 3.3899
-2.5518 3.5532
-1.6830 2.2551
ITEM: ATOMS id type xs ys zs
1 1 .518791 .992799 .484306
2 1 .988497 .603761 .453768
3 1 .771776 .006596 .475101
4 1 .145777 .053036 .520804
5 1 .010961 .660943 .560599
6 1 .512311 .454352 .991359
7 1 .465522 .457044 .016524
ITEM: TIMESTEP
350
ITEM: NUMBER OF ATOMS
7
ITEM: BOX BOUNDS ss ss ss
-2.9144 3.3786
-2.5518 3.5485
-1.6847 2.2551
ITEM: ATOMS id type xs ys zs
1 1 .520540 .991643 .475963
2 1 .993620 .603499 .451428
3 1 .776808 .013279 .468740
4 1 .148699 .052895 .525742
5 1 .008982 .664337 .561902
6 1 .510601 .450966 .992656
7 1 .467977 .455404 .012100
ITEM: TIMESTEP
400
ITEM: NUMBER OF ATOMS
7
ITEM: BOX BOUNDS ss ss ss
-2.9100 3.3716
-2.5590 3.5532
-1.6842 2.2551
ITEM: ATOMS id type xs ys zs
1 1 .519771 .991256 .486291
2 1 .993266 .605801 .457079
3 1 .773627 .009429 .474124
4 1 .147849 .053254 .521331
5 1 .006978 .660769 .560531
6 1 .513204 .455138 .987173
7 1 .472478 .457637 .016018
ITEM: TIMESTEP
1
ITEM: NUMBER OF ATOMS
7
ITEM: BOX BOUNDS ss ss ss
-2.9046 3.3671
-2.5512 3.5431
-1.6829 2.2552
ITEM: ATOMS id type xs ys zs
1 1 .516953 .994028 .483284
2 1 .994727 .600790 .449061
3 1 .772817 .008185 .473378
4 1 .144465 .054510 .531034
5 1 .006112 .660280 .554993
6 1 .514584 .457963 .989284
7 1 .470376 .453617 .018692
ITEM: TIMESTEP
50
ITEM: NUMBER OF ATOMS
7
ITEM: BOX BOUNDS ss ss ss
-2.9046 3.3671
-2.5512 3.5431
-1.6829 2.2552
ITEM: ATOMS id type xs ys zs
1 1 .515220 .995656 .482654
2 1 .994339 .600451 .448160
3 1 .774636 .008618 .471304
4 1 .141447 .054548 .527668
5 1 .005560 .659295 .555055
6 1 .514702 .456782 .986661
7 1 .469692 .452843 .022567
ITEM: TIMESTEP
100
ITEM: NUMBER OF ATOMS
7
ITEM: BOX BOUNDS ss ss ss
-2.9050 3.3790
-2.5512 3.5431
-1.6829 2.2552
ITEM: ATOMS id type xs ys zs
1 1 .513956 .996441 .478405
2 1 .993979 .600132 .449035
3 1 .775976 .006138 .471964
4 1 .141941 .055221 .527698
5 1 .007584 .661568 .553512
6 1 .513341 .457721 .993793
7 1 .469899 .450132 .016213
ITEM: TIMESTEP
150
ITEM: NUMBER OF ATOMS
7
ITEM: BOX BOUNDS ss ss ss
-2.9046 3.3857
-2.5512 3.5543
-1.6829 2.2573
ITEM: ATOMS id type xs ys zs
1 1 .515865 .993438 .478612
2 1 .990241 .596865 .447205
3 1 .772253 .009968 .474719
4 1 .143754 .054737 .525959
5 1 .009642 .660917 .550377
6 1 .515598 .456984 .987116
7 1 .470362 .453892 .015094
ITEM: TIMESTEP
200
ITEM: NUMBER OF ATOMS
7
ITEM: BOX BOUNDS ss ss ss
-2.9112 3.3957
-2.5552 3.5605
-1.6829 2.2557
ITEM: ATOMS id type xs ys zs
1 1 .515492 .989174 .483458
2 1 .990756 .600948 .447528
3 1 .767930 .008502 .477791
4 1 .142276 .056637 .528647
5 1 .007880 .659838 .551728
6 1 .509266 .455810 .985074
7 1 .469787 .452504 .011406
ITEM: TIMESTEP
250
ITEM: NUMBER OF ATOMS
7
ITEM: BOX BOUNDS ss ss ss
-2.9088 3.3919
-2.5512 3.5556
-1.6825 2.2551
ITEM: ATOMS id type xs ys zs
1 1 .513201 .989848 .476546
2 1 .991981 .600940 .445032
3 1 .769675 .006559 .476815
4 1 .138916 .056557 .528304
5 1 .006498 .661673 .550599
6 1 .508626 .455382 .985557
7 1 .469634 .452095 .010274
ITEM: TIMESTEP
300
ITEM: NUMBER OF ATOMS
7
ITEM: BOX BOUNDS ss ss ss
-2.9088 3.3786
-2.5536 3.5474
-1.6825 2.2551
ITEM: ATOMS id type xs ys zs
1 1 .518697 .993741 .489640
2 1 .992834 .606371 .444190
3 1 .770992 .009311 .486042
4 1 .140270 .054050 .524885
5 1 .007264 .663025 .556923
6 1 .507804 .456625 .986696
7 1 .473336 .453282 .015668
ITEM: TIMESTEP
350
ITEM: NUMBER OF ATOMS
7
ITEM: BOX BOUNDS ss ss ss
-2.9166 3.3787
-2.5512 3.5468
-1.6825 2.2551
ITEM: ATOMS id type xs ys zs
1 1 .522797 .993577 .487495