ITEM: TIMESTEP
1
ITEM: NUMBER OF ATOMS
7
ITEM: BOX BOUNDS ss ss ss
-2.8696 3.3399
-2.5067 3.5103
-1.6142 2.2163
ITEM: ATOMS id type xs ys zs
1 1 .516299 .999316 .478885
2 1 .999357 .601199 .443672
3 1 .774786 .000721 .468878
4 1 .140251 .047665 .528368
5 1 .000644 .661223 .552413
6 1 .513783 .456373 .999063
7 1 .469397 .452354 .000760
ITEM: TIMESTEP
50
ITEM: NUMBER OF ATOMS
7
ITEM: BOX BOUNDS ss ss ss
-2.8941 3.3657
-2.5282 3.5319
-1.6398 2.2409
ITEM: ATOMS id type xs ys zs
1 1 .517471 .994512 .478178
2 1 .994073 .599929 .444882
3 1 .771973 .005217 .468165
4 1 .145150 .049423 .528131
5 1 .003876 .661434 .554474
6 1 .510727 .457676 .992188
7 1 .467821 .452872 .003355
ITEM: TIMESTEP
100
ITEM: NUMBER OF ATOMS
7
ITEM: BOX BOUNDS ss ss ss
-2.9015 3.3713
-2.5442 3.5393
-1.6460 2.2455
ITEM: ATOMS id type xs ys zs
1 1 .517501 .995598 .482364
2 1 .991140 .602627 .442828
3 1 .770006 .006663 .468200
4 1 .149607 .052502 .531417
5 1 .007409 .658566 .553128
6 1 .514626 .458611 .991972
7 1 .471269 .453650 .003409
ITEM: TIMESTEP
150
ITEM: NUMBER OF ATOMS
7
ITEM: BOX BOUNDS ss ss ss
-2.8985 3.3748
-2.5445 3.5449
-1.6575 2.2483
ITEM: ATOMS id type xs ys zs
1 1 .517406 .993432 .482300
2 1 .992327 .597111 .446345
3 1 .769655 .008874 .466005
4 1 .147527 .050237 .531350
5 1 .004504 .659616 .552550
6 1 .508980 .459477 .988816
7 1 .467736 .454269 .003570
ITEM: TIMESTEP
200
ITEM: NUMBER OF ATOMS
7
ITEM: BOX BOUNDS ss ss ss
-2.9098 3.3705
-2.5453 3.5436
-1.6671 2.2553
ITEM: ATOMS id type xs ys zs
1 1 .518423 .992845 .480627
2 1 .992897 .598017 .448759
3 1 .770289 .009535 .468766
4 1 .150504 .050435 .532032
5 1 .006449 .658667 .550778
6 1 .510886 .460076 .986751
7 1 .469698 .453961 .006353
ITEM: TIMESTEP
250
ITEM: NUMBER OF ATOMS
7
ITEM: BOX BOUNDS ss ss ss
-2.9110 3.3735
-2.5557 3.5487
-1.6802 2.2499
ITEM: ATOMS id type xs ys zs
1 1 .520385 .992581 .483504
2 1 .992712 .597561 .450753
3 1 .769315 .011766 .473258
4 1 .152719 .050819 .535450
5 1 .007293 .659483 .552386
6 1 .510120 .461419 .990771
7 1 .468350 .454645 .009947
ITEM: TIMESTEP
300
ITEM: NUMBER OF ATOMS
7
ITEM: BOX BOUNDS ss ss ss
-2.9113 3.3702
-2.5513 3.5507
-1.6832 2.2558
ITEM: ATOMS id type xs ys zs
1 1 .517661 .993562 .482097
2 1 .991543 .597773 .445473
3 1 .767465 .010716 .470742
4 1 .153372 .053318 .537309
5 1 .006595 .657428 .549763
6 1 .510754 .462430 .987821
7 1 .469278 .455585 .006887
ITEM: TIMESTEP
350
ITEM: NUMBER OF ATOMS
7
ITEM: BOX BOUNDS ss ss ss
-2.9132 3.3736
-2.5429 3.5504
-1.6867 2.2556
ITEM: ATOMS id type xs ys zs
1 1 .517351 .994016 .482185
2 1 .990146 .596345 .447065
3 1 .767524 .008623 .472505
4 1 .154385 .051527 .535738
5 1 .007266 .657242 .547965
6 1 .509317 .462099 .986778
7 1 .469200 .456303 .006904
ITEM: TIMESTEP
400
ITEM: NUMBER OF ATOMS
7
ITEM: BOX BOUNDS ss ss ss
-2.9152 3.3686
-2.5458 3.5467
-1.6880 2.2607
ITEM: ATOMS id type xs ys zs
1 1 .519003 .995519 .482978
2 1 .989955 .597386 .448032
3 1 .766640 .009690 .474587
4 1 .154836 .052302 .534383
5 1 .007058 .658495 .548463
6 1 .509239 .463038 .986539
7 1 .469558 .458402 .006895
ITEM: TIMESTEP
1
ITEM: NUMBER OF ATOMS
7
ITEM: BOX BOUNDS ss ss ss
-2.9051 3.3572
-2.5465 3.5448
-1.6931 2.2574
ITEM: ATOMS id type xs ys zs
1 1 .517613 .993644 .484319
2 1 .996575 .600395 .450162
3 1 .773926 .007237 .474596
4 1 .144734 .053614 .532309
5 1 .006305 .659658 .555598
6 1 .515097 .457341 .988678
7 1 .471112 .453360 .020699
ITEM: TIMESTEP
50
ITEM: NUMBER OF ATOMS
7
ITEM: BOX BOUNDS ss ss ss
-2.9037 3.3658
-2.5465 3.5448
-1.6931 2.2574
ITEM: ATOMS id type xs ys zs
1 1 .517751 .992613 .488334
2 1 .994513 .598284 .452010
3 1 .773066 .007941 .474414
4 1 .147504 .053103 .530905
5 1 .004237 .658538 .556442
6 1 .512880 .457318 .990214
7 1 .470407 .451839 .018935
ITEM: TIMESTEP
100
ITEM: NUMBER OF ATOMS
7
ITEM: BOX BOUNDS ss ss ss
-2.9037 3.3738
-2.5465 3.5448
-1.6931 2.2574
ITEM: ATOMS id type xs ys zs
1 1 .516425 .993178 .483445
2 1 .993288 .599876 .449043
3 1 .771021 .006536 .476083
4 1 .147301 .052038 .536187
5 1 .006563 .659998 .552853
6 1 .512512 .459102 .990106
7 1 .470297 .454878 .018959
ITEM: TIMESTEP
150
ITEM: NUMBER OF ATOMS
7
ITEM: BOX BOUNDS ss ss ss
-2.9028 3.3794
-2.5438 3.5515
-1.6861 2.2574
ITEM: ATOMS id type xs ys zs
1 1 .517391 .992175 .483392
2 1 .993479 .598641 .449851
3 1 .769455 .006467 .474053
4 1 .147553 .049950 .534845
5 1 .007460 .658810 .549945
6 1 .510034 .459182 .989854
7 1 .471459 .455859 .014839
ITEM: TIMESTEP
200
ITEM: NUMBER OF ATOMS
7
ITEM: BOX BOUNDS ss ss ss
-2.9092 3.3748
-2.5464 3.5498
-1.6861 2.2574
ITEM: ATOMS id type xs ys zs
1 1 .518738 .992465 .482886
2 1 .991811 .600311 .450564
3 1 .769430 .008716 .475685
4 1 .149160 .053117 .535698
5 1 .008068 .659405 .549018
6 1 .510641 .459592 .992099
7 1 .472219 .454774 .011057
ITEM: TIMESTEP
250
ITEM: NUMBER OF ATOMS
7
ITEM: BOX BOUNDS ss ss ss
-2.9019 3.3778
-2.5508 3.5491
-1.6861 2.2540
ITEM: ATOMS id type xs ys zs
1 1 .517377 .992861 .480827
2 1 .989458 .599366 .450761
3 1 .767663 .009127 .478167
4 1 .148314 .053426 .538967
5 1 .006651 .659662 .547026
6 1 .509734 .462966 .990436
7 1 .471205 .453632 .010546
ITEM: TIMESTEP
300
ITEM: NUMBER OF ATOMS
7
ITEM: BOX BOUNDS ss ss ss
-2.9054 3.3755
-2.5570 3.5494
-1.6755 2.2565
ITEM: ATOMS id type xs ys zs
1 1 .519061 .992215 .478708
2 1 .990735 .599072 .449850
3 1 .767700 .010113 .476255
4 1 .150152 .052733 .535588
5 1 .008260 .661380 .548331
6 1 .510944 .463017 .988965
7 1 .470073 .454038 .008840
ITEM: TIMESTEP
350
ITEM: NUMBER OF ATOMS
7
ITEM: BOX BOUNDS ss ss ss
-2.9112 3.3740
-2.5473 3.5469
-1.6846 2.2617
ITEM: ATOMS id type xs ys zs
1 1 .519960 .992547 .478720
2 1 .990920 .596565 .451865
3 1 .766590 .008541 .479326
4 1 .151381 .051987 .536889
5 1 .009525 .659705 .548042
6 1 .509796 .462603 .989087
7 1 .471210 .453661 .012413
ITEM: TIMESTEP
400
ITEM: NUMBER OF ATOMS
7
ITEM: BOX BOUNDS ss ss ss
-2.9020 3.3719
-2.5482 3.5575
-1.6918 2.2621
ITEM: ATOMS id type xs ys zs
1 1 .519078 .990556 .478293
2 1 .990042 .594804 .451886
3 1 .766799 .008428 .484034
4 1 .151107 .051584 .539100
5 1 .007282 .658148 .549633
6 1 .508747 .460941 .989880
7 1 .469673 .452809 .013941
ITEM: TIMESTEP
1
ITEM: NUMBER OF ATOMS
7
ITEM: BOX BOUNDS ss ss ss
-2.9012 3.3596
-2.5413 3.5411
-1.6833 2.2590
ITEM: ATOMS id type xs ys zs
1 1 .517097 .994241 .482835
2 1 .996199 .600417 .448609
3 1 .773483 .006397 .473102
4 1 .144149 .052850 .530939
5 1 .005673 .659799 .554293
6 1 .514614 .457149 .988262
7 1 .470606 .453174 .018250
ITEM: TIMESTEP
50
ITEM: NUMBER OF ATOMS
7
ITEM: BOX BOUNDS ss ss ss
-2.9012 3.3669
-2.5413 3.5411
-1.6833 2.2590
ITEM: ATOMS id type xs ys zs
1 1 .517000 .994272 .483343
2 1 .995245 .599387 .449883
3 1 .771228 .005497 .472259
4 1 .144985 .051789 .533618
5 1 .006423 .660674 .554107
6 1 .512595 .457935 .987961
7 1 .470778 .454207 .016247
ITEM: TIMESTEP
100
ITEM: NUMBER OF ATOMS
7
ITEM: BOX BOUNDS ss ss ss
-2.9082 3.3707
-2.5400 3.5497
-1.6833 2.2590
ITEM: ATOMS id type xs ys zs
1 1 .517348 .992839 .483092
2 1 .994000 .599008 .447758
3 1 .770795 .005967 .473904
4 1 .147223 .051644 .531958
5 1 .007303 .659684 .554458
6 1 .512734 .456869 .988357
7 1 .471460 .453122 .016262
ITEM: TIMESTEP
150
ITEM: NUMBER OF ATOMS
7
ITEM: BOX BOUNDS ss ss ss
-2.9077 3.3793
-2.5491 3.5488
-1.6833 2.2590
ITEM: ATOMS id type xs ys zs
1 1 .515205 .993010 .485301
2 1 .990429 .597305 .450897
3 1 .769672 .008995 .473309
4 1 .147796 .053658 .531361
5 1 .007583 .659501 .554819
6 1 .512290 .456023 .989675
7 1 .468083 .455053 .015214
ITEM: TIMESTEP
200
ITEM: NUMBER OF ATOMS
7
ITEM: BOX BOUNDS ss ss ss
-2.9056 3.3820
-2.5596 3.5492
-1.6833 2.2590
ITEM: ATOMS id type xs ys zs
1 1 .517851 .993322 .480171
2 1 .991690 .598462 .451836
3 1 .767135 .008601 .477635
4 1 .149129 .054110 .529876
5 1 .007918 .661459 .559015
6 1 .507644 .457759 .989231
7 1 .470855 .456051 .013983
ITEM: TIMESTEP
250
ITEM: NUMBER OF ATOMS
7
ITEM: BOX BOUNDS ss ss ss
-2.9057 3.3776
-2.5537 3.5509
-1.6833 2.2590
ITEM: ATOMS id type xs ys zs
1 1 .517564 .991989 .477979
2 1 .990581 .597530 .450953
3 1 .766586 .009255 .474335
4 1 .150823 .053021 .529755
5 1 .008390 .660536 .561111
6 1 .509745 .457579 .987685
7 1 .470588 .457919 .009492
ITEM: TIMESTEP
300
ITEM: NUMBER OF ATOMS
7
ITEM: BOX BOUNDS ss ss ss
-2.9004 3.3802
-2.5576 3.5492
-1.6713 2.2590
ITEM: ATOMS id type xs ys zs
1 1 .517477 .991790 .477871
2 1 .987989 .595196 .446315
3 1 .767522 .009330 .473619
4 1 .151842 .053995 .529300
5 1 .007254 .661027 .561514
6 1 .508533 .460286 .988534
7 1 .468490 .456684 .008462
ITEM: TIMESTEP
350
ITEM: NUMBER OF ATOMS
7
ITEM: BOX BOUNDS ss ss ss
-2.9048 3.3756
-2.5470 3.5492
-1.6874 2.2590
ITEM: ATOMS id type xs ys zs
1 1 .517488 .991975 .481323
2 1 .989461 .593084 .450656
3 1 .766594 .006786 .477894
4 1 .152261 .050641 .529599
5 1 .008519 .659303 .564756
6 1 .509163 .459981 .991427
7 1 .468617 .455763 .010551
ITEM: TIMESTEP
400
ITEM: NUMBER OF ATOMS
7
ITEM: BOX BOUNDS ss ss ss
-2.8991 3.3735
-2.5600 3.5512
-1.6882 2.2573
ITEM: ATOMS id type xs ys zs
1 1 .518340 .992360 .481839
2 1 .988693 .595336 .450023
3 1 .765874 .009649 .475144
4 1 .153223 .052250 .529701
5 1 .006119 .659918 .564372
6 1 .506981 .459361 .992131
7 1 .465812 .457662 .011669
ITEM: TIMESTEP
1
ITEM: NUMBER OF ATOMS
7
ITEM: BOX BOUNDS ss ss ss
-2.9025 3.3557
-2.5413 3.5444
-1.6894 2.2511
ITEM: ATOMS id type xs ys zs
1 1 .517526 .993714 .484616
2 1 .996822 .600092 .450353
3 1 .773998 .006384 .474854
4 1 .144426 .052815 .532721
5 1 .005900 .659430 .556072
6 1 .515039 .456903 .990242
7 1 .471006 .452922 .019814
ITEM: TIMESTEP
50
ITEM: NUMBER OF ATOMS
7
ITEM: BOX BOUNDS ss ss ss
-2.9025 3.3639
-2.5413 3.5444
-1.6894 2.2511
ITEM: ATOMS id type xs ys zs
1 1 .519333 .994028 .485759
2 1 .994647 .600336 .450596
3 1 .771015 .007025 .475056
4 1 .144895 .052436 .533442
5 1 .005981 .659989 .554925
6 1 .514781 .458876 .990343
7 1 .469724 .453982 .018611
ITEM: TIMESTEP
100
ITEM: NUMBER OF ATOMS
7
ITEM: BOX BOUNDS ss ss ss
-2.9079 3.3721
-2.5506 3.5531
-1.6894 2.2522
ITEM: ATOMS id type xs ys zs
1 1 .520390 .992061 .486354
2 1 .993201 .599095 .450378
3 1 .770398 .006411 .470925
4 1 .147141 .054644 .534544
5 1 .007350 .658428 .555005
6 1 .515447 .460671 .989963
7 1 .470838 .456316 .016717
ITEM: TIMESTEP
150
ITEM: NUMBER OF ATOMS
7
ITEM: BOX BOUNDS ss ss ss
-2.9128 3.3800
-2.5445 3.5531
-1.6894 2.2558
ITEM: ATOMS id type xs ys zs
1 1 .520976 .993046 .485785
2 1 .994322 .599938 .452913
3 1 .769595 .007092 .469870
4 1 .148955 .051562 .535308
5 1 .007168 .658274 .555632
6 1 .514340 .461098 .986045
7 1 .468414 .455720 .015974
ITEM: TIMESTEP
200
ITEM: NUMBER OF ATOMS
7
ITEM: BOX BOUNDS ss ss ss
-2.9127 3.3757
-2.5482 3.5527
-1.6894 2.2670
ITEM: ATOMS id type xs ys zs
1 1 .518456 .991532 .487947
2 1 .992617 .600600 .447808
3 1 .770455 .007842 .469573
4 1 .148917 .051012 .533369
5 1 .006902 .658815 .559141
6 1 .511777 .457001 .986010
7 1 .469387 .453922 .016981
ITEM: TIMESTEP
250
ITEM: NUMBER OF ATOMS
7
ITEM: BOX BOUNDS ss ss ss
-2.9213 3.3802
-2.5528 3.5444
-1.6894 2.2643
ITEM: ATOMS id type xs ys zs
1 1 .516911 .990470 .490067
2 1 .990888 .602989 .449957
3 1 .767919 .008548 .471161
4 1 .150759 .052187 .533396
5 1 .007179 .659209 .559126
6 1 .511592 .457480 .990898
7 1 .470573 .455234 .016072
ITEM: TIMESTEP
300
ITEM: NUMBER OF ATOMS
7
ITEM: BOX BOUNDS ss ss ss
-2.9144 3.3778
-2.5456 3.5514
-1.6809 2.2671
ITEM: ATOMS id type xs ys zs
1 1 .516405 .989531 .489858
2 1 .991367 .602040 .449294
3 1 .769202 .010279 .470058
4 1 .151335 .052510 .529460
5 1 .006030 .657465 .558126
6 1 .512593 .455154 .990464
7 1 .470358 .456045 .012427
ITEM: TIMESTEP
350
ITEM: NUMBER OF ATOMS
7
ITEM: BOX BOUNDS ss ss ss
-2.9140 3.3738
-2.5492 3.5488
-1.6752 2.2618
ITEM: ATOMS id type xs ys zs
1 1 .517808 .988692 .484798
2 1 .991247 .602440 .447247
3 1 .767292 .008990 .469297
4 1 .154077 .050867 .533276
5 1 .009509 .656894 .555659
6 1 .512752 .456856 .993810
7 1 .470148 .455058 .011203
ITEM: TIMESTEP
400
ITEM: NUMBER OF ATOMS
7
ITEM: BOX BOUNDS ss ss ss
-2.9175 3.3722
-2.5528 3.5616
-1.6739 2.2702
ITEM: ATOMS id type xs ys zs
1 1 .522715 .989992 .485329
2 1 .990351 .599700 .444417
3 1 .770227 .010423 .480772
4 1 .151918 .055301 .533973
5 1 .010800 .663001 .554941
6 1 .510645 .460198 .988023
7 1 .470904 .455952 .011054
ITEM: TIMESTEP
1
ITEM: NUMBER OF ATOMS
7
ITEM: BOX BOUNDS ss ss ss
-2.9198 3.3648
-2.5415 3.5509
-1.6825 2.2656
ITEM: ATOMS id type xs ys zs
1 1 .518109 .992641 .481919
2 1 .995398 .599464 .447719
3 1 .773520 .006411 .472187
4 1 .146558 .052795 .529950
5 1 .008628 .658741 .553236
6 1 .515629 .456434 .986616
7 1 .471773 .452468 .018020
ITEM: TIMESTEP
50
ITEM: NUMBER OF ATOMS
7
ITEM: BOX BOUNDS ss ss ss
-2.9198 3.3666
-2.5415 3.5509
-1.6825 2.2656
ITEM: ATOMS id type xs ys zs
1 1 .517422 .993016 .485440
2 1 .995650 .599196 .449405
3 1 .773674 .009363 .474281
4 1 .147399 .053128 .529814
5 1 .008565 .659977 .553909
6 1 .514216 .457288 .984462
7 1 .472015 .454848 .013344
ITEM: TIMESTEP
100
ITEM: NUMBER OF ATOMS
7
ITEM: BOX BOUNDS ss ss ss
-2.9090 3.3723
-2.5415 3.5509
-1.6825 2.2656
ITEM: ATOMS id type xs ys zs
1 1 .517489 .992215 .483325
2 1 .993381 .597740 .447736
3 1 .771927 .009109 .474311
4 1 .145911 .053450 .529058
5 1 .006476 .658914 .554638
6 1 .512729 .456750 .985402
7 1 .470893 .453863 .014730
ITEM: TIMESTEP
150
ITEM: NUMBER OF ATOMS
7
ITEM: BOX BOUNDS ss ss ss
-2.9094 3.3798
-2.5495 3.5509
-1.6825 2.2656
ITEM: ATOMS id type xs ys zs
1 1 .517672 .990971 .484100
2 1 .993472 .599315 .446885
3 1 .770056 .011952 .475292
4 1 .146492 .054318 .527521
5 1 .006332 .659715 .554314
6 1 .511919 .458957 .981867
7 1 .468965 .454690 .013156
ITEM: TIMESTEP
200
ITEM: NUMBER OF ATOMS
7
ITEM: BOX BOUNDS ss ss ss
-2.9127 3.3824
-2.5747 3.5534
-1.6825 2.2656
ITEM: ATOMS id type xs ys zs
1 1 .515493 .990211 .482191
2 1 .992836 .599935 .449042
3 1 .771472 .015952 .473211
4 1 .148439 .058715 .527757
5 1 .006218 .659220 .553943
6 1 .511255 .461719 .985112
7 1 .470413 .457006 .011110
ITEM: TIMESTEP
250
ITEM: NUMBER OF ATOMS
7
ITEM: BOX BOUNDS ss ss ss
-2.9228 3.3875
-2.5605 3.5509
-1.6825 2.2656
ITEM: ATOMS id type xs ys zs
1 1 .517983 .990996 .484711
2 1 .988633 .600404 .445015
3 1 .768973 .009308 .473122
4 1 .151032 .056953 .529113
5 1 .009756 .660452 .552463
6 1 .514427 .458063 .991212
7 1 .469868 .456564 .014930
ITEM: TIMESTEP
300
ITEM: NUMBER OF ATOMS
7
ITEM: BOX BOUNDS ss ss ss
-2.9140 3.3878
-2.5536 3.5509
-1.6825 2.2656
ITEM: ATOMS id type xs ys zs
1 1 .515260 .991905 .481576
2 1 .990804 .599145 .449089
3 1 .770117 .011136 .472389
4 1 .149738 .055144 .531083
5 1 .005291 .660285 .552843
6 1 .511045 .459953 .985663
7 1 .468260 .456815 .011725
ITEM: TIMESTEP
350
ITEM: NUMBER OF ATOMS
7
ITEM: BOX BOUNDS ss ss ss
-2.9256 3.3900
-2.5614 3.5503
-1.6825 2.2594
ITEM: ATOMS id type xs ys zs
1 1 .516521 .990255 .483372
2 1 .991007 .601203 .450388
3 1 .768405 .011083 .467555
4 1 .153192 .054801 .529111
5 1 .007676 .659090 .553167
6 1 .510158 .459970 .988389
7 1 .472744 .458424 .012009
ITEM: TIMESTEP
400
ITEM: NUMBER OF ATOMS
7
ITEM: BOX BOUNDS ss ss ss
-2.9291 3.3963
-2.5599 3.5461
-1.6860 2.2589
ITEM: ATOMS id type xs ys zs
1 1 .517961 .992729 .478769
2 1 .986696 .596805 .447743
3 1 .770136 .012498 .470231
4 1 .154123 .054826 .536581
5 1 .009698 .662927 .555220
6 1 .511723 .461045 .983608
7 1 .466609 .456857 .010273
ITEM: TIMESTEP
1
ITEM: NUMBER OF ATOMS
7
ITEM: BOX BOUNDS ss ss ss
-2.9252 3.3835
-2.5450 3.5421
-1.6825 2.2566
ITEM: ATOMS id type xs ys zs
1 1 .516985 .994092 .483022
2 1 .992448 .600544 .448770
3 1 .771402 .006994 .473271
4 1 .146855 .053404 .531152
5 1 .009448 .659898 .554522
6 1 .514511 .457408 .988849
7 1 .470828 .453417 .018050
ITEM: TIMESTEP
50
ITEM: NUMBER OF ATOMS
7
ITEM: BOX BOUNDS ss ss ss
-2.9252 3.3835
-2.5450 3.5421
-1.6825 2.2566
ITEM: ATOMS id type xs ys zs
1 1 .518091 .995199 .484991
2 1 .991814 .597793 .448263
3 1 .770620 .007323 .472878
4 1 .147235 .050023 .530912
5 1 .009597 .659136 .556090
6 1 .514263 .457773 .989858
7 1 .469367 .454036 .016196
ITEM: TIMESTEP
100
ITEM: NUMBER OF ATOMS
7
ITEM: BOX BOUNDS ss ss ss
-2.9204 3.3835
-2.5450 3.5421
-1.6825 2.2566
ITEM: ATOMS id type xs ys zs
1 1 .519535 .992831 .483199
2 1 .991741 .600561 .447087
3 1 .771118 .004935 .473306
4 1 .148054 .052489 .531901
5 1 .009618 .660133 .556836
6 1 .510947 .456555 .987088
7 1 .471541 .452294 .013092
ITEM: TIMESTEP
150
ITEM: NUMBER OF ATOMS
7
ITEM: BOX BOUNDS ss ss ss
-2.9204 3.3795
-2.5484 3.5421
-1.6825 2.2566
ITEM: ATOMS id type xs ys zs
1 1 .516943 .992270 .485146
2 1 .990995 .602217 .447932
3 1 .770771 .006615 .472336
4 1 .149311 .051062 .529335
5 1 .009766 .661027 .557726
6 1 .510544 .460494 .991364
7 1 .471522 .453969 .012972
ITEM: TIMESTEP
200
ITEM: NUMBER OF ATOMS
7
ITEM: BOX BOUNDS ss ss ss
-2.9204 3.3831
-2.5503 3.5480
-1.6825 2.2566
ITEM: ATOMS id type xs ys zs
1 1 .520769 .991060 .482238
2 1 .990227 .597697 .445125
3 1 .772292 .007659 .475508
4 1 .148403 .052064 .532118
5 1 .009610 .658197 .558336
6 1 .510229 .456477 .989608
7 1 .471197 .453681 .015330
ITEM: TIMESTEP
250
ITEM: NUMBER OF ATOMS
7
ITEM: BOX BOUNDS ss ss ss
-2.9204 3.3839
-2.5561 3.5521
-1.6825 2.2566
ITEM: ATOMS id type xs ys zs
1 1 .520503 .991880 .482894
2 1 .990318 .599261 .445930
3 1 .771758 .007969 .475007
4 1 .149880 .053439 .534119
5 1 .008229 .658606 .556648
6 1 .510264 .456339 .987074
7 1 .471073 .456292 .015475
ITEM: TIMESTEP
300
ITEM: NUMBER OF ATOMS
7
ITEM: BOX BOUNDS ss ss ss
-2.9144 3.3821
-2.5610 3.5455
-1.6825 2.2566
ITEM: ATOMS id type xs ys zs
1 1 .520904 .991629 .483602
2 1 .991751 .598049 .445367
3 1 .770770 .008879 .476518
4 1 .147779 .051981 .534747
5 1 .008947 .659537 .555054
6 1 .510946 .457513 .989429
7 1 .470559 .453809 .013789
ITEM: TIMESTEP
350
ITEM: NUMBER OF ATOMS
7
ITEM: BOX BOUNDS ss ss ss
-2.9142 3.3869
-2.5580 3.5562
-1.6844 2.2566
ITEM: ATOMS id type xs ys zs
1 1 .518245 .991653 .482183
2 1 .989298 .599295 .451211
3 1 .771207 .009180 .477835
4 1 .149941 .050658 .534326
5 1 .011044 .656220 .556744
6 1 .510879 .456999 .987643
7 1 .471811 .451541 .014425
ITEM: TIMESTEP
400
ITEM: NUMBER OF ATOMS
7
ITEM: BOX BOUNDS ss ss ss
-2.9100 3.3780
-2.5506 3.5422
-1.6890 2.2566
ITEM: ATOMS id type xs ys zs
1 1 .520518 .990939 .482997
2 1 .990561 .598609 .450629
3 1 .772386 .007409 .480396
4 1 .150222 .048133 .534030
5 1 .009362 .658334 .556494
6 1 .510611 .457901 .988983
7 1 .471263 .451173 .016615
ITEM: TIMESTEP
1
ITEM: NUMBER OF ATOMS
7
ITEM: BOX BOUNDS ss ss ss
-2.9132 3.3793
-2.5474 3.5440
-1.6829 2.2566
ITEM: ATOMS id type xs ys zs
1 1 .516417 .993761 .483082
2 1 .993085 .600526 .448832
3 1 .771502 .007378 .473323
4 1 .145343 .053767 .531211
5 1 .007582 .659823 .554582
6 1 .513928 .457470 .988864
7 1 .470142 .453485 .018172
ITEM: TIMESTEP
50
ITEM: NUMBER OF ATOMS
7
ITEM: BOX BOUNDS ss ss ss
-2.9132 3.3793
-2.5474 3.5440
-1.6829 2.2566
ITEM: ATOMS id type xs ys zs
1 1 .516484 .993030 .484411
2 1 .991947 .600883 .448791
3 1 .770928 .006911 .472817
4 1 .146046 .053533 .531362
5 1 .008241 .658542 .553138
6 1 .512398 .457893 .988233
7 1 .469501 .453265 .016306
ITEM: TIMESTEP
100
ITEM: NUMBER OF ATOMS
7
ITEM: BOX BOUNDS ss ss ss
-2.9132 3.3793
-2.5474 3.5440
-1.6829 2.2566
ITEM: ATOMS id type xs ys zs
1 1 .515807 .993603 .484371
2 1 .994047 .599000 .448151
3 1 .770346 .007362 .472480
4 1 .148344 .052412 .533825
5 1 .007478 .659754 .552742
6 1 .513193 .458920 .989425
7 1 .470651 .454378 .018285
ITEM: TIMESTEP
150
ITEM: NUMBER OF ATOMS
7
ITEM: BOX BOUNDS ss ss ss
-2.9132 3.3793
-2.5474 3.5453
-1.6828 2.2566
ITEM: ATOMS id type xs ys zs
1 1 .516126 .996075 .483011
2 1 .990648 .596782 .449798
3 1 .770609 .005939 .474638
4 1 .146118 .052931 .531439
5 1 .008781 .658122 .552407
6 1 .509210 .458495 .989180
7 1 .471888 .455239 .015229
ITEM: TIMESTEP
200
ITEM: NUMBER OF ATOMS
7
ITEM: BOX BOUNDS ss ss ss
-2.9176 3.3816
-2.5539 3.5453
-1.6825 2.2566
ITEM: ATOMS id type xs ys zs
1 1 .518142 .992978 .484629
2 1 .991771 .601390 .452179
3 1 .769594 .010862 .470614
4 1 .147899 .054112 .535443
5 1 .009881 .660451 .555599
6 1 .511739 .458474 .989976
7 1 .471885 .455514 .018104
ITEM: TIMESTEP
250
ITEM: NUMBER OF ATOMS
7
ITEM: BOX BOUNDS ss ss ss
-2.9149 3.3843
-2.5576 3.5460
-1.6825 2.2566
ITEM: ATOMS id type xs ys zs
1 1 .516263 .993282 .484924
2 1 .992932 .600593 .447401
3 1 .770353 .010945 .468612
4 1 .149200 .055354 .536946
5 1 .009089 .660829 .558648
6 1 .512491 .459230 .992679
7 1 .470579 .456819 .014647
ITEM: TIMESTEP
300
ITEM: NUMBER OF ATOMS
7
ITEM: BOX BOUNDS ss ss ss
-2.9120 3.3797
-2.5509 3.5535
-1.6825 2.2572
ITEM: ATOMS id type xs ys zs
1 1 .514334 .991752 .484932
2 1 .992660 .601410 .449122
3 1 .768617 .010379 .468197
4 1 .150238 .057867 .536382
5 1 .009268 .660671 .558844
6 1 .511346 .458453 .994411
7 1 .470680 .457330 .013237
ITEM: TIMESTEP
350
ITEM: NUMBER OF ATOMS
7
ITEM: BOX BOUNDS ss ss ss
-2.9145 3.3836
-2.5522 3.5550
-1.6825 2.2625
ITEM: ATOMS id type xs ys zs
1 1 .516918 .990511 .486609
2 1 .991321 .599761 .451319
3 1 .768946 .008587 .471497
4 1 .149231 .055150 .536996
5 1 .008563 .659119 .558059
6 1 .511576 .457299 .988782
7 1 .470131 .453810 .016523
ITEM: TIMESTEP
400
ITEM: NUMBER OF ATOMS
7
ITEM: BOX BOUNDS ss ss ss
-2.9112 3.3837
-2.5544 3.5506
-1.6825 2.2640
ITEM: ATOMS id type xs ys zs
1 1 .518353 .991251 .487144
2 1 .991580 .600216 .452714
3 1 .767541 .009437 .472619
4 1 .148243 .056076 .537343
5 1 .008691 .660429 .557000
6 1 .511216 .458131 .990653
7 1 .470150 .455013 .013149
ITEM: TIMESTEP
1
ITEM: NUMBER OF ATOMS
7
ITEM: BOX BOUNDS ss ss ss
-2.9033 3.3732
-2.5405 3.5488
-1.6825 2.2573
ITEM: ATOMS id type xs ys zs
1 1 .516148 .992980 .482949
2 1 .994043 .599609 .448690
3 1 .771864 .006243 .473170
4 1 .144127 .052653 .531074
5 1 .005993 .658913 .554416
6 1 .513653 .456512 .988695
7 1 .469751 .452519 .018053
ITEM: TIMESTEP
50
ITEM: NUMBER OF ATOMS
7
ITEM: BOX BOUNDS ss ss ss
-2.9033 3.3732
-2.5405 3.5488
-1.6825 2.2573
ITEM: ATOMS id type xs ys zs
1 1 .513860 .993186 .481459
2 1 .993183 .599220 .449657
3 1 .770986 .005700 .474623
4 1 .145170 .051968 .532727
5 1 .006580 .660218 .553803
6 1 .512063 .458017 .990393
7 1 .468347 .454099 .016482
ITEM: TIMESTEP
100
ITEM: NUMBER OF ATOMS
7
ITEM: BOX BOUNDS ss ss ss
-2.9094 3.3773
-2.5405 3.5507
-1.6825 2.2573
ITEM: ATOMS id type xs ys zs
1 1 .516846 .991779 .485671
2 1 .992837 .596960 .448780
3 1 .770827 .007255 .468749
4 1 .145230 .052605 .528914
5 1 .006950 .660386 .552392
6 1 .512085 .456362 .987341
7 1 .471961 .454489 .015848
ITEM: TIMESTEP
150
ITEM: NUMBER OF ATOMS
7
ITEM: BOX BOUNDS ss ss ss
-2.9093 3.3889
-2.5485 3.5488
-1.6825 2.2610
ITEM: ATOMS id type xs ys zs
1 1 .515334 .992926 .488319
2 1 .990056 .594743 .444993
3 1 .767876 .008306 .468533
4 1 .144294 .053615 .526861
5 1 .006973 .660640 .554371
6 1 .509085 .454987 .989367
7 1 .470380 .454925 .014700
ITEM: TIMESTEP
200
ITEM: NUMBER OF ATOMS
7
ITEM: BOX BOUNDS ss ss ss
-2.9133 3.3861
-2.5552 3.5508
-1.6825 2.2638
ITEM: ATOMS id type xs ys zs
1 1 .516806 .993720 .485916
2 1 .989602 .599172 .451093
3 1 .769685 .006982 .476407
4 1 .147849 .053307 .529386
5 1 .006211 .660710 .556824
6 1 .513249 .458508 .984369
7 1 .468934 .457014 .013259
ITEM: TIMESTEP
250
ITEM: NUMBER OF ATOMS
7
ITEM: BOX BOUNDS ss ss ss
-2.9145 3.3777
-2.5587 3.5534
-1.6825 2.2573
ITEM: ATOMS id type xs ys zs
1 1 .516181 .993706 .491586
2 1 .990048 .598470 .452072
3 1 .770100 .008107 .478284
4 1 .147121 .053986 .530161
5 1 .006668 .659650 .558951
6 1 .510305 .458798 .984304
7 1 .469368 .456587 .010405
ITEM: TIMESTEP
300
ITEM: NUMBER OF ATOMS
7
ITEM: BOX BOUNDS ss ss ss
-2.9145 3.3849
-2.5466 3.5648
-1.6825 2.2573
ITEM: ATOMS id type xs ys zs
1 1 .516015 .990326 .492229
2 1 .988763 .596760 .450377
3 1 .767187 .006403 .479401
4 1 .147019 .051657 .533699
5 1 .006666 .656868 .555497
6 1 .510257 .455547 .986980
7 1 .468460 .453815 .010296
ITEM: TIMESTEP
350
ITEM: NUMBER OF ATOMS
7
ITEM: BOX BOUNDS ss ss ss
-2.9172 3.3750
-2.5532 3.5603
-1.6825 2.2638
ITEM: ATOMS id type xs ys zs
1 1 .517452 .992505 .482123
2 1 .993212 .593572 .447377
3 1 .766123 .007003 .480250
4 1 .148229 .052458 .531293
5 1 .009361 .657798 .554444
6 1 .510259 .459563 .986577
7 1 .470970 .457559 .011800
ITEM: TIMESTEP
400
ITEM: NUMBER OF ATOMS
7
ITEM: BOX BOUNDS ss ss ss
-2.9188 3.3717
-2.5551 3.5577
-1.6825 2.2585
ITEM: ATOMS id type xs ys zs
1 1 .518196 .994011 .483289
2 1 .993886 .592262 .449232
3 1 .764671 .010235 .479431
4 1 .148358 .052950 .533400
5 1 .010429 .657882 .555854
6 1 .509927 .461546 .991135
7 1 .472894 .457748 .008888
ITEM: TIMESTEP
1
ITEM: NUMBER OF ATOMS
7
ITEM: BOX BOUNDS ss ss ss
-2.9144 3.3718
-2.5549 3.5478
-1.6830 2.2551
ITEM: ATOMS id type xs ys zs
1 1 .517135 .993170 .483308
2 1 .994280 .600650 .448966
3 1 .772445 .008592 .473527
4 1 .145679 .054897 .531443
5 1 .007768 .659844 .554797
6 1 .514648 .457875 .989253
7 1 .470800 .453906 .018196
ITEM: TIMESTEP
50
ITEM: NUMBER OF ATOMS
7
ITEM: BOX BOUNDS ss ss ss
-2.9144 3.3718
-2.5518 3.5478
-1.6830 2.2551
ITEM: ATOMS id type xs ys zs
1 1 .516287 .992899 .484207
2 1 .993671 .600873 .452441
3 1 .770973 .008554 .472915
4 1 .145774 .054733 .531169
5 1 .007082 .659619 .554963
6 1 .512923 .458817 .990665
7 1 .472144 .453560 .011806
ITEM: TIMESTEP
100
ITEM: NUMBER OF ATOMS
7
ITEM: BOX BOUNDS ss ss ss
-2.9144 3.3808
-2.5518 3.5486
-1.6830 2.2551
ITEM: ATOMS id type xs ys zs
1 1 .515855 .995590 .486456
2 1 .991912 .601204 .454304
3 1 .769653 .012004 .471829
4 1 .146883 .055055 .532154
5 1 .007429 .661442 .555133
6 1 .511141 .459473 .989377
7 1 .472448 .455178 .010881
ITEM: TIMESTEP
150
ITEM: NUMBER OF ATOMS
7
ITEM: BOX BOUNDS ss ss ss
-2.9144 3.3794
-2.5525 3.5500
-1.6830 2.2551
ITEM: ATOMS id type xs ys zs
1 1 .513299 .992970 .483338
2 1 .991448 .598681 .454143
3 1 .769650 .011434 .469929
4 1 .147900 .055952 .533677
5 1 .007890 .660846 .554392
6 1 .512170 .459222 .989370
7 1 .471173 .453909 .011271
ITEM: TIMESTEP
200
ITEM: NUMBER OF ATOMS
7
ITEM: BOX BOUNDS ss ss ss
-2.9144 3.3783
-2.5644 3.5624
-1.6830 2.2551
ITEM: ATOMS id type xs ys zs
1 1 .518533 .991635 .486228
2 1 .991218 .601825 .452492
3 1 .771485 .012479 .470005
4 1 .148138 .055352 .525443
5 1 .009350 .659005 .558298
6 1 .511357 .456036 .989546
7 1 .470184 .455300 .015435
ITEM: TIMESTEP
250
ITEM: NUMBER OF ATOMS
7
ITEM: BOX BOUNDS ss ss ss
-2.9154 3.3860
-2.5568 3.5599
-1.6830 2.2628
ITEM: ATOMS id type xs ys zs
1 1 .518511 .991345 .486141
2 1 .989797 .600931 .452327
3 1 .770590 .009579 .470264
4 1 .148390 .054756 .522420
5 1 .010254 .658808 .558028
6 1 .511138 .456071 .988812
7 1 .468756 .455701 .014438
ITEM: TIMESTEP
300
ITEM: NUMBER OF ATOMS
7
ITEM: BOX BOUNDS ss ss ss
-2.9144 3.3899
-2.5518 3.5532
-1.6830 2.2551
ITEM: ATOMS id type xs ys zs
1 1 .518094 .993465 .485411
2 1 .988473 .601572 .451137
3 1 .769438 .008160 .471566
4 1 .149525 .053226 .524248
5 1 .010190 .658885 .561821
6 1 .511168 .456711 .990074
7 1 .468451 .456121 .015738
ITEM: TIMESTEP
350
ITEM: NUMBER OF ATOMS
7
ITEM: BOX BOUNDS ss ss ss
-2.9144 3.3786
-2.5518 3.5485
-1.6847 2.2551
ITEM: ATOMS id type xs ys zs
1 1 .518164 .992590 .485597
2 1 .989905 .602544 .453944
3 1 .770826 .012008 .470072
4 1 .149745 .053683 .527387
5 1 .009056 .659243 .561467
6 1 .511493 .455923 .990558
7 1 .469894 .455105 .013287
ITEM: TIMESTEP
400
ITEM: NUMBER OF ATOMS
7
ITEM: BOX BOUNDS ss ss ss
-2.9100 3.3716
-2.5590 3.5532
-1.6842 2.2551
ITEM: ATOMS id type xs ys zs
1 1 .520057 .989361 .485950
2 1 .993081 .601258 .453829
3 1 .770749 .012262 .470029
4 1 .148853 .052493 .533247
5 1 .007651 .659626 .556413
6 1 .510527 .455111 .988053
7 1 .470828 .455369 .009075
ITEM: TIMESTEP
1
ITEM: NUMBER OF ATOMS
7
ITEM: BOX BOUNDS ss ss ss
-2.9046 3.3671
-2.5512 3.5431
-1.6829 2.2552
ITEM: ATOMS id type xs ys zs
1 1 .516759 .993930 .483258
2 1 .995027 .600867 .448987
3 1 .772680 .008000 .473485
4 1 .144463 .054371 .531387
5 1 .006209 .660126 .554743
6 1 .514272 .457884 .989200
7 1 .470336 .453931 .018181
ITEM: TIMESTEP
50
ITEM: NUMBER OF ATOMS
7
ITEM: BOX BOUNDS ss ss ss
-2.9046 3.3671
-2.5512 3.5431
-1.6829 2.2552
ITEM: ATOMS id type xs ys zs
1 1 .519709 .993520 .483546
2 1 .994904 .600430 .447929
3 1 .772740 .008114 .475157
4 1 .146678 .052007 .529198
5 1 .004972 .660217 .553592
6 1 .514169 .456329 .989492
7 1 .469741 .455989 .018289
ITEM: TIMESTEP
100
ITEM: NUMBER OF ATOMS
7
ITEM: BOX BOUNDS ss ss ss
-2.9050 3.3790
-2.5512 3.5431
-1.6829 2.2552
ITEM: ATOMS id type xs ys zs
1 1 .514993 .993576 .480804
2 1 .992580 .599431 .445332
3 1 .768698 .008792 .471741
4 1 .147149 .054147 .530022
5 1 .005906 .662370 .553562
6 1 .514761 .458826 .988161
7 1 .472025 .454065 .013343
ITEM: TIMESTEP
150
ITEM: NUMBER OF ATOMS
7
ITEM: BOX BOUNDS ss ss ss
-2.9046 3.3857
-2.5512 3.5543
-1.6829 2.2573
ITEM: ATOMS id type xs ys zs
1 1 .513389 .992413 .480017
2 1 .991772 .598355 .444658
3 1 .769696 .009181 .473442
4 1 .147757 .055357 .530425
5 1 .004810 .660546 .552080
6 1 .514351 .460405 .982865
7 1 .471854 .454942 .011630
ITEM: TIMESTEP
200
ITEM: NUMBER OF ATOMS
7
ITEM: BOX BOUNDS ss ss ss
-2.9112 3.3957
-2.5552 3.5605
-1.6829 2.2557
ITEM: ATOMS id type xs ys zs
1 1 .513610 .991022 .477517
2 1 .989003 .600454 .445970
3 1 .767473 .008682 .477332
4 1 .145087 .055854 .526819
5 1 .009570 .658819 .549792
6 1 .511016 .458636 .986864
7 1 .471779 .454857 .008046
ITEM: TIMESTEP
250
ITEM: NUMBER OF ATOMS
7
ITEM: BOX BOUNDS ss ss ss
-2.9088 3.3919
-2.5512 3.5556
-1.6825 2.2551
ITEM: ATOMS id type xs ys zs
1 1 .517060 .989939 .479129
2 1 .987998 .602066 .449127
3 1 .769930 .010373 .480095
4 1 .145468 .055364 .527480
5 1 .007986 .658455 .558698
6 1 .508470 .459571 .987769
7 1 .468923 .452527 .009947
ITEM: TIMESTEP
300
ITEM: NUMBER OF ATOMS
7
ITEM: BOX BOUNDS ss ss ss
-2.9088 3.3786
-2.5536 3.5474
-1.6825 2.2551
ITEM: ATOMS id type xs ys zs
1 1 .519482 .989713 .479675
2 1 .992771 .601907 .445891
3 1 .769887 .011075 .479460
4 1 .145705 .055782 .527536
5 1 .008113 .662028 .557252
6 1 .509971 .459910 .986922
7 1 .470975 .454683 .009286
ITEM: TIMESTEP
350
ITEM: NUMBER OF ATOMS
7
ITEM: BOX BOUNDS ss ss ss
-2.9166 3.3787
-2.5512 3.5468
-1.6825 2.2551
ITEM: ATOMS id type xs ys zs
1 1 .519132 .989375 .480442