ITEM: TIMESTEP
1
ITEM: NUMBER OF ATOMS
7
ITEM: BOX BOUNDS ss ss ss
-2.8696 3.3399
-2.5067 3.5103
-1.6142 2.2163
ITEM: ATOMS id type xs ys zs
1 1 .516246 .999336 .478833
2 1 .999419 .601255 .443675
3 1 .774863 .000692 .468841
4 1 .140078 .047719 .528306
5 1 .000612 .661218 .552402
6 1 .513861 .456333 .999045
7 1 .469403 .452290 .000929
ITEM: TIMESTEP
50
ITEM: NUMBER OF ATOMS
7
ITEM: BOX BOUNDS ss ss ss
-2.8941 3.3657
-2.5282 3.5319
-1.6398 2.2409
ITEM: ATOMS id type xs ys zs
1 1 .515923 .995691 .479079
2 1 .995380 .600700 .444582
3 1 .772781 .004114 .469323
4 1 .142486 .050897 .528018
5 1 .004489 .660172 .551999
6 1 .513678 .456539 .992545
7 1 .469680 .452556 .007703
ITEM: TIMESTEP
100
ITEM: NUMBER OF ATOMS
7
ITEM: BOX BOUNDS ss ss ss
-2.9015 3.3713
-2.5442 3.5393
-1.6460 2.2455
ITEM: ATOMS id type xs ys zs
1 1 .516335 .994237 .479433
2 1 .994189 .600917 .444737
3 1 .772128 .006621 .469630
4 1 .143892 .053092 .528748
5 1 .005841 .660615 .552791
6 1 .513243 .457473 .991010
7 1 .470064 .453562 .008162
ITEM: TIMESTEP
150
ITEM: NUMBER OF ATOMS
7
ITEM: BOX BOUNDS ss ss ss
-2.8985 3.3748
-2.5445 3.5449
-1.6575 2.2483
ITEM: ATOMS id type xs ys zs
1 1 .516542 .993115 .481122
2 1 .993164 .599924 .445804
3 1 .770785 .006988 .469772
4 1 .144941 .052372 .530186
5 1 .005648 .660192 .554804
6 1 .511843 .457376 .989535
7 1 .469137 .453551 .009088
ITEM: TIMESTEP
200
ITEM: NUMBER OF ATOMS
7
ITEM: BOX BOUNDS ss ss ss
-2.9098 3.3705
-2.5453 3.5436
-1.6671 2.2553
ITEM: ATOMS id type xs ys zs
1 1 .518126 .993292 .482214
2 1 .993514 .599989 .446297
3 1 .771181 .007551 .469555
4 1 .147641 .052145 .530285
5 1 .007361 .660258 .555138
6 1 .512458 .457863 .987523
7 1 .470207 .454172 .009912
ITEM: TIMESTEP
250
ITEM: NUMBER OF ATOMS
7
ITEM: BOX BOUNDS ss ss ss
-2.9110 3.3735
-2.5557 3.5487
-1.6802 2.2499
ITEM: ATOMS id type xs ys zs
1 1 .518175 .992395 .485044
2 1 .992592 .599951 .448405
3 1 .770605 .009690 .471443
4 1 .148791 .053394 .532684
5 1 .007424 .660080 .557068
6 1 .511709 .458797 .988738
7 1 .469976 .455095 .011903
ITEM: TIMESTEP
300
ITEM: NUMBER OF ATOMS
7
ITEM: BOX BOUNDS ss ss ss
-2.9113 3.3702
-2.5513 3.5507
-1.6832 2.2558
ITEM: ATOMS id type xs ys zs
1 1 .518581 .991995 .484639
2 1 .992826 .599409 .447875
3 1 .770647 .009383 .471248
4 1 .150074 .052390 .532947
5 1 .007661 .659366 .555459
6 1 .511795 .458718 .987419
7 1 .470236 .454825 .011661
ITEM: TIMESTEP
350
ITEM: NUMBER OF ATOMS
7
ITEM: BOX BOUNDS ss ss ss
-2.9132 3.3736
-2.5429 3.5504
-1.6867 2.2556
ITEM: ATOMS id type xs ys zs
1 1 .518388 .992045 .484400
2 1 .991978 .598686 .448104
3 1 .769509 .008189 .472687
4 1 .151317 .051007 .533628
5 1 .008165 .658503 .554976
6 1 .511576 .458546 .988023
7 1 .470089 .454365 .011486
ITEM: TIMESTEP
400
ITEM: NUMBER OF ATOMS
7
ITEM: BOX BOUNDS ss ss ss
-2.9152 3.3686
-2.5458 3.5467
-1.6880 2.2607
ITEM: ATOMS id type xs ys zs
1 1 .518699 .992943 .482931
2 1 .992250 .598786 .447418
3 1 .769179 .008907 .472857
4 1 .152844 .051498 .533512
5 1 .008527 .658643 .553118
6 1 .511880 .459926 .987275
7 1 .470617 .455300 .010335
ITEM: TIMESTEP
1
ITEM: NUMBER OF ATOMS
7
ITEM: BOX BOUNDS ss ss ss
-2.9051 3.3572
-2.5465 3.5448
-1.6931 2.2574
ITEM: ATOMS id type xs ys zs
1 1 .517556 .993668 .484262
2 1 .996665 .600443 .450171
3 1 .773999 .007213 .474572
4 1 .144561 .053662 .532232
5 1 .006270 .659675 .555597
6 1 .515199 .457295 .988663
7 1 .471112 .453298 .020886
ITEM: TIMESTEP
50
ITEM: NUMBER OF ATOMS
7
ITEM: BOX BOUNDS ss ss ss
-2.9037 3.3658
-2.5465 3.5448
-1.6931 2.2574
ITEM: ATOMS id type xs ys zs
1 1 .516611 .993605 .484087
2 1 .995420 .600691 .450218
3 1 .773188 .007082 .474517
4 1 .143663 .053684 .532112
5 1 .006044 .659798 .555751
6 1 .514502 .457151 .988488
7 1 .470497 .453187 .021176
ITEM: TIMESTEP
100
ITEM: NUMBER OF ATOMS
7
ITEM: BOX BOUNDS ss ss ss
-2.9037 3.3738
-2.5465 3.5448
-1.6931 2.2574
ITEM: ATOMS id type xs ys zs
1 1 .516067 .993345 .484162
2 1 .993997 .600852 .450258
3 1 .772315 .006997 .474528
4 1 .143574 .053496 .532319
5 1 .006171 .660122 .556283
6 1 .513423 .457067 .988322
7 1 .470196 .453251 .020536
ITEM: TIMESTEP
150
ITEM: NUMBER OF ATOMS
7
ITEM: BOX BOUNDS ss ss ss
-2.9028 3.3794
-2.5438 3.5515
-1.6861 2.2574
ITEM: ATOMS id type xs ys zs
1 1 .515768 .992096 .483854
2 1 .992689 .599950 .449227
3 1 .771411 .006558 .473719
4 1 .144012 .052748 .531981
5 1 .006287 .659530 .555890
6 1 .512191 .456254 .988142
7 1 .469720 .452682 .017813
ITEM: TIMESTEP
200
ITEM: NUMBER OF ATOMS
7
ITEM: BOX BOUNDS ss ss ss
-2.9092 3.3748
-2.5464 3.5498
-1.6861 2.2574
ITEM: ATOMS id type xs ys zs
1 1 .516954 .992326 .484506
2 1 .992956 .600017 .448966
3 1 .771685 .006981 .473642
4 1 .146208 .053062 .532580
5 1 .007386 .660303 .555486
6 1 .512308 .456925 .988149
7 1 .470728 .453659 .016797
ITEM: TIMESTEP
250
ITEM: NUMBER OF ATOMS
7
ITEM: BOX BOUNDS ss ss ss
-2.9019 3.3778
-2.5508 3.5491
-1.6861 2.2540
ITEM: ATOMS id type xs ys zs
1 1 .517236 .992049 .485106
2 1 .991672 .600207 .449538
3 1 .770221 .008345 .474715
4 1 .146501 .053458 .532884
5 1 .006904 .661112 .555688
6 1 .510739 .457573 .990084
7 1 .470057 .454507 .014732
ITEM: TIMESTEP
300
ITEM: NUMBER OF ATOMS
7
ITEM: BOX BOUNDS ss ss ss
-2.9054 3.3755
-2.5570 3.5494
-1.6755 2.2565
ITEM: ATOMS id type xs ys zs
1 1 .518198 .991816 .483128
2 1 .991517 .600674 .448468
3 1 .770083 .009809 .473496
4 1 .147939 .054457 .531317
5 1 .007879 .661550 .553585
6 1 .510755 .458266 .990022
7 1 .470671 .455027 .010857
ITEM: TIMESTEP
350
ITEM: NUMBER OF ATOMS
7
ITEM: BOX BOUNDS ss ss ss
-2.9112 3.3740
-2.5473 3.5469
-1.6846 2.2617
ITEM: ATOMS id type xs ys zs
1 1 .518740 .992366 .483171
2 1 .991491 .600153 .449932
3 1 .769935 .008359 .474605
4 1 .149620 .053008 .532445
5 1 .008820 .661105 .552804
6 1 .510963 .458137 .988828
7 1 .471388 .454391 .012307
ITEM: TIMESTEP
400
ITEM: NUMBER OF ATOMS
7
ITEM: BOX BOUNDS ss ss ss
-2.9020 3.3719
-2.5482 3.5575
-1.6918 2.2621
ITEM: ATOMS id type xs ys zs
1 1 .518409 .990794 .483454
2 1 .991496 .598709 .451489
3 1 .769251 .008598 .476302
4 1 .149221 .052858 .534171
5 1 .007406 .659827 .553303
6 1 .510093 .458023 .988951
7 1 .470373 .453801 .013657
ITEM: TIMESTEP
1
ITEM: NUMBER OF ATOMS
7
ITEM: BOX BOUNDS ss ss ss
-2.9012 3.3596
-2.5413 3.5411
-1.6833 2.2590
ITEM: ATOMS id type xs ys zs
1 1 .517055 .994277 .482784
2 1 .996269 .600471 .448621
3 1 .773553 .006368 .473073
4 1 .143979 .052892 .530850
5 1 .005660 .659792 .554264
6 1 .514701 .457108 .988244
7 1 .470603 .453111 .018436
ITEM: TIMESTEP
50
ITEM: NUMBER OF ATOMS
7
ITEM: BOX BOUNDS ss ss ss
-2.9012 3.3669
-2.5413 3.5411
-1.6833 2.2590
ITEM: ATOMS id type xs ys zs
1 1 .516272 .994217 .482565
2 1 .995304 .600734 .448668
3 1 .773004 .006223 .473009
4 1 .143200 .052960 .530745
5 1 .005599 .659909 .554378
6 1 .514267 .456938 .988118
7 1 .470219 .452951 .018835
ITEM: TIMESTEP
100
ITEM: NUMBER OF ATOMS
7
ITEM: BOX BOUNDS ss ss ss
-2.9082 3.3707
-2.5400 3.5497
-1.6833 2.2590
ITEM: ATOMS id type xs ys zs
1 1 .516596 .992519 .482673
2 1 .994579 .600005 .448818
3 1 .772783 .005896 .473220
4 1 .144106 .052474 .531169
5 1 .006869 .659223 .554988
6 1 .513974 .456090 .987910
7 1 .470821 .452260 .018221
ITEM: TIMESTEP
150
ITEM: NUMBER OF ATOMS
7
ITEM: BOX BOUNDS ss ss ss
-2.9077 3.3793
-2.5491 3.5488
-1.6833 2.2590
ITEM: ATOMS id type xs ys zs
1 1 .516327 .992199 .483187
2 1 .993036 .600831 .448747
3 1 .771636 .007486 .473570
4 1 .144499 .053695 .531542
5 1 .007057 .660169 .555662
6 1 .512242 .456860 .987575
7 1 .470666 .453035 .016981
ITEM: TIMESTEP
200
ITEM: NUMBER OF ATOMS
7
ITEM: BOX BOUNDS ss ss ss
-2.9056 3.3820
-2.5596 3.5492
-1.6833 2.2590
ITEM: ATOMS id type xs ys zs
1 1 .516110 .991711 .483326
2 1 .992210 .601518 .448373
3 1 .770918 .009340 .473600
4 1 .145124 .055061 .531887
5 1 .006877 .660802 .555790
6 1 .510987 .457657 .987431
7 1 .470503 .453871 .015501
ITEM: TIMESTEP
250
ITEM: NUMBER OF ATOMS
7
ITEM: BOX BOUNDS ss ss ss
-2.9057 3.3776
-2.5537 3.5509
-1.6833 2.2590
ITEM: ATOMS id type xs ys zs
1 1 .516985 .992049 .481595
2 1 .992446 .600099 .449768
3 1 .770021 .008228 .474699
4 1 .146757 .053556 .531538
5 1 .007252 .660602 .557170
6 1 .510493 .457136 .987494
7 1 .470989 .454003 .014216
ITEM: TIMESTEP
300
ITEM: NUMBER OF ATOMS
7
ITEM: BOX BOUNDS ss ss ss
-2.9004 3.3802
-2.5576 3.5492
-1.6713 2.2590
ITEM: ATOMS id type xs ys zs
1 1 .517128 .992856 .477525
2 1 .991729 .599375 .450130
3 1 .768027 .008473 .474656
4 1 .147336 .054067 .528146
5 1 .006705 .661607 .558150
6 1 .509137 .457878 .987190
7 1 .470509 .455659 .009954
ITEM: TIMESTEP
350
ITEM: NUMBER OF ATOMS
7
ITEM: BOX BOUNDS ss ss ss
-2.9048 3.3756
-2.5470 3.5492
-1.6874 2.2590
ITEM: ATOMS id type xs ys zs
1 1 .518013 .992858 .479027
2 1 .991863 .598412 .452785
3 1 .767944 .006840 .476654
4 1 .148995 .052510 .529034
5 1 .007745 .660960 .561149
6 1 .509718 .457194 .987180
7 1 .470906 .455340 .012584
ITEM: TIMESTEP
400
ITEM: NUMBER OF ATOMS
7
ITEM: BOX BOUNDS ss ss ss
-2.8991 3.3735
-2.5600 3.5512
-1.6882 2.2573
ITEM: ATOMS id type xs ys zs
1 1 .517682 .992567 .479273
2 1 .991306 .598176 .452355
3 1 .767559 .009148 .476560
4 1 .149574 .054439 .528918
5 1 .006980 .660980 .562553
6 1 .509448 .458897 .988101
7 1 .469846 .456731 .011481
ITEM: TIMESTEP
1
ITEM: NUMBER OF ATOMS
7
ITEM: BOX BOUNDS ss ss ss
-2.9025 3.3557
-2.5413 3.5444
-1.6894 2.2511
ITEM: ATOMS id type xs ys zs
1 1 .517480 .993741 .484540
2 1 .996897 .600150 .450362
3 1 .774084 .006364 .474820
4 1 .144247 .052863 .532628
5 1 .005871 .659437 .556052
6 1 .515125 .456863 .990222
7 1 .471008 .452863 .019991
ITEM: TIMESTEP
50
ITEM: NUMBER OF ATOMS
7
ITEM: BOX BOUNDS ss ss ss
-2.9025 3.3639
-2.5413 3.5444
-1.6894 2.2511
ITEM: ATOMS id type xs ys zs
1 1 .516640 .993689 .484277
2 1 .995830 .600492 .450413
3 1 .773470 .006243 .474754
4 1 .143333 .052977 .532472
5 1 .005813 .659542 .556177
6 1 .514670 .456685 .990085
7 1 .470540 .452693 .020505
ITEM: TIMESTEP
100
ITEM: NUMBER OF ATOMS
7
ITEM: BOX BOUNDS ss ss ss
-2.9079 3.3721
-2.5506 3.5531
-1.6894 2.2522
ITEM: ATOMS id type xs ys zs
1 1 .516382 .991965 .484067
2 1 .994425 .600517 .450199
3 1 .772895 .007687 .474708
4 1 .143821 .054158 .532556
5 1 .006763 .659450 .556566
6 1 .513995 .456711 .989662
7 1 .470684 .452919 .020062
ITEM: TIMESTEP
150
ITEM: NUMBER OF ATOMS
7
ITEM: BOX BOUNDS ss ss ss
-2.9128 3.3800
-2.5445 3.5531
-1.6894 2.2558
ITEM: ATOMS id type xs ys zs
1 1 .516375 .991660 .483703
2 1 .992826 .600179 .449863
3 1 .772316 .006985 .474479
4 1 .144800 .052907 .532639
5 1 .007552 .659512 .556466
6 1 .512921 .456073 .988429
7 1 .470754 .452389 .019129
ITEM: TIMESTEP
200
ITEM: NUMBER OF ATOMS
7
ITEM: BOX BOUNDS ss ss ss
-2.9127 3.3757
-2.5482 3.5527
-1.6894 2.2670
ITEM: ATOMS id type xs ys zs
1 1 .516926 .991520 .482429
2 1 .992693 .600578 .448668
3 1 .772741 .007889 .473036
4 1 .145377 .053125 .531405
5 1 .007645 .660195 .554644
6 1 .512254 .456192 .985367
7 1 .470990 .452470 .017803
ITEM: TIMESTEP
250
ITEM: NUMBER OF ATOMS
7
ITEM: BOX BOUNDS ss ss ss
-2.9213 3.3802
-2.5528 3.5444
-1.6894 2.2643
ITEM: ATOMS id type xs ys zs
1 1 .517412 .992879 .482941
2 1 .991388 .601941 .448713
3 1 .772089 .008915 .473371
4 1 .146600 .053752 .531507
5 1 .009037 .661550 .554983
6 1 .511618 .457118 .985542
7 1 .470986 .453663 .016677
ITEM: TIMESTEP
300
ITEM: NUMBER OF ATOMS
7
ITEM: BOX BOUNDS ss ss ss
-2.9144 3.3778
-2.5456 3.5514
-1.6809 2.2671
ITEM: ATOMS id type xs ys zs
1 1 .517150 .991623 .482109
2 1 .991314 .601094 .447583
3 1 .771700 .007927 .471371
4 1 .146253 .052474 .530152
5 1 .007802 .660365 .554590
6 1 .510779 .455829 .985002
7 1 .470271 .452945 .014074
ITEM: TIMESTEP
350
ITEM: NUMBER OF ATOMS
7
ITEM: BOX BOUNDS ss ss ss
-2.9140 3.3738
-2.5492 3.5488
-1.6752 2.2618
ITEM: ATOMS id type xs ys zs
1 1 .517472 .991447 .483084
2 1 .991492 .601569 .448115
3 1 .771526 .008646 .470899
4 1 .147327 .052780 .530228
5 1 .007366 .660745 .556514
6 1 .510559 .456141 .987220
7 1 .470031 .453766 .012288
ITEM: TIMESTEP
400
ITEM: NUMBER OF ATOMS
7
ITEM: BOX BOUNDS ss ss ss
-2.9175 3.3722
-2.5528 3.5616
-1.6739 2.2702
ITEM: ATOMS id type xs ys zs
1 1 .517870 .989228 .482574
2 1 .991200 .600511 .447814
3 1 .771232 .009485 .469839
4 1 .148711 .053222 .528997
5 1 .007851 .659499 .555843
6 1 .510686 .455339 .985745
7 1 .470205 .453653 .011106
ITEM: TIMESTEP
1
ITEM: NUMBER OF ATOMS
7
ITEM: BOX BOUNDS ss ss ss
-2.9198 3.3648
-2.5415 3.5509
-1.6825 2.2656
ITEM: ATOMS id type xs ys zs
1 1 .518059 .992669 .481867
2 1 .995465 .599518 .447756
3 1 .773591 .006394 .472168
4 1 .146388 .052842 .529866
5 1 .008598 .658736 .553241
6 1 .515716 .456391 .986585
7 1 .471782 .452394 .018207
ITEM: TIMESTEP
50
ITEM: NUMBER OF ATOMS
7
ITEM: BOX BOUNDS ss ss ss
-2.9198 3.3666
-2.5415 3.5509
-1.6825 2.2656
ITEM: ATOMS id type xs ys zs
1 1 .517658 .992675 .481523
2 1 .995478 .599882 .447858
3 1 .773836 .006246 .472144
4 1 .145510 .053001 .529620
5 1 .008496 .658838 .553308
6 1 .515827 .456197 .986427
7 1 .471818 .452198 .018843
ITEM: TIMESTEP
100
ITEM: NUMBER OF ATOMS
7
ITEM: BOX BOUNDS ss ss ss
-2.9090 3.3723
-2.5415 3.5509
-1.6825 2.2656
ITEM: ATOMS id type xs ys zs
1 1 .516320 .992449 .481518
2 1 .994529 .600249 .447682
3 1 .773056 .006220 .472143
4 1 .143703 .052902 .529685
5 1 .006885 .659128 .553756
6 1 .514217 .456064 .986092
7 1 .470848 .452255 .018480
ITEM: TIMESTEP
150
ITEM: NUMBER OF ATOMS
7
ITEM: BOX BOUNDS ss ss ss
-2.9094 3.3798
-2.5495 3.5509
-1.6825 2.2656
ITEM: ATOMS id type xs ys zs
1 1 .515748 .992277 .481839
2 1 .993238 .601065 .447637
3 1 .772497 .007844 .472375
4 1 .143938 .054097 .529654
5 1 .007047 .659680 .554580
6 1 .513142 .456559 .985428
7 1 .470618 .453169 .017303
ITEM: TIMESTEP
200
ITEM: NUMBER OF ATOMS
7
ITEM: BOX BOUNDS ss ss ss
-2.9127 3.3824
-2.5747 3.5534
-1.6825 2.2656
ITEM: ATOMS id type xs ys zs
1 1 .515625 .991723 .482225
2 1 .992699 .602708 .447869
3 1 .772449 .012476 .472462
4 1 .144724 .058127 .529531
5 1 .007399 .660978 .555265
6 1 .512634 .458640 .984648
7 1 .470753 .455472 .015717
ITEM: TIMESTEP
250
ITEM: NUMBER OF ATOMS
7
ITEM: BOX BOUNDS ss ss ss
-2.9228 3.3875
-2.5605 3.5509
-1.6825 2.2656
ITEM: ATOMS id type xs ys zs
1 1 .516030 .991690 .482123
2 1 .992078 .602076 .448446
3 1 .772023 .010965 .472194
4 1 .147065 .056149 .528978
5 1 .008345 .660610 .555323
6 1 .512499 .458138 .984054
7 1 .471435 .454881 .014324
ITEM: TIMESTEP
300
ITEM: NUMBER OF ATOMS
7
ITEM: BOX BOUNDS ss ss ss
-2.9140 3.3878
-2.5536 3.5509
-1.6825 2.2656
ITEM: ATOMS id type xs ys zs
1 1 .515556 .991251 .481864
2 1 .992172 .601419 .449312
3 1 .771272 .009842 .472151
4 1 .147268 .055329 .528325
5 1 .006374 .660050 .555078
6 1 .511476 .458052 .984500
7 1 .471205 .454768 .013651
ITEM: TIMESTEP
350
ITEM: NUMBER OF ATOMS
7
ITEM: BOX BOUNDS ss ss ss
-2.9256 3.3900
-2.5614 3.5503
-1.6825 2.2594
ITEM: ATOMS id type xs ys zs
1 1 .516502 .990851 .482393
2 1 .991963 .601223 .451268
3 1 .771476 .011194 .473458
4 1 .149851 .056811 .529620
5 1 .007966 .660787 .556216
6 1 .511763 .458891 .986773
7 1 .472095 .455812 .013085
ITEM: TIMESTEP
400
ITEM: NUMBER OF ATOMS
7
ITEM: BOX BOUNDS ss ss ss
-2.9291 3.3963
-2.5599 3.5461
-1.6860 2.2589
ITEM: ATOMS id type xs ys zs
1 1 .516429 .991129 .483034
2 1 .990675 .600989 .453345
3 1 .771283 .011324 .474188
4 1 .150769 .056813 .530551
5 1 .008549 .661624 .557416
6 1 .511083 .458891 .987095
7 1 .471686 .456019 .013298
ITEM: TIMESTEP
1
ITEM: NUMBER OF ATOMS
7
ITEM: BOX BOUNDS ss ss ss
-2.9252 3.3835
-2.5450 3.5421
-1.6825 2.2566
ITEM: ATOMS id type xs ys zs
1 1 .516933 .994110 .482965
2 1 .992521 .600612 .448777
3 1 .771497 .006969 .473250
4 1 .146682 .053454 .531072
5 1 .009418 .659885 .554509
6 1 .514601 .457360 .988833
7 1 .470833 .453362 .018253
ITEM: TIMESTEP
50
ITEM: NUMBER OF ATOMS
7
ITEM: BOX BOUNDS ss ss ss
-2.9252 3.3835
-2.5450 3.5421
-1.6825 2.2566
ITEM: ATOMS id type xs ys zs
1 1 .516689 .994122 .482629
2 1 .992830 .600956 .448850
3 1 .771984 .006788 .473168
4 1 .145771 .053611 .530773
5 1 .009300 .659992 .554632
6 1 .514911 .457103 .988634
7 1 .470953 .453107 .018958
ITEM: TIMESTEP
100
ITEM: NUMBER OF ATOMS
7
ITEM: BOX BOUNDS ss ss ss
-2.9204 3.3835
-2.5450 3.5421
-1.6825 2.2566
ITEM: ATOMS id type xs ys zs
1 1 .516392 .993849 .482444
2 1 .992832 .601453 .448715
3 1 .772107 .006605 .473167
4 1 .144818 .053548 .531030
5 1 .008543 .660408 .555101
6 1 .514205 .456965 .988190
7 1 .470798 .452955 .018402
ITEM: TIMESTEP
150
ITEM: NUMBER OF ATOMS
7
ITEM: BOX BOUNDS ss ss ss
-2.9204 3.3795
-2.5484 3.5421
-1.6825 2.2566
ITEM: ATOMS id type xs ys zs
1 1 .517330 .993484 .482236
2 1 .993195 .602322 .448244
3 1 .772635 .007048 .472853
4 1 .145573 .054070 .531758
5 1 .008874 .661054 .556007
6 1 .513844 .457288 .987249
7 1 .471083 .452900 .016463
ITEM: TIMESTEP
200
ITEM: NUMBER OF ATOMS
7
ITEM: BOX BOUNDS ss ss ss
-2.9204 3.3831
-2.5503 3.5480
-1.6825 2.2566
ITEM: ATOMS id type xs ys zs
1 1 .517911 .992222 .482580
2 1 .992135 .602054 .447728
3 1 .772303 .006986 .473185
4 1 .146130 .054130 .531954
5 1 .009385 .660521 .556887
6 1 .512637 .456697 .986510
7 1 .471334 .452150 .014707
ITEM: TIMESTEP
250
ITEM: NUMBER OF ATOMS
7
ITEM: BOX BOUNDS ss ss ss
-2.9204 3.3839
-2.5561 3.5521
-1.6825 2.2566
ITEM: ATOMS id type xs ys zs
1 1 .518347 .991291 .482840
2 1 .991743 .601669 .447802
3 1 .772418 .007740 .473764
4 1 .146212 .054699 .532209
5 1 .009764 .660487 .557764
6 1 .511878 .456337 .986041
7 1 .471838 .452125 .014045
ITEM: TIMESTEP
300
ITEM: NUMBER OF ATOMS
7
ITEM: BOX BOUNDS ss ss ss
-2.9144 3.3821
-2.5610 3.5455
-1.6825 2.2566
ITEM: ATOMS id type xs ys zs
1 1 .518859 .992104 .482887
2 1 .991803 .602203 .447943
3 1 .772562 .008597 .474198
4 1 .145587 .055503 .532284
5 1 .009094 .661861 .558314
6 1 .511118 .456847 .986054
7 1 .471723 .453113 .013531
ITEM: TIMESTEP
350
ITEM: NUMBER OF ATOMS
7
ITEM: BOX BOUNDS ss ss ss
-2.9142 3.3869
-2.5580 3.5562
-1.6844 2.2566
ITEM: ATOMS id type xs ys zs
1 1 .519147 .990021 .482827
2 1 .990873 .600559 .448218
3 1 .772179 .008427 .474959
4 1 .145785 .054846 .532680
5 1 .009326 .661203 .559141
6 1 .510557 .455458 .986382
7 1 .471164 .451994 .013581
ITEM: TIMESTEP
400
ITEM: NUMBER OF ATOMS
7
ITEM: BOX BOUNDS ss ss ss
-2.9100 3.3780
-2.5506 3.5422
-1.6890 2.2566
ITEM: ATOMS id type xs ys zs
1 1 .519998 .992087 .483269
2 1 .992136 .601217 .449020
3 1 .773604 .007556 .476273
4 1 .145606 .053791 .533384
5 1 .008990 .662836 .560018
6 1 .510856 .455858 .986653
7 1 .471250 .452191 .014771
ITEM: TIMESTEP
1
ITEM: NUMBER OF ATOMS
7
ITEM: BOX BOUNDS ss ss ss
-2.9132 3.3793
-2.5474 3.5440
-1.6829 2.2566
ITEM: ATOMS id type xs ys zs
1 1 .516362 .993804 .483029
2 1 .993166 .600581 .448838
3 1 .771575 .007356 .473309
4 1 .145155 .053811 .531124
5 1 .007542 .659812 .554560
6 1 .514023 .457428 .988837
7 1 .470147 .453434 .018364
ITEM: TIMESTEP
50
ITEM: NUMBER OF ATOMS
7
ITEM: BOX BOUNDS ss ss ss
-2.9132 3.3793
-2.5474 3.5440
-1.6829 2.2566
ITEM: ATOMS id type xs ys zs
1 1 .516115 .993790 .482641
2 1 .993512 .600993 .448897
3 1 .772091 .007175 .473199
4 1 .144158 .053990 .530854
5 1 .007444 .659885 .554642
6 1 .514389 .457170 .988632
7 1 .470305 .453169 .019149
ITEM: TIMESTEP
100
ITEM: NUMBER OF ATOMS
7
ITEM: BOX BOUNDS ss ss ss
-2.9132 3.3793
-2.5474 3.5440
-1.6829 2.2566
ITEM: ATOMS id type xs ys zs
1 1 .516041 .993434 .482410
2 1 .993580 .601320 .448842
3 1 .772370 .007072 .473421
4 1 .143670 .053967 .531194
5 1 .007428 .660220 .555083
6 1 .514141 .457054 .988265
7 1 .470764 .453050 .018827
ITEM: TIMESTEP
150
ITEM: NUMBER OF ATOMS
7
ITEM: BOX BOUNDS ss ss ss
-2.9132 3.3793
-2.5474 3.5453
-1.6828 2.2566
ITEM: ATOMS id type xs ys zs
1 1 .516027 .992860 .482457
2 1 .993402 .601491 .448511
3 1 .772461 .006986 .473876
4 1 .143963 .053987 .531610
5 1 .007451 .660516 .555057
6 1 .513563 .456842 .987928
7 1 .471209 .452856 .017666
ITEM: TIMESTEP
200
ITEM: NUMBER OF ATOMS
7
ITEM: BOX BOUNDS ss ss ss
-2.9176 3.3816
-2.5539 3.5453
-1.6825 2.2566
ITEM: ATOMS id type xs ys zs
1 1 .516219 .992965 .482889
2 1 .992773 .602047 .448543
3 1 .772239 .007874 .474111
4 1 .144814 .055009 .532024
5 1 .008260 .661220 .554990
6 1 .512969 .457308 .987746
7 1 .471822 .453592 .016974
ITEM: TIMESTEP
250
ITEM: NUMBER OF ATOMS
7
ITEM: BOX BOUNDS ss ss ss
-2.9149 3.3843
-2.5576 3.5460
-1.6825 2.2566
ITEM: ATOMS id type xs ys zs
1 1 .515868 .992887 .483344
2 1 .992110 .602459 .449088
3 1 .771461 .008895 .473727
4 1 .144597 .055800 .532765
5 1 .008308 .661613 .555423
6 1 .512219 .457630 .988147
7 1 .471548 .454083 .016506
ITEM: TIMESTEP
300
ITEM: NUMBER OF ATOMS
7
ITEM: BOX BOUNDS ss ss ss
-2.9120 3.3797
-2.5509 3.5535
-1.6825 2.2572
ITEM: ATOMS id type xs ys zs
1 1 .516011 .991624 .483606
2 1 .992528 .601909 .449643
3 1 .771564 .008448 .472981
4 1 .144893 .054971 .533372
5 1 .008300 .660923 .555840
6 1 .512374 .456426 .988676
7 1 .471449 .453271 .016112
ITEM: TIMESTEP
350
ITEM: NUMBER OF ATOMS
7
ITEM: BOX BOUNDS ss ss ss
-2.9145 3.3836
-2.5522 3.5550
-1.6825 2.2625
ITEM: ATOMS id type xs ys zs
1 1 .516237 .991325 .483048
2 1 .991777 .601942 .449881
3 1 .771151 .009145 .471643
4 1 .145462 .055194 .533587
5 1 .008865 .660929 .555548
6 1 .512049 .456606 .987790
7 1 .471123 .453428 .016007
ITEM: TIMESTEP
400
ITEM: NUMBER OF ATOMS
7
ITEM: BOX BOUNDS ss ss ss
-2.9112 3.3837
-2.5544 3.5506
-1.6825 2.2640
ITEM: ATOMS id type xs ys zs
1 1 .516632 .991386 .484357
2 1 .991268 .601797 .451769
3 1 .770903 .009404 .471325
4 1 .145420 .055407 .534373
5 1 .008552 .660866 .555836
6 1 .511270 .456522 .987462
7 1 .470647 .453509 .015012
ITEM: TIMESTEP
1
ITEM: NUMBER OF ATOMS
7
ITEM: BOX BOUNDS ss ss ss
-2.9033 3.3732
-2.5405 3.5488
-1.6825 2.2573
ITEM: ATOMS id type xs ys zs
1 1 .516097 .993014 .482882
2 1 .994125 .599659 .448699
3 1 .771965 .006222 .473166
4 1 .143943 .052694 .530984
5 1 .005974 .658908 .554411
6 1 .513753 .456451 .988667
7 1 .469764 .452456 .018248
ITEM: TIMESTEP
50
ITEM: NUMBER OF ATOMS
7
ITEM: BOX BOUNDS ss ss ss
-2.9033 3.3732
-2.5405 3.5488
-1.6825 2.2573
ITEM: ATOMS id type xs ys zs
1 1 .515809 .993034 .482462
2 1 .994511 .600085 .448735
3 1 .772514 .006019 .473061
4 1 .142880 .052919 .530632
5 1 .005828 .658982 .554490
6 1 .514174 .456180 .988461
7 1 .469896 .452179 .019150
ITEM: TIMESTEP
100
ITEM: NUMBER OF ATOMS
7
ITEM: BOX BOUNDS ss ss ss
-2.9094 3.3773
-2.5405 3.5507
-1.6825 2.2573
ITEM: ATOMS id type xs ys zs
1 1 .515807 .992453 .482211
2 1 .993859 .600295 .448705
3 1 .772573 .005834 .473050
4 1 .143095 .052910 .530618
5 1 .006772 .659159 .554956
6 1 .514025 .455794 .988260
7 1 .470546 .452013 .019051
ITEM: TIMESTEP
150
ITEM: NUMBER OF ATOMS
7
ITEM: BOX BOUNDS ss ss ss
-2.9093 3.3889
-2.5485 3.5488
-1.6825 2.2610
ITEM: ATOMS id type xs ys zs
1 1 .514807 .992688 .481826
2 1 .991891 .601191 .448271
3 1 .771105 .007373 .472825
4 1 .142622 .054139 .530076
5 1 .006977 .660311 .554813
6 1 .512342 .456288 .986662
7 1 .469994 .453005 .017789
ITEM: TIMESTEP
200
ITEM: NUMBER OF ATOMS
7
ITEM: BOX BOUNDS ss ss ss
-2.9133 3.3861
-2.5552 3.5508
-1.6825 2.2638
ITEM: ATOMS id type xs ys zs
1 1 .515288 .992908 .482355
2 1 .991933 .600983 .448102
3 1 .771276 .008679 .472839
4 1 .143065 .054760 .529025
5 1 .007966 .660733 .554627
6 1 .511786 .456560 .984790
7 1 .470427 .453890 .016439
ITEM: TIMESTEP
250
ITEM: NUMBER OF ATOMS
7
ITEM: BOX BOUNDS ss ss ss
-2.9145 3.3777
-2.5587 3.5534
-1.6825 2.2573
ITEM: ATOMS id type xs ys zs
1 1 .515523 .993127 .484297
2 1 .992479 .600436 .449262
3 1 .772118 .009041 .474966
4 1 .143791 .054647 .529345
5 1 .007834 .660493 .556632
6 1 .511658 .457020 .984576
7 1 .471022 .454738 .014868
ITEM: TIMESTEP
300
ITEM: NUMBER OF ATOMS
7
ITEM: BOX BOUNDS ss ss ss
-2.9145 3.3849
-2.5466 3.5648
-1.6825 2.2573
ITEM: ATOMS id type xs ys zs
1 1 .514738 .991216 .484691
2 1 .990806 .598503 .449612
3 1 .771278 .006842 .475332
4 1 .144197 .052710 .529228
5 1 .007264 .658649 .557920
6 1 .510678 .455334 .983929
7 1 .470552 .452879 .014048
ITEM: TIMESTEP
350
ITEM: NUMBER OF ATOMS
7
ITEM: BOX BOUNDS ss ss ss
-2.9172 3.3750
-2.5532 3.5603
-1.6825 2.2638
ITEM: ATOMS id type xs ys zs
1 1 .515707 .991805 .485636
2 1 .991875 .599049 .449358
3 1 .772098 .007670 .475253
4 1 .145979 .054153 .528755
5 1 .007185 .659360 .558299
6 1 .511461 .456817 .982283
7 1 .470993 .454141 .013017
ITEM: TIMESTEP
400
ITEM: NUMBER OF ATOMS
7
ITEM: BOX BOUNDS ss ss ss
-2.9188 3.3717
-2.5551 3.5577
-1.6825 2.2585
ITEM: ATOMS id type xs ys zs
1 1 .516328 .992042 .489044
2 1 .991708 .598699 .450768
3 1 .771300 .007748 .477210
4 1 .147031 .054707 .530506
5 1 .007261 .659792 .559629
6 1 .511450 .457345 .983647
7 1 .470767 .454558 .011770
ITEM: TIMESTEP
1
ITEM: NUMBER OF ATOMS
7
ITEM: BOX BOUNDS ss ss ss
-2.9144 3.3718
-2.5549 3.5478
-1.6830 2.2551
ITEM: ATOMS id type xs ys zs
1 1 .517069 .993192 .483223
2 1 .994363 .600706 .449021
3 1 .772541 .008579 .473500
4 1 .145487 .054947 .531336
5 1 .007736 .659824 .554783
6 1 .514730 .457815 .989221
7 1 .470806 .453826 .018396
ITEM: TIMESTEP
50
ITEM: NUMBER OF ATOMS
7
ITEM: BOX BOUNDS ss ss ss
-2.9144 3.3718
-2.5518 3.5478
-1.6830 2.2551
ITEM: ATOMS id type xs ys zs
1 1 .516753 .993192 .482797
2 1 .994746 .600921 .449155
3 1 .773133 .007839 .473371
4 1 .144395 .054668 .530948
5 1 .007596 .659748 .554898
6 1 .515143 .457245 .989034
7 1 .470932 .453211 .019313
ITEM: TIMESTEP
100
ITEM: NUMBER OF ATOMS
7
ITEM: BOX BOUNDS ss ss ss
-2.9144 3.3808
-2.5518 3.5486
-1.6830 2.2551
ITEM: ATOMS id type xs ys zs
1 1 .515823 .992808 .482762
2 1 .993294 .601329 .449323
3 1 .772335 .007582 .473374
4 1 .143644 .054623 .531034
5 1 .007591 .659960 .555360
6 1 .514064 .456945 .988721
7 1 .470732 .453015 .019008
ITEM: TIMESTEP
150
ITEM: NUMBER OF ATOMS
7
ITEM: BOX BOUNDS ss ss ss
-2.9144 3.3794
-2.5525 3.5500
-1.6830 2.2551
ITEM: ATOMS id type xs ys zs
1 1 .515929 .992662 .483267
2 1 .993107 .601781 .450489
3 1 .772296 .007961 .472808
4 1 .143714 .054632 .531287
5 1 .008033 .660196 .556098
6 1 .513226 .456688 .988439
7 1 .471314 .452953 .017702
ITEM: TIMESTEP
200
ITEM: NUMBER OF ATOMS
7
ITEM: BOX BOUNDS ss ss ss
-2.9144 3.3783
-2.5644 3.5624
-1.6830 2.2551
ITEM: ATOMS id type xs ys zs
1 1 .516351 .990521 .483875
2 1 .992872 .601744 .452199
3 1 .772222 .010586 .471665
4 1 .143437 .056240 .531041
5 1 .008475 .660252 .557329
6 1 .512536 .456479 .988488
7 1 .471181 .453265 .016910
ITEM: TIMESTEP
250
ITEM: NUMBER OF ATOMS
7
ITEM: BOX BOUNDS ss ss ss
-2.9154 3.3860
-2.5568 3.5599
-1.6830 2.2628
ITEM: ATOMS id type xs ys zs
1 1 .516060 .990758 .482856
2 1 .991162 .601994 .452564
3 1 .771477 .009737 .470032
4 1 .143373 .055105 .529444
5 1 .008643 .660443 .556990
6 1 .511646 .455681 .986411
7 1 .470345 .452840 .016366
ITEM: TIMESTEP
300
ITEM: NUMBER OF ATOMS
7
ITEM: BOX BOUNDS ss ss ss
-2.9144 3.3899
-2.5518 3.5532
-1.6830 2.2551
ITEM: ATOMS id type xs ys zs
1 1 .516283 .991405 .483180
2 1 .990115 .603098 .454013
3 1 .770544 .008999 .470141
4 1 .144757 .054085 .528794
5 1 .008388 .660423 .558661
6 1 .510940 .455653 .988149
7 1 .469658 .453378 .014626
ITEM: TIMESTEP
350
ITEM: NUMBER OF ATOMS
7
ITEM: BOX BOUNDS ss ss ss
-2.9144 3.3786
-2.5518 3.5485
-1.6847 2.2551
ITEM: ATOMS id type xs ys zs
1 1 .517516 .992288 .483463
2 1 .991357 .603792 .454318
3 1 .772007 .008912 .470916
4 1 .146229 .053732 .527134
5 1 .008931 .660572 .560396
6 1 .511673 .455842 .988501
7 1 .470460 .454305 .014856
ITEM: TIMESTEP
400
ITEM: NUMBER OF ATOMS
7
ITEM: BOX BOUNDS ss ss ss
-2.9100 3.3716
-2.5590 3.5532
-1.6842 2.2551
ITEM: ATOMS id type xs ys zs
1 1 .518045 .991838 .483040
2 1 .992097 .603889 .454321
3 1 .772786 .010568 .471100
4 1 .146447 .054146 .526544
5 1 .008753 .660226 .561948
6 1 .511665 .455858 .988971
7 1 .470697 .454731 .014300
ITEM: TIMESTEP
1
ITEM: NUMBER OF ATOMS
7
ITEM: BOX BOUNDS ss ss ss
-2.9046 3.3671
-2.5512 3.5431
-1.6829 2.2552
ITEM: ATOMS id type xs ys zs
1 1 .516707 .993960 .483188
2 1 .995102 .600929 .448996
3 1 .772771 .007985 .473467
4 1 .144268 .054421 .531307
5 1 .006195 .660130 .554749
6 1 .514364 .457844 .989182
7 1 .470336 .453848 .018371
ITEM: TIMESTEP
50
ITEM: NUMBER OF ATOMS
7
ITEM: BOX BOUNDS ss ss ss
-2.9046 3.3671
-2.5512 3.5431
-1.6829 2.2552
ITEM: ATOMS id type xs ys zs
1 1 .516369 .994027 .482736
2 1 .995536 .601414 .449089
3 1 .773383 .007775 .473325
4 1 .143045 .054656 .530888
5 1 .006026 .660196 .554871
6 1 .514817 .457548 .988973
7 1 .470520 .453522 .019405
ITEM: TIMESTEP
100
ITEM: NUMBER OF ATOMS
7
ITEM: BOX BOUNDS ss ss ss
-2.9050 3.3790
-2.5512 3.5431
-1.6829 2.2552
ITEM: ATOMS id type xs ys zs
1 1 .515302 .993892 .482555
2 1 .993729 .601869 .449095
3 1 .772419 .007570 .473346
4 1 .142115 .054616 .530931
5 1 .006072 .660578 .555358
6 1 .513697 .457330 .988694
7 1 .470132 .453360 .019277
ITEM: TIMESTEP
150
ITEM: NUMBER OF ATOMS
7
ITEM: BOX BOUNDS ss ss ss
-2.9046 3.3857
-2.5512 3.5543
-1.6829 2.2573
ITEM: ATOMS id type xs ys zs
1 1 .515051 .991949 .481898
2 1 .992100 .601189 .448228
3 1 .771812 .007666 .473920
4 1 .141771 .054577 .530444
5 1 .006406 .660141 .555019
6 1 .512287 .456397 .987442
7 1 .470352 .452166 .017617
ITEM: TIMESTEP
200
ITEM: NUMBER OF ATOMS
7
ITEM: BOX BOUNDS ss ss ss
-2.9112 3.3957
-2.5552 3.5605
-1.6829 2.2557
ITEM: ATOMS id type xs ys zs
1 1 .514893 .990936 .482201
2 1 .989771 .601463 .447200
3 1 .770631 .008697 .476370
4 1 .142072 .055605 .528977
5 1 .007629 .660240 .554367
6 1 .510980 .456258 .987113
7 1 .470626 .451956 .015715
ITEM: TIMESTEP
250
ITEM: NUMBER OF ATOMS
7
ITEM: BOX BOUNDS ss ss ss
-2.9088 3.3919
-2.5512 3.5556
-1.6825 2.2551
ITEM: ATOMS id type xs ys zs
1 1 .514928 .991319 .482549
2 1 .990069 .602095 .446748
3 1 .771141 .008086 .478326
4 1 .141689 .055434 .527903
5 1 .007232 .660803 .554651
6 1 .510321 .456001 .987184
7 1 .470797 .451970 .014647
ITEM: TIMESTEP
300
ITEM: NUMBER OF ATOMS
7
ITEM: BOX BOUNDS ss ss ss
-2.9088 3.3786
-2.5536 3.5474
-1.6825 2.2551
ITEM: ATOMS id type xs ys zs
1 1 .516171 .991737 .482511
2 1 .991710 .603255 .447145
3 1 .773002 .008632 .479228
4 1 .142155 .056356 .526847
5 1 .006920 .662030 .556094
6 1 .510769 .457099 .986945
7 1 .471375 .452591 .013909
ITEM: TIMESTEP
350
ITEM: NUMBER OF ATOMS
7
ITEM: BOX BOUNDS ss ss ss
-2.9166 3.3787
-2.5512 3.5468
-1.6825 2.2551
ITEM: ATOMS id type xs ys zs
1 1 .517424 .991000 .482027