ITEM: TIMESTEP
1
ITEM: NUMBER OF ATOMS
7
ITEM: BOX BOUNDS ss ss ss
-9.0026 9.7126
-8.5090 9.2686
-5.6759 5.7972
ITEM: ATOMS id type xs ys zs
1 1 .508564 .666668 .467943
2 1 .666668 .531714 .507128
3 1 .591992 .333334 .536897
4 1 .389232 .338858 .531751
5 1 .333332 .541836 .467825
6 1 .491144 .499557 .666664
7 1 .503109 .471268 .333333
ITEM: TIMESTEP
50
ITEM: NUMBER OF ATOMS
7
ITEM: BOX BOUNDS ss ss ss
-9.0026 9.7126
-8.5090 9.2686
-5.6759 5.7972
ITEM: ATOMS id type xs ys zs
1 1 .508656 .666725 .468025
2 1 .666710 .531687 .507146
3 1 .591957 .333357 .536804
4 1 .389220 .338804 .531915
5 1 .333282 .541731 .467731
6 1 .491120 .499590 .666578
7 1 .503099 .471329 .333334
ITEM: TIMESTEP
100
ITEM: NUMBER OF ATOMS
7
ITEM: BOX BOUNDS ss ss ss
-9.0026 9.7126
-8.5090 9.2686
-5.6759 5.7972
ITEM: ATOMS id type xs ys zs
1 1 .508618 .666721 .467987
2 1 .666667 .531625 .507227
3 1 .591948 .333322 .536651
4 1 .389253 .338812 .531911
5 1 .333249 .541679 .467712
6 1 .491110 .499616 .666600
7 1 .503083 .471302 .333360
ITEM: TIMESTEP
150
ITEM: NUMBER OF ATOMS
7
ITEM: BOX BOUNDS ss ss ss
-9.0026 9.7126
-8.5090 9.2686
-5.6759 5.7972
ITEM: ATOMS id type xs ys zs
1 1 .508510 .666690 .467981
2 1 .666633 .531658 .507135
3 1 .592023 .333263 .536333
4 1 .389189 .338922 .531900
5 1 .333149 .541617 .467765
6 1 .491206 .499617 .666698
7 1 .503005 .471210 .333570
ITEM: TIMESTEP
200
ITEM: NUMBER OF ATOMS
7
ITEM: BOX BOUNDS ss ss ss
-9.0026 9.7126
-8.5090 9.2686
-5.6759 5.7972
ITEM: ATOMS id type xs ys zs
1 1 .508414 .666746 .468015
2 1 .666686 .531769 .506912
3 1 .592143 .333233 .535987
4 1 .389114 .338999 .531900
5 1 .333216 .541567 .468012
6 1 .491351 .499619 .666701
7 1 .502995 .471183 .333656
ITEM: TIMESTEP
250
ITEM: NUMBER OF ATOMS
7
ITEM: BOX BOUNDS ss ss ss
-9.0026 9.7126
-8.5090 9.2686
-5.6759 5.7972
ITEM: ATOMS id type xs ys zs
1 1 .508319 .666778 .467998
2 1 .666681 .531814 .506832
3 1 .592256 .333168 .535808
4 1 .389118 .338964 .532020
5 1 .333311 .541534 .468366
6 1 .491492 .499556 .666765
7 1 .502980 .471214 .333699
ITEM: TIMESTEP
300
ITEM: NUMBER OF ATOMS
7
ITEM: BOX BOUNDS ss ss ss
-9.0026 9.7126
-8.5090 9.2686
-5.6759 5.7972
ITEM: ATOMS id type xs ys zs
1 1 .508285 .666839 .467935
2 1 .666659 .531762 .506791
3 1 .592224 .333137 .535792
4 1 .389176 .338933 .532128
5 1 .333346 .541599 .468368
6 1 .491466 .499596 .666793
7 1 .502920 .471213 .333720
ITEM: TIMESTEP
350
ITEM: NUMBER OF ATOMS
7
ITEM: BOX BOUNDS ss ss ss
-9.0026 9.7126
-8.5090 9.2686
-5.6759 5.7972
ITEM: ATOMS id type xs ys zs
1 1 .508349 .666837 .467852
2 1 .666628 .531785 .506709
3 1 .592199 .333190 .535770
4 1 .389242 .339038 .532160
5 1 .333326 .541591 .468341
6 1 .491487 .499678 .666880
7 1 .502918 .471250 .333727
ITEM: TIMESTEP
400
ITEM: NUMBER OF ATOMS
7
ITEM: BOX BOUNDS ss ss ss
-9.0026 9.7126
-8.5090 9.2686
-5.6759 5.7972
ITEM: ATOMS id type xs ys zs
1 1 .508283 .666838 .467759
2 1 .666650 .531826 .506708
3 1 .592192 .333285 .535684
4 1 .389272 .339154 .532249
5 1 .333281 .541564 .468342
6 1 .491489 .499772 .666899
7 1 .502910 .471244 .333691
ITEM: TIMESTEP
450
ITEM: NUMBER OF ATOMS
7
ITEM: BOX BOUNDS ss ss ss
-9.0026 9.7126
-8.5090 9.2686
-5.6759 5.7972
ITEM: ATOMS id type xs ys zs
1 1 .508187 .666801 .467796
2 1 .666632 .531906 .506797
3 1 .592171 .333413 .535553
4 1 .389302 .339100 .532323
5 1 .333273 .541507 .468222
6 1 .491479 .499744 .666944
7 1 .502861 .471260 .333552
ITEM: TIMESTEP
500
ITEM: NUMBER OF ATOMS
7
ITEM: BOX BOUNDS ss ss ss
-9.0026 9.7126
-8.5090 9.2686
-5.6759 5.7972
ITEM: ATOMS id type xs ys zs
1 1 .508159 .666799 .467861
2 1 .666614 .531936 .506909
3 1 .592175 .333415 .535490
4 1 .389316 .339087 .532462
5 1 .333289 .541495 .468150
6 1 .491495 .499746 .666971
7 1 .502870 .471277 .333483
ITEM: TIMESTEP
550
ITEM: NUMBER OF ATOMS
7
ITEM: BOX BOUNDS ss ss ss
-9.0026 9.7126
-8.5090 9.2686
-5.6759 5.7972
ITEM: ATOMS id type xs ys zs
1 1 .508095 .666877 .468069
2 1 .666580 .532083 .507085
3 1 .592138 .333413 .535393
4 1 .389310 .339184 .532580
5 1 .333523 .541563 .468342
6 1 .491560 .499818 .667096
7 1 .503016 .471301 .333341
ITEM: TIMESTEP
600
ITEM: NUMBER OF ATOMS
7
ITEM: BOX BOUNDS ss ss ss
-9.0026 9.7126
-8.5090 9.2686
-5.6759 5.7972
ITEM: ATOMS id type xs ys zs
1 1 .508073 .666889 .468203
2 1 .666542 .532180 .507106
3 1 .592078 .333397 .535347
4 1 .389321 .339198 .532590
5 1 .333563 .541667 .468271
6 1 .491538 .499831 .667195
7 1 .503080 .471387 .333359
ITEM: TIMESTEP
1
ITEM: NUMBER OF ATOMS
7
ITEM: BOX BOUNDS ss ss ss
-9.0026 9.7126
-8.5090 9.2686
-5.6759 5.7972
ITEM: ATOMS id type xs ys zs
1 1 .508565 .666669 .467942
2 1 .666668 .531714 .507128
3 1 .591991 .333334 .536896
4 1 .389232 .338857 .531750
5 1 .333332 .541835 .467824
6 1 .491145 .499557 .666663
7 1 .503108 .471268 .333332
ITEM: TIMESTEP
50
ITEM: NUMBER OF ATOMS
7
ITEM: BOX BOUNDS ss ss ss
-9.0026 9.7126
-8.5090 9.2686
-5.6759 5.7972
ITEM: ATOMS id type xs ys zs
1 1 .508689 .666746 .468040
2 1 .666717 .531676 .507154
3 1 .591959 .333359 .536785
4 1 .389217 .338785 .531985
5 1 .333259 .541694 .467678
6 1 .491106 .499602 .666551
7 1 .503103 .471362 .333322
ITEM: TIMESTEP
100
ITEM: NUMBER OF ATOMS
7
ITEM: BOX BOUNDS ss ss ss
-9.0026 9.7126
-8.5090 9.2686
-5.6759 5.7972
ITEM: ATOMS id type xs ys zs
1 1 .508728 .666759 .468121
2 1 .666733 .531649 .507218
3 1 .591923 .333375 .536665
4 1 .389218 .338764 .532112
5 1 .333254 .541591 .467574
6 1 .491066 .499661 .666595
7 1 .503085 .471378 .333360
ITEM: TIMESTEP
150
ITEM: NUMBER OF ATOMS
7
ITEM: BOX BOUNDS ss ss ss
-9.0026 9.7126
-8.5090 9.2686
-5.6759 5.7972
ITEM: ATOMS id type xs ys zs
1 1 .508711 .666736 .468082
2 1 .666690 .531681 .507333
3 1 .591825 .333343 .536455
4 1 .389304 .338763 .532065
5 1 .333226 .541500 .467463
6 1 .491125 .499767 .666696
7 1 .503014 .471335 .333372
ITEM: TIMESTEP
200
ITEM: NUMBER OF ATOMS
7
ITEM: BOX BOUNDS ss ss ss
-9.0026 9.7126
-8.5090 9.2686
-5.6759 5.7972
ITEM: ATOMS id type xs ys zs
1 1 .508760 .666700 .468065
2 1 .666652 .531668 .507329
3 1 .591816 .333356 .536197
4 1 .389336 .338796 .532049
5 1 .333193 .541410 .467360
6 1 .491134 .499804 .666742
7 1 .502949 .471334 .333339
ITEM: TIMESTEP
250
ITEM: NUMBER OF ATOMS
7
ITEM: BOX BOUNDS ss ss ss
-9.0026 9.7126
-8.5090 9.2686
-5.6759 5.7972
ITEM: ATOMS id type xs ys zs
1 1 .508683 .666598 .468048
2 1 .666587 .531538 .507295
3 1 .591840 .333221 .535868
4 1 .389469 .338860 .532137
5 1 .333141 .541303 .467268
6 1 .491215 .499845 .666776
7 1 .502996 .471314 .333291
ITEM: TIMESTEP
300
ITEM: NUMBER OF ATOMS
7
ITEM: BOX BOUNDS ss ss ss
-9.0026 9.7126
-8.5090 9.2686
-5.6759 5.7972
ITEM: ATOMS id type xs ys zs
1 1 .508583 .666619 .467935
2 1 .666509 .531342 .507392
3 1 .591868 .332956 .535680
4 1 .389594 .338907 .532193
5 1 .333057 .541129 .467257
6 1 .491302 .499846 .666858
7 1 .503034 .471251 .333293
ITEM: TIMESTEP
350
ITEM: NUMBER OF ATOMS
7
ITEM: BOX BOUNDS ss ss ss
-9.0026 9.7126
-8.5090 9.2686
-5.6759 5.7972
ITEM: ATOMS id type xs ys zs
1 1 .508627 .666686 .467832
2 1 .666512 .531311 .507475
3 1 .591857 .333042 .535595
4 1 .389539 .338830 .532279
5 1 .333115 .541025 .467281
6 1 .491320 .499822 .666996
7 1 .503026 .471299 .333289
ITEM: TIMESTEP
400
ITEM: NUMBER OF ATOMS
7
ITEM: BOX BOUNDS ss ss ss
-9.0026 9.7126
-8.5090 9.2686
-5.6759 5.7972
ITEM: ATOMS id type xs ys zs
1 1 .508605 .666561 .467817
2 1 .666563 .531357 .507512
3 1 .591817 .333198 .535572
4 1 .389408 .338916 .532238
5 1 .333089 .540892 .467443
6 1 .491319 .499692 .667196
7 1 .503075 .471442 .333216
ITEM: TIMESTEP
450
ITEM: NUMBER OF ATOMS
7
ITEM: BOX BOUNDS ss ss ss
-9.0026 9.7126
-8.5090 9.2686
-5.6759 5.7972
ITEM: ATOMS id type xs ys zs
1 1 .508615 .666587 .467818
2 1 .666606 .531458 .507517
3 1 .591849 .333191 .535554
4 1 .389360 .339019 .532272
5 1 .333043 .540825 .467297
6 1 .491316 .499681 .667265
7 1 .503096 .471501 .333424
ITEM: TIMESTEP
500
ITEM: NUMBER OF ATOMS
7
ITEM: BOX BOUNDS ss ss ss
-9.0026 9.7126
-8.5090 9.2686
-5.6759 5.7972
ITEM: ATOMS id type xs ys zs
1 1 .508504 .666561 .467837
2 1 .666702 .531497 .507432
3 1 .591919 .333243 .535516
4 1 .389395 .339141 .532081
5 1 .332945 .540777 .467233
6 1 .491356 .499734 .667457
7 1 .503202 .471621 .333651
ITEM: TIMESTEP
550
ITEM: NUMBER OF ATOMS
7
ITEM: BOX BOUNDS ss ss ss
-9.0026 9.7126
-8.5090 9.2686
-5.6759 5.7972
ITEM: ATOMS id type xs ys zs
1 1 .508509 .666584 .467974
2 1 .666717 .531474 .507395
3 1 .591844 .333175 .535510
4 1 .389367 .339191 .532152
5 1 .332877 .540788 .467247
6 1 .491329 .499765 .667465
7 1 .503264 .471676 .333693
ITEM: TIMESTEP
600
ITEM: NUMBER OF ATOMS
7
ITEM: BOX BOUNDS ss ss ss
-9.0026 9.7126
-8.5090 9.2686
-5.6759 5.7972
ITEM: ATOMS id type xs ys zs
1 1 .508506 .666549 .467978
2 1 .666709 .531434 .507410
3 1 .591714 .333099 .535399
4 1 .389368 .339230 .532330
5 1 .332843 .540694 .467346
6 1 .491313 .499793 .667497
7 1 .503270 .471699 .333570
ITEM: TIMESTEP
650
ITEM: NUMBER OF ATOMS
7
ITEM: BOX BOUNDS ss ss ss
-9.0026 9.7126
-8.5090 9.2686
-5.6759 5.7972
ITEM: ATOMS id type xs ys zs
1 1 .508536 .666649 .468075
2 1 .666754 .531447 .507477
3 1 .591714 .333094 .535381
4 1 .389316 .339197 .532526
5 1 .332873 .540650 .467216
6 1 .491298 .499842 .667437
7 1 .503295 .471752 .333648
ITEM: TIMESTEP
700
ITEM: NUMBER OF ATOMS
7
ITEM: BOX BOUNDS ss ss ss
-9.0026 9.7126
-8.5090 9.2686
-5.6759 5.7972
ITEM: ATOMS id type xs ys zs
1 1 .508612 .666815 .467958
2 1 .666691 .531581 .507582
3 1 .591876 .333149 .535547
4 1 .389312 .339123 .532881
5 1 .332987 .540617 .467121
6 1 .491303 .499854 .667422
7 1 .503349 .471691 .333900
ITEM: TIMESTEP
750
ITEM: NUMBER OF ATOMS
7
ITEM: BOX BOUNDS ss ss ss
-9.0026 9.7126
-8.5090 9.2686
-5.6759 5.7972
ITEM: ATOMS id type xs ys zs
1 1 .508759 .666960 .467939
2 1 .666743 .531694 .507731
3 1 .591990 .333172 .535625
4 1 .389335 .339096 .533106
5 1 .333137 .540556 .467067
6 1 .491342 .499898 .667389
7 1 .503458 .471606 .333916
ITEM: TIMESTEP
800
ITEM: NUMBER OF ATOMS
7
ITEM: BOX BOUNDS ss ss ss
-9.0026 9.7126
-8.5090 9.2686
-5.6759 5.7972
ITEM: ATOMS id type xs ys zs
1 1 .508876 .667027 .468052
2 1 .666836 .531862 .507840
3 1 .592007 .333247 .535656
4 1 .389290 .339071 .533379
5 1 .333322 .540640 .466904
6 1 .491520 .499899 .667416
7 1 .503563 .471621 .333860
ITEM: TIMESTEP
850
ITEM: NUMBER OF ATOMS
7
ITEM: BOX BOUNDS ss ss ss
-9.0026 9.7126
-8.5090 9.2686
-5.6759 5.7972
ITEM: ATOMS id type xs ys zs
1 1 .508823 .667071 .468209
2 1 .666926 .531958 .507815
3 1 .591993 .333244 .535524
4 1 .389364 .338935 .533292
5 1 .333301 .540603 .467081
6 1 .491451 .499894 .667389
7 1 .503585 .471724 .333919
ITEM: TIMESTEP
900
ITEM: NUMBER OF ATOMS
7
ITEM: BOX BOUNDS ss ss ss
-9.0026 9.7126
-8.5090 9.2686
-5.6759 5.7972
ITEM: ATOMS id type xs ys zs
1 1 .508879 .667134 .468332
2 1 .666970 .531889 .507775
3 1 .591952 .333219 .535429
4 1 .389381 .338895 .533393
5 1 .333315 .540609 .467007
6 1 .491421 .499955 .667338
7 1 .503644 .471763 .333970
ITEM: TIMESTEP
950
ITEM: NUMBER OF ATOMS
7
ITEM: BOX BOUNDS ss ss ss
-9.0026 9.7126
-8.5090 9.2686
-5.6759 5.7972
ITEM: ATOMS id type xs ys zs
1 1 .508960 .667143 .468530
2 1 .666934 .531731 .507694
3 1 .591814 .333027 .535015
4 1 .389353 .338929 .533610
5 1 .333483 .540770 .467015
6 1 .491423 .499980 .667471
7 1 .503675 .471746 .334091
ITEM: TIMESTEP
1000
ITEM: NUMBER OF ATOMS
7
ITEM: BOX BOUNDS ss ss ss
-9.0026 9.7126
-8.5090 9.2686
-5.6759 5.7972
ITEM: ATOMS id type xs ys zs
1 1 .508971 .667123 .468660
2 1 .666953 .531730 .507833
3 1 .591831 .332922 .534873
4 1 .389362 .338877 .533880
5 1 .333445 .540723 .467023
6 1 .491441 .499969 .667445
7 1 .503653 .471764 .334133
ITEM: TIMESTEP
1050
ITEM: NUMBER OF ATOMS
7
ITEM: BOX BOUNDS ss ss ss
-9.0026 9.7126
-8.5090 9.2686
-5.6759 5.7972
ITEM: ATOMS id type xs ys zs
1 1 .509015 .667020 .468755
2 1 .667025 .531748 .507988
3 1 .591882 .332876 .534682
4 1 .389356 .338822 .533911
5 1 .333305 .540628 .467097
6 1 .491519 .499840 .667462
7 1 .503603 .471791 .334184
ITEM: TIMESTEP
1100
ITEM: NUMBER OF ATOMS
7
ITEM: BOX BOUNDS ss ss ss
-9.0026 9.7126
-8.5090 9.2686
-5.6759 5.7972
ITEM: ATOMS id type xs ys zs
1 1 .509049 .666866 .468668
2 1 .667098 .531751 .508251
3 1 .591818 .332937 .534441
4 1 .389220 .338842 .533680
5 1 .333215 .540528 .467321
6 1 .491561 .499683 .667354
7 1 .503574 .471906 .333988
ITEM: TIMESTEP
1150
ITEM: NUMBER OF ATOMS
7
ITEM: BOX BOUNDS ss ss ss
-9.0026 9.7126
-8.5090 9.2686
-5.6759 5.7972
ITEM: ATOMS id type xs ys zs
1 1 .508910 .666920 .468509
2 1 .667283 .531865 .508361
3 1 .591654 .333066 .534250
4 1 .389089 .338669 .533697
5 1 .333249 .540643 .467290
6 1 .491545 .499718 .666940
7 1 .503549 .472026 .333877
ITEM: TIMESTEP
1200
ITEM: NUMBER OF ATOMS
7
ITEM: BOX BOUNDS ss ss ss
-9.0026 9.7126
-8.5090 9.2686
-5.6759 5.7972
ITEM: ATOMS id type xs ys zs
1 1 .508962 .667040 .468506
2 1 .667306 .531799 .508386
3 1 .591669 .333094 .534124
4 1 .389133 .338572 .533781
5 1 .333229 .540637 .467203
6 1 .491512 .499726 .666779
7 1 .503542 .472122 .333767
ITEM: TIMESTEP
1250
ITEM: NUMBER OF ATOMS
7
ITEM: BOX BOUNDS ss ss ss
-9.0026 9.7126
-8.5090 9.2686
-5.6759 5.7972
ITEM: ATOMS id type xs ys zs
1 1 .508929 .667170 .468409
2 1 .667303 .531823 .508436
3 1 .591621 .333126 .534042
4 1 .389127 .338554 .533792
5 1 .333234 .540624 .467277
6 1 .491448 .499739 .666713
7 1 .503507 .472231 .333627
ITEM: TIMESTEP
1300
ITEM: NUMBER OF ATOMS
7
ITEM: BOX BOUNDS ss ss ss
-9.0026 9.7126
-8.5090 9.2686
-5.6759 5.7972
ITEM: ATOMS id type xs ys zs
1 1 .509022 .667224 .468376
2 1 .667255 .531844 .508501
3 1 .591575 .333126 .533905
4 1 .389075 .338527 .533951
5 1 .333212 .540566 .467301
6 1 .491460 .499687 .666656
7 1 .503530 .472278 .333520
ITEM: TIMESTEP
1350
ITEM: NUMBER OF ATOMS
7
ITEM: BOX BOUNDS ss ss ss
-9.0026 9.7126
-8.5090 9.2686
-5.6759 5.7972
ITEM: ATOMS id type xs ys zs
1 1 .509166 .667216 .468445
2 1 .667248 .531762 .508585
3 1 .591591 .333124 .533655
4 1 .389004 .338542 .534177
5 1 .333199 .540544 .467108
6 1 .491452 .499664 .666706
7 1 .503597 .472289 .333515
ITEM: TIMESTEP
1400
ITEM: NUMBER OF ATOMS
7
ITEM: BOX BOUNDS ss ss ss
-9.0026 9.7126
-8.5090 9.2686
-5.6759 5.7972
ITEM: ATOMS id type xs ys zs
1 1 .509193 .667247 .468498
2 1 .667297 .531726 .508589
3 1 .591487 .333137 .533418
4 1 .388894 .338651 .534284
5 1 .333222 .540612 .467064
6 1 .491543 .499659 .666719
7 1 .503639 .472314 .333391
ITEM: TIMESTEP
1450
ITEM: NUMBER OF ATOMS
7
ITEM: BOX BOUNDS ss ss ss
-9.0026 9.7126
-8.5090 9.2686
-5.6759 5.7972
ITEM: ATOMS id type xs ys zs
1 1 .509231 .667263 .468792
2 1 .667310 .531802 .508416
3 1 .591454 .333088 .532957
4 1 .388869 .338724 .534501
5 1 .333261 .540630 .467057
6 1 .491586 .499631 .666688
7 1 .503654 .472364 .333319
ITEM: TIMESTEP
1500
ITEM: NUMBER OF ATOMS
7
ITEM: BOX BOUNDS ss ss ss
-9.0026 9.7126
-8.5090 9.2686
-5.6759 5.7972
ITEM: ATOMS id type xs ys zs
1 1 .509188 .667239 .469087
2 1 .667305 .531936 .508135
3 1 .591523 .333045 .532539
4 1 .388905 .338781 .534785
5 1 .333205 .540599 .466927
6 1 .491562 .499600 .666716
7 1 .503642 .472415 .333360
ITEM: TIMESTEP
1550
ITEM: NUMBER OF ATOMS
7
ITEM: BOX BOUNDS ss ss ss
-9.0026 9.7126
-8.5090 9.2686
-5.6759 5.7972
ITEM: ATOMS id type xs ys zs
1 1 .509059 .667150 .469191
2 1 .667343 .531951 .508037
3 1 .591596 .333028 .532252
4 1 .388908 .338763 .535081
5 1 .333217 .540563 .466770
6 1 .491600 .499532 .666764
7 1 .503612 .472464 .333174
ITEM: TIMESTEP
1600
ITEM: NUMBER OF ATOMS
7
ITEM: BOX BOUNDS ss ss ss
-9.0026 9.7126
-8.5090 9.2686
-5.6759 5.7972
ITEM: ATOMS id type xs ys zs
1 1 .508922 .667130 .469253
2 1 .667307 .532029 .507842
3 1 .591718 .333156 .532127
4 1 .389035 .338638 .535146
5 1 .333254 .540409 .466431
6 1 .491622 .499518 .666670
7 1 .503753 .472618 .332903
ITEM: TIMESTEP
1650
ITEM: NUMBER OF ATOMS
7
ITEM: BOX BOUNDS ss ss ss
-9.0026 9.7126
-8.5090 9.2686
-5.6759 5.7972
ITEM: ATOMS id type xs ys zs
1 1 .508856 .667202 .469251
2 1 .667268 .532042 .507802
3 1 .591822 .333229 .532097
4 1 .389164 .338603 .535214
5 1 .333249 .540227 .466204
6 1 .491658 .499519 .666468
7 1 .503860 .472776 .332688
ITEM: TIMESTEP
1700
ITEM: NUMBER OF ATOMS
7
ITEM: BOX BOUNDS ss ss ss
-9.0026 9.7126
-8.5090 9.2686
-5.6759 5.7972
ITEM: ATOMS id type xs ys zs
1 1 .508814 .667302 .469258
2 1 .667186 .532123 .507899
3 1 .591741 .333183 .531949
4 1 .389165 .338623 .535373
5 1 .333236 .540119 .465949
6 1 .491650 .499564 .666550
7 1 .503874 .472811 .332699
ITEM: TIMESTEP
1750
ITEM: NUMBER OF ATOMS
7
ITEM: BOX BOUNDS ss ss ss
-9.0026 9.7126
-8.5090 9.2686
-5.6759 5.7972
ITEM: ATOMS id type xs ys zs
1 1 .508729 .667333 .469315
2 1 .667114 .532219 .508078
3 1 .591612 .333112 .531733
4 1 .389072 .338606 .535513
5 1 .333213 .540014 .465769
6 1 .491607 .499598 .666667
7 1 .503884 .472865 .332698
ITEM: TIMESTEP
1800
ITEM: NUMBER OF ATOMS
7
ITEM: BOX BOUNDS ss ss ss
-9.0026 9.7126
-8.5090 9.2686
-5.6759 5.7972
ITEM: ATOMS id type xs ys zs
1 1 .508723 .667360 .469321
2 1 .667093 .532245 .508195
3 1 .591525 .333140 .531674
4 1 .389012 .338630 .535655
5 1 .333170 .539975 .465613
6 1 .491591 .499637 .666706
7 1 .503865 .472863 .332642
ITEM: TIMESTEP
1850
ITEM: NUMBER OF ATOMS
7
ITEM: BOX BOUNDS ss ss ss
-9.0026 9.7126
-8.5090 9.2686
-5.6759 5.7972
ITEM: ATOMS id type xs ys zs
1 1 .508695 .667353 .469163
2 1 .667131 .532152 .508372
3 1 .591498 .333168 .531518
4 1 .388983 .338744 .535817
5 1 .333060 .539913 .465547
6 1 .491610 .499752 .666589
7 1 .503858 .472928 .332593
ITEM: TIMESTEP
1900
ITEM: NUMBER OF ATOMS
7
ITEM: BOX BOUNDS ss ss ss
-9.0026 9.7126
-8.5090 9.2686
-5.6759 5.7972
ITEM: ATOMS id type xs ys zs
1 1 .508555 .667337 .468898
2 1 .667175 .532090 .508496
3 1 .591541 .333283 .531346
4 1 .388997 .338715 .536105
5 1 .332898 .539891 .465364
6 1 .491523 .499844 .666454
7 1 .503796 .473152 .332634
ITEM: TIMESTEP
1950
ITEM: NUMBER OF ATOMS
7
ITEM: BOX BOUNDS ss ss ss
-9.0026 9.7126
-8.5090 9.2686
-5.6759 5.7972
ITEM: ATOMS id type xs ys zs
1 1 .508525 .667392 .468900
2 1 .667163 .532095 .508534
3 1 .591547 .333368 .531112
4 1 .388978 .338633 .536401
5 1 .332847 .539900 .465296
6 1 .491380 .499923 .666297
7 1 .503798 .473289 .332596
ITEM: TIMESTEP
2000
ITEM: NUMBER OF ATOMS
7
ITEM: BOX BOUNDS ss ss ss
-9.0026 9.7126
-8.5090 9.2686
-5.6759 5.7972
ITEM: ATOMS id type xs ys zs
1 1 .508562 .667465 .468998
2 1 .667171 .532075 .508621
3 1 .591530 .333371 .530903
4 1 .388985 .338582 .536678
5 1 .332786 .539832 .465222
6 1 .491364 .499960 .666211
7 1 .503795 .473365 .332600
ITEM: TIMESTEP
2050
ITEM: NUMBER OF ATOMS
7
ITEM: BOX BOUNDS ss ss ss
-9.0026 9.7126
-8.5090 9.2686
-5.6759 5.7972
ITEM: ATOMS id type xs ys zs
1 1 .508671 .667513 .469236
2 1 .667162 .532076 .508620
3 1 .591566 .333369 .530743
4 1 .389000 .338543 .536849
5 1 .332769 .539739 .465206
6 1 .491350 .499981 .666196
7 1 .503763 .473362 .332660
ITEM: TIMESTEP
2100
ITEM: NUMBER OF ATOMS
7
ITEM: BOX BOUNDS ss ss ss
-9.0026 9.7126
-8.5090 9.2686
-5.6759 5.7972
ITEM: ATOMS id type xs ys zs
1 1 .508695 .667551 .469475
2 1 .667101 .532260 .508670
3 1 .591533 .333506 .530558
4 1 .388908 .338432 .537017
5 1 .332814 .539623 .464994
6 1 .491227 .499897 .666101
7 1 .503738 .473359 .332462
ITEM: TIMESTEP
2150
ITEM: NUMBER OF ATOMS
7
ITEM: BOX BOUNDS ss ss ss
-9.0026 9.7126
-8.5090 9.2686
-5.6759 5.7972
ITEM: ATOMS id type xs ys zs
1 1 .508725 .667614 .469421
2 1 .667054 .532428 .508750
3 1 .591411 .333578 .530302
4 1 .388771 .338298 .537035
5 1 .332857 .539500 .464716
6 1 .491079 .499817 .665941
7 1 .503787 .473453 .332042
ITEM: TIMESTEP
2200
ITEM: NUMBER OF ATOMS
7
ITEM: BOX BOUNDS ss ss ss
-9.0026 9.7126
-8.5090 9.2686
-5.6759 5.7972
ITEM: ATOMS id type xs ys zs
1 1 .508796 .667684 .469365
2 1 .667042 .532430 .508799
3 1 .591291 .333617 .530122
4 1 .388693 .338189 .537175
5 1 .332879 .539352 .464516
6 1 .490999 .499803 .665785
7 1 .503858 .473529 .331757
ITEM: TIMESTEP
2250
ITEM: NUMBER OF ATOMS
7
ITEM: BOX BOUNDS ss ss ss
-9.0026 9.7126
-8.5090 9.2686
-5.6759 5.7972
ITEM: ATOMS id type xs ys zs
1 1 .508737 .667640 .469301
2 1 .667022 .532446 .508967
3 1 .591311 .333652 .529979
4 1 .388720 .338174 .537405
5 1 .332820 .539199 .464407
6 1 .490947 .499915 .665657
7 1 .503824 .473426 .331727
ITEM: TIMESTEP
2300
ITEM: NUMBER OF ATOMS
7
ITEM: BOX BOUNDS ss ss ss
-9.0026 9.7126
-8.5090 9.2686
-5.6759 5.7972
ITEM: ATOMS id type xs ys zs
1 1 .508765 .667645 .469312
2 1 .667001 .532452 .509116
3 1 .591286 .333664 .529825
4 1 .388700 .338137 .537724
5 1 .332742 .539063 .464408
6 1 .490907 .499963 .665622
7 1 .503778 .473421 .331751
ITEM: TIMESTEP
2350
ITEM: NUMBER OF ATOMS
7
ITEM: BOX BOUNDS ss ss ss
-9.0026 9.7126
-8.5090 9.2686
-5.6759 5.7972
ITEM: ATOMS id type xs ys zs
1 1 .508886 .667715 .469329
2 1 .666980 .532405 .509246
3 1 .591217 .333553 .529784
4 1 .388631 .338088 .537909
5 1 .332667 .538950 .464401
6 1 .490916 .499898 .665676
7 1 .503769 .473480 .331834
ITEM: TIMESTEP
2400
ITEM: NUMBER OF ATOMS
7
ITEM: BOX BOUNDS ss ss ss
-9.0026 9.7126
-8.5090 9.2686
-5.6759 5.7972
ITEM: ATOMS id type xs ys zs
1 1 .508917 .667785 .469260
2 1 .666985 .532398 .509370
3 1 .591231 .333430 .529611
4 1 .388684 .338064 .538204
5 1 .332603 .538857 .464211
6 1 .490959 .499898 .665653
7 1 .503804 .473509 .331826
ITEM: TIMESTEP
2450
ITEM: NUMBER OF ATOMS
7
ITEM: BOX BOUNDS ss ss ss
-9.0026 9.7126
-8.5090 9.2686
-5.6759 5.7972
ITEM: ATOMS id type xs ys zs
1 1 .508939 .667881 .469168
2 1 .667000 .532374 .509423
3 1 .591253 .333396 .529295
4 1 .388767 .338016 .538657
5 1 .332552 .538796 .463922
6 1 .490948 .499979 .665522
7 1 .503844 .473578 .331706
ITEM: TIMESTEP
2500
ITEM: NUMBER OF ATOMS
7
ITEM: BOX BOUNDS ss ss ss
-9.0026 9.7126
-8.5090 9.2686
-5.6759 5.7972
ITEM: ATOMS id type xs ys zs
1 1 .508941 .667961 .469159
2 1 .666999 .532295 .509440
3 1 .591236 .333430 .529014
4 1 .388763 .338017 .539093
5 1 .332518 .538771 .463774
6 1 .490914 .500081 .665491
7 1 .503881 .473776 .331599
ITEM: TIMESTEP
2550
ITEM: NUMBER OF ATOMS
7
ITEM: BOX BOUNDS ss ss ss
-9.0026 9.7126
-8.5090 9.2686
-5.6759 5.7972
ITEM: ATOMS id type xs ys zs
1 1 .508992 .668070 .469008
2 1 .666979 .532187 .509383
3 1 .591211 .333461 .528699
4 1 .388723 .338245 .539394
5 1 .332586 .538811 .463625
6 1 .490890 .500246 .665618
7 1 .504013 .474070 .331329
ITEM: TIMESTEP
2600
ITEM: NUMBER OF ATOMS
7
ITEM: BOX BOUNDS ss ss ss
-9.0026 9.7126
-8.5090 9.2686
-5.6759 5.7972
ITEM: ATOMS id type xs ys zs
1 1 .509060 .668189 .468938
2 1 .666924 .532124 .509580
3 1 .591145 .333557 .528429
4 1 .388677 .338287 .539706
5 1 .332679 .538819 .463531
6 1 .490860 .500296 .665511
7 1 .504094 .474257 .331255
ITEM: TIMESTEP
2650
ITEM: NUMBER OF ATOMS
7
ITEM: BOX BOUNDS ss ss ss
-9.0026 9.7126
-8.5090 9.2686
-5.6759 5.7972
ITEM: ATOMS id type xs ys zs
1 1 .509116 .668232 .468941
2 1 .666904 .532111 .509768
3 1 .591042 .333577 .528161
4 1 .388637 .338187 .540048
5 1 .332609 .538766 .463392
6 1 .490820 .500290 .665373
7 1 .504092 .474357 .331150
ITEM: TIMESTEP
2700
ITEM: NUMBER OF ATOMS
7
ITEM: BOX BOUNDS ss ss ss
-9.0026 9.7126
-8.5090 9.2686
-5.6759 5.7972
ITEM: ATOMS id type xs ys zs
1 1 .509197 .668294 .469010
2 1 .666947 .532185 .509858
3 1 .591011 .333561 .527816
4 1 .388635 .338160 .540220
5 1 .332562 .538742 .463353
6 1 .490860 .500266 .665342
7 1 .504095 .474502 .331083
ITEM: TIMESTEP
2750
ITEM: NUMBER OF ATOMS
7
ITEM: BOX BOUNDS ss ss ss
-9.0026 9.7126
-8.5090 9.2686
-5.6759 5.7972
ITEM: ATOMS id type xs ys zs
1 1 .509156 .668323 .469189
2 1 .666980 .532301 .509825
3 1 .590972 .333628 .527404
4 1 .388552 .338121 .540366
5 1 .332447 .538671 .463391
6 1 .490854 .500219 .665283
7 1 .504042 .474688 .331010
ITEM: TIMESTEP
2800
ITEM: NUMBER OF ATOMS
7
ITEM: BOX BOUNDS ss ss ss
-9.0026 9.7126
-8.5090 9.2686
-5.6759 5.7972
ITEM: ATOMS id type xs ys zs
1 1 .509209 .668375 .469327
2 1 .666993 .532315 .509859
3 1 .590910 .333691 .527106
4 1 .388487 .338053 .540680
5 1 .332375 .538549 .463309
6 1 .490821 .500248 .665194
7 1 .504011 .474794 .330838
ITEM: TIMESTEP
2850
ITEM: NUMBER OF ATOMS
7
ITEM: BOX BOUNDS ss ss ss
-9.0026 9.7126
-8.5090 9.2686
-5.6759 5.7972
ITEM: ATOMS id type xs ys zs
1 1 .509290 .668445 .469384
2 1 .666978 .532315 .510023
3 1 .590811 .333706 .526865
4 1 .388411 .337996 .541039
5 1 .332314 .538426 .463202
6 1 .490790 .500304 .665123
7 1 .504020 .474919 .330722
ITEM: TIMESTEP
2900
ITEM: NUMBER OF ATOMS
7
ITEM: BOX BOUNDS ss ss ss
-9.0026 9.7126
-8.5090 9.2686
-5.6759 5.7972
ITEM: ATOMS id type xs ys zs
1 1 .509372 .668529 .469473
2 1 .667011 .532282 .510126
3 1 .590724 .333691 .526653
4 1 .388345 .337913 .541452
5 1 .332294 .538280 .463097
6 1 .490780 .500338 .665036
7 1 .504061 .475043 .330688
ITEM: TIMESTEP
2950
ITEM: NUMBER OF ATOMS
7
ITEM: BOX BOUNDS ss ss ss
-9.0026 9.7126
-8.5090 9.2686
-5.6759 5.7972
ITEM: ATOMS id type xs ys zs
1 1 .509409 .668586 .469612
2 1 .667044 .532263 .510059
3 1 .590681 .333753 .526470
4 1 .388282 .337775 .541912
5 1 .332360 .538136 .463010
6 1 .490770 .500370 .664967
7 1 .504134 .475158 .330563
ITEM: TIMESTEP
3000
ITEM: NUMBER OF ATOMS
7
ITEM: BOX BOUNDS ss ss ss
-9.0026 9.7126
-8.5090 9.2686
-5.6759 5.7972
ITEM: ATOMS id type xs ys zs
1 1 .509434 .668670 .469612
2 1 .667097 .532233 .510102
3 1 .590613 .333795 .526263
4 1 .388242 .337740 .542355
5 1 .332357 .537927 .462870
6 1 .490787 .500445 .664811
7 1 .504224 .475270 .330376
ITEM: TIMESTEP
3050
ITEM: NUMBER OF ATOMS
7
ITEM: BOX BOUNDS ss ss ss
-9.0026 9.7126
-8.5090 9.2686
-5.6759 5.7972
ITEM: ATOMS id type xs ys zs
1 1 .509461 .668771 .469588
2 1 .667189 .532222 .510288
3 1 .590489 .333784 .526020
4 1 .388174 .337749 .542744
5 1 .332288 .537652 .462761
6 1 .490845 .500525 .664594
7 1 .504317 .475417 .330194
ITEM: TIMESTEP
3100
ITEM: NUMBER OF ATOMS
7
ITEM: BOX BOUNDS ss ss ss
-9.0026 9.7126
-8.5090 9.2686
-5.6759 5.7972
ITEM: ATOMS id type xs ys zs
1 1 .509529 .668866 .469603
2 1 .667226 .532197 .510461
3 1 .590344 .333725 .525769
4 1 .388126 .337690 .543121
5 1 .332278 .537425 .462564
6 1 .490879 .500576 .664411
7 1 .504427 .475608 .329995
ITEM: TIMESTEP
3150
ITEM: NUMBER OF ATOMS
7
ITEM: BOX BOUNDS ss ss ss
-9.0026 9.7126
-8.5090 9.2686
-5.6759 5.7972
ITEM: ATOMS id type xs ys zs
1 1 .509583 .668978 .469600
2 1 .667269 .532159 .510542
3 1 .590190 .333710 .525618
4 1 .388019 .337616 .543526
5 1 .332279 .537252 .462353
6 1 .490879 .500610 .664285
7 1 .504573 .475828 .329828
ITEM: TIMESTEP
3200
ITEM: NUMBER OF ATOMS
7
ITEM: BOX BOUNDS ss ss ss
-9.0026 9.7126
-8.5090 9.2686
-5.6759 5.7972
ITEM: ATOMS id type xs ys zs
1 1 .509612 .669067 .469515
2 1 .667303 .532227 .510702
3 1 .590018 .333764 .525459
4 1 .387862 .337558 .544001
5 1 .332280 .537165 .462221
6 1 .490858 .500640 .664137
7 1 .504688 .476023 .329620
ITEM: TIMESTEP
3201
ITEM: NUMBER OF ATOMS
7
ITEM: BOX BOUNDS ss ss ss
-9.0026 9.7126
-8.5090 9.2686
-5.6759 5.7972
ITEM: ATOMS id type xs ys zs
1 1 .509596 .669056 .469504
2 1 .667297 .532230 .510694
3 1 .590025 .333761 .525482
4 1 .387866 .337566 .543959
5 1 .332290 .537187 .462241
6 1 .490863 .500635 .664150
7 1 .504685 .476006 .329625
ITEM: TIMESTEP
3250
ITEM: NUMBER OF ATOMS
7
ITEM: BOX BOUNDS ss ss ss
-9.0026 9.7126
-8.5090 9.2686
-5.6759 5.7972
ITEM: ATOMS id type xs ys zs
1 1 .509201 .668812 .469250
2 1 .667133 .532324 .510506
3 1 .590197 .333715 .526002
4 1 .387976 .337783 .542951
5 1 .332557 .537716 .462715
6 1 .490966 .500499 .664459
7 1 .504591 .475606 .329762
ITEM: TIMESTEP
3300
ITEM: NUMBER OF ATOMS
7
ITEM: BOX BOUNDS ss ss ss
-9.0026 9.7126
-8.5090 9.2686
-5.6759 5.7972
ITEM: ATOMS id type xs ys zs
1 1 .509301 .668913 .469345
2 1 .667164 .532297 .510593
3 1 .590103 .333733 .525813
4 1 .387914 .337689 .543378
5 1 .332530 .537535 .462540
6 1 .490944 .500537 .664349
7 1 .504656 .475759 .329619
ITEM: TIMESTEP
3350
ITEM: NUMBER OF ATOMS
7
ITEM: BOX BOUNDS ss ss ss
-9.0026 9.7126
-8.5090 9.2686
-5.6759 5.7972
ITEM: ATOMS id type xs ys zs
1 1 .509265 .669017 .469545
2 1 .667131 .532321 .510662
3 1 .589984 .333747 .525674
4 1 .387803 .337646 .543889
5 1 .332593 .537346 .462410
6 1 .490964 .500576 .664255
7 1 .504773 .475888 .329397
ITEM: TIMESTEP
3400
ITEM: NUMBER OF ATOMS
7
ITEM: BOX BOUNDS ss ss ss
-9.0026 9.7126
-8.5090 9.2686
-5.6759 5.7972
ITEM: ATOMS id type xs ys zs
1 1 .509094 .669139 .469645
2 1 .667025 .532446 .510833
3 1 .589852 .333766 .525584
4 1 .387596 .337630 .544631
5 1 .332721 .537204 .462278
6 1 .490946 .500637 .664161
7 1 .504934 .476021 .329182
ITEM: TIMESTEP
3450
ITEM: NUMBER OF ATOMS
7
ITEM: BOX BOUNDS ss ss ss
-9.0026 9.7126
-8.5090 9.2686
-5.6759 5.7972
ITEM: ATOMS id type xs ys zs
1 1 .509093 .669202 .469573
2 1 .666979 .532440 .511128
3 1 .589757 .333832 .525382
4 1 .387529 .337570 .545156
5 1 .332766 .537140 .462119
6 1 .490853 .500699 .664190
7 1 .504984 .476214 .328994
ITEM: TIMESTEP
3500
ITEM: NUMBER OF ATOMS
7
ITEM: BOX BOUNDS ss ss ss
-9.0026 9.7126
-8.5090 9.2686
-5.6759 5.7972
ITEM: ATOMS id type xs ys zs
1 1 .509178 .669269 .469567
2 1 .667033 .532457 .511258
3 1 .589631 .333909 .525154
4 1 .387509 .337461 .545579
5 1 .332769 .537033 .461986
6 1 .490783 .500764 .664128
7 1 .505098 .476430 .328832
ITEM: TIMESTEP
3550
ITEM: NUMBER OF ATOMS
7
ITEM: BOX BOUNDS ss ss ss
-9.0026 9.7126
-8.5090 9.2686
-5.6759 5.7972
ITEM: ATOMS id type xs ys zs
1 1 .509262 .669366 .469590
2 1 .667140 .532546 .511373
3 1 .589513 .334014 .524999
4 1 .387442 .337296 .545940
5 1 .332819 .536986 .461782
6 1 .490764 .500768 .664003
7 1 .505281 .476631 .328660
ITEM: TIMESTEP
3600
ITEM: NUMBER OF ATOMS
7
ITEM: BOX BOUNDS ss ss ss
-9.0026 9.7126
-8.5090 9.2686
-5.6759 5.7972
ITEM: ATOMS id type xs ys zs
1 1 .509405 .669461 .469695
2 1 .667210 .532665 .511359
3 1 .589361 .334158 .524844
4 1 .387304 .337168 .546377
5 1 .332925 .536907 .461578
6 1 .490803 .500734 .663887
7 1 .505420 .476831 .328394
ITEM: TIMESTEP
3650
ITEM: NUMBER OF ATOMS
7
ITEM: BOX BOUNDS ss ss ss
-9.0026 9.7126
-8.5090 9.2686
-5.6759 5.7972
ITEM: ATOMS id type xs ys zs
1 1 .509507 .669544 .469794
2 1 .667250 .532706 .511329
3 1 .589224 .334250 .524693
4 1 .387169 .337080 .546906
5 1 .332995 .536788 .461404
6 1 .490793 .500767 .663780
7 1 .505528 .477028 .328168
ITEM: TIMESTEP
3700
ITEM: NUMBER OF ATOMS
7
ITEM: BOX BOUNDS ss ss ss
-9.0026 9.7126
-8.5090 9.2686
-5.6759 5.7972