ITEM: TIMESTEP
1
ITEM: NUMBER OF ATOMS
7
ITEM: BOX BOUNDS ss ss ss
-2.9144 3.3062
-2.3214 3.4516
-1.7842 2.1440
ITEM: ATOMS id type xs ys zs
1 1 .490618 .999363 .598809
2 1 .999405 .630733 .531494
3 1 .817718 .000693 .446729
4 1 .200006 .001364 .419336
5 1 .000581 .628054 .493039
6 1 .492412 .413555 .999027
7 1 .515037 .490776 .000928
ITEM: TIMESTEP
50
ITEM: NUMBER OF ATOMS
7
ITEM: BOX BOUNDS ss ss ss
-2.9408 3.3306
-2.3414 3.4755
-1.8066 2.1696
ITEM: ATOMS id type xs ys zs
1 1 .491000 .995821 .597665
2 1 .995744 .629339 .530471
3 1 .815233 .004420 .447042
4 1 .202799 .005295 .419944
5 1 .004404 .626625 .492392
6 1 .492722 .413318 .992782
7 1 .515000 .489983 .006238
ITEM: TIMESTEP
100
ITEM: NUMBER OF ATOMS
7
ITEM: BOX BOUNDS ss ss ss
-2.9516 3.3407
-2.3476 3.4897
-1.8216 2.1778
ITEM: ATOMS id type xs ys zs
1 1 .492021 .994506 .598775
2 1 .994588 .627674 .531193
3 1 .814018 .006173 .448509
4 1 .204181 .006829 .420708
5 1 .005796 .624331 .492485
6 1 .493368 .412359 .990729
7 1 .514427 .488040 .009850
ITEM: TIMESTEP
150
ITEM: NUMBER OF ATOMS
7
ITEM: BOX BOUNDS ss ss ss
-2.9503 3.3492
-2.3480 3.5089
-1.8208 2.1840
ITEM: ATOMS id type xs ys zs
1 1 .492212 .992183 .598137
2 1 .993128 .625331 .530245
3 1 .812638 .006654 .447739
4 1 .203538 .006764 .419230
5 1 .005607 .621102 .490729
6 1 .493075 .410954 .989272
7 1 .512807 .485565 .010265
ITEM: TIMESTEP
200
ITEM: NUMBER OF ATOMS
7
ITEM: BOX BOUNDS ss ss ss
-2.9557 3.3498
-2.3652 3.5073
-1.8214 2.1881
ITEM: ATOMS id type xs ys zs
1 1 .493212 .993236 .597830
2 1 .992473 .626203 .530976
3 1 .812495 .009796 .447773
4 1 .203835 .009481 .418277
5 1 .006549 .621503 .490643
6 1 .493636 .412812 .987833
7 1 .512144 .486579 .010799
ITEM: TIMESTEP
250
ITEM: NUMBER OF ATOMS
7
ITEM: BOX BOUNDS ss ss ss
-2.9558 3.3503
-2.3618 3.5153
-1.8188 2.1859
ITEM: ATOMS id type xs ys zs
1 1 .493532 .992432 .597708
2 1 .991856 .625033 .532620
3 1 .812283 .009312 .447778
4 1 .203665 .008476 .417957
5 1 .006917 .619653 .491338
6 1 .493586 .411887 .987736
7 1 .511649 .485366 .010245
ITEM: TIMESTEP
300
ITEM: NUMBER OF ATOMS
7
ITEM: BOX BOUNDS ss ss ss
-2.9540 3.3445
-2.3658 3.5131
-1.8323 2.1882
ITEM: ATOMS id type xs ys zs
1 1 .494313 .993429 .598595
2 1 .992481 .625324 .535634
3 1 .812682 .009942 .448944
4 1 .203913 .008400 .418931
5 1 .007165 .619219 .493132
6 1 .493740 .412521 .986626
7 1 .511945 .485908 .013684
ITEM: TIMESTEP
350
ITEM: NUMBER OF ATOMS
7
ITEM: BOX BOUNDS ss ss ss
-2.9531 3.3377
-2.3711 3.5189
-1.8259 2.1833
ITEM: ATOMS id type xs ys zs
1 1 .495321 .993086 .598340
2 1 .993249 .624854 .537117
3 1 .812959 .010716 .448057
4 1 .204146 .008352 .417423
5 1 .007633 .618226 .493282
6 1 .493954 .412653 .987432
7 1 .512367 .486030 .012306
ITEM: TIMESTEP
400
ITEM: NUMBER OF ATOMS
7
ITEM: BOX BOUNDS ss ss ss
-2.9474 3.3357
-2.3772 3.5259
-1.8191 2.1832
ITEM: ATOMS id type xs ys zs
1 1 .495399 .992529 .597389
2 1 .993380 .624315 .537643
3 1 .812762 .011535 .446526
4 1 .203390 .008669 .415824
5 1 .007319 .617646 .492456
6 1 .493586 .412818 .987125
7 1 .512036 .485920 .010886
ITEM: TIMESTEP
1
ITEM: NUMBER OF ATOMS
7
ITEM: BOX BOUNDS ss ss ss
-2.9273 3.3211
-2.3622 3.5116
-1.8010 2.1648
ITEM: ATOMS id type xs ys zs
1 1 .490490 .989160 .597375
2 1 .997022 .626856 .530695
3 1 .816140 .007626 .446738
4 1 .201172 .008282 .419607
5 1 .002631 .624224 .492607
6 1 .492280 .413405 .993806
7 1 .514806 .489301 .005147
ITEM: TIMESTEP
50
ITEM: NUMBER OF ATOMS
7
ITEM: BOX BOUNDS ss ss ss
-2.9399 3.3308
-2.3622 3.5116
-1.8074 2.1671
ITEM: ATOMS id type xs ys zs
1 1 .490841 .989638 .598096
2 1 .995583 .626780 .531037
3 1 .815161 .007856 .447699
4 1 .202688 .008731 .420492
5 1 .004227 .624008 .492772
6 1 .492633 .412775 .993434
7 1 .514883 .488726 .006316
ITEM: TIMESTEP
100
ITEM: NUMBER OF ATOMS
7
ITEM: BOX BOUNDS ss ss ss
-2.9488 3.3359
-2.3622 3.5116
-1.8192 2.1757
ITEM: ATOMS id type xs ys zs
1 1 .491821 .991367 .598869
2 1 .994528 .626873 .532342
3 1 .813966 .009273 .448833
4 1 .203221 .009332 .421626
5 1 .005254 .622428 .493254
6 1 .493516 .412309 .990794
7 1 .513445 .487117 .008160
ITEM: TIMESTEP
150
ITEM: NUMBER OF ATOMS
7
ITEM: BOX BOUNDS ss ss ss
-2.9546 3.3390
-2.3622 3.5116
-1.8253 2.1805
ITEM: ATOMS id type xs ys zs
1 1 .492824 .992430 .598836
2 1 .993911 .627522 .533093
3 1 .813472 .010093 .449021
4 1 .203298 .009487 .421173
5 1 .006418 .621832 .493397
6 1 .494061 .412357 .989037
7 1 .513079 .486450 .009841
ITEM: TIMESTEP
200
ITEM: NUMBER OF ATOMS
7
ITEM: BOX BOUNDS ss ss ss
-2.9570 3.3415
-2.3622 3.5116
-1.8318 2.1833
ITEM: ATOMS id type xs ys zs
1 1 .493571 .993341 .598999
2 1 .993357 .627976 .533855
3 1 .813062 .010370 .449998
4 1 .203241 .009306 .421274
5 1 .007236 .621447 .493532
6 1 .494458 .412644 .987878
7 1 .512786 .485911 .012125
ITEM: TIMESTEP
250
ITEM: NUMBER OF ATOMS
7
ITEM: BOX BOUNDS ss ss ss
-2.9540 3.3495
-2.3622 3.5157
-1.8221 2.1823
ITEM: ATOMS id type xs ys zs
1 1 .493106 .993413 .598034
2 1 .991823 .627705 .533516
3 1 .811649 .010372 .448709
4 1 .202369 .009014 .419670
5 1 .007048 .620473 .492247
6 1 .493943 .412678 .987763
7 1 .511671 .485279 .010669
ITEM: TIMESTEP
300
ITEM: NUMBER OF ATOMS
7
ITEM: BOX BOUNDS ss ss ss
-2.9519 3.3437
-2.3655 3.5186
-1.8247 2.1825
ITEM: ATOMS id type xs ys zs
1 1 .493761 .993627 .597594
2 1 .992542 .627507 .534702
3 1 .812222 .010743 .448462
4 1 .202179 .008904 .419911
5 1 .006927 .619730 .493375
6 1 .494454 .413068 .986814
7 1 .511471 .485182 .012139
ITEM: TIMESTEP
350
ITEM: NUMBER OF ATOMS
7
ITEM: BOX BOUNDS ss ss ss
-2.9560 3.3418
-2.3640 3.5284
-1.8208 2.1799
ITEM: ATOMS id type xs ys zs
1 1 .494531 .992788 .597453
2 1 .992746 .626301 .535259
3 1 .812458 .010549 .447628
4 1 .202576 .007949 .419042
5 1 .007750 .618079 .494023
6 1 .494874 .412500 .986881
7 1 .511468 .484558 .011885
ITEM: TIMESTEP
400
ITEM: NUMBER OF ATOMS
7
ITEM: BOX BOUNDS ss ss ss
-2.9652 3.3457
-2.3722 3.5333
-1.8281 2.1751
ITEM: ATOMS id type xs ys zs
1 1 .495160 .992842 .599089
2 1 .991924 .626385 .537384
3 1 .811883 .011985 .448741
4 1 .203422 .008819 .420009
5 1 .009428 .617780 .496034
6 1 .494981 .413286 .987860
7 1 .511491 .485163 .014428
ITEM: TIMESTEP
1
ITEM: NUMBER OF ATOMS
7
ITEM: BOX BOUNDS ss ss ss
-2.9419 3.3152
-2.3656 3.5313
-1.8049 2.1532
ITEM: ATOMS id type xs ys zs
1 1 .492145 .985861 .599515
2 1 .997978 .624978 .532703
3 1 .817344 .008179 .448576
4 1 .203230 .008833 .421400
5 1 .004965 .622363 .494542
6 1 .493931 .412365 .996716
7 1 .516429 .487966 .006138
ITEM: TIMESTEP
50
ITEM: NUMBER OF ATOMS
7
ITEM: BOX BOUNDS ss ss ss
-2.9419 3.3315
-2.3656 3.5313
-1.8106 2.1694
ITEM: ATOMS id type xs ys zs
1 1 .490899 .986105 .598092
2 1 .995608 .624965 .531029
3 1 .815253 .008358 .447708
4 1 .202889 .009368 .420817
5 1 .004505 .622341 .492737
6 1 .492637 .411854 .992943
7 1 .515089 .487565 .007076
ITEM: TIMESTEP
100
ITEM: NUMBER OF ATOMS
7
ITEM: BOX BOUNDS ss ss ss
-2.9507 3.3365
-2.3656 3.5313
-1.8213 2.1745
ITEM: ATOMS id type xs ys zs
1 1 .492207 .987051 .600430
2 1 .994811 .624636 .532988
3 1 .814260 .009377 .447390
4 1 .204351 .009648 .422267
5 1 .005555 .621360 .491751
6 1 .493174 .410988 .992229
7 1 .514436 .485962 .009648
ITEM: TIMESTEP
150
ITEM: NUMBER OF ATOMS
7
ITEM: BOX BOUNDS ss ss ss
-2.9563 3.3372
-2.3656 3.5313
-1.8256 2.1811
ITEM: ATOMS id type xs ys zs
1 1 .493101 .987722 .600971
2 1 .994444 .624666 .533009
3 1 .814009 .009520 .446493
4 1 .204870 .010165 .421571
5 1 .006434 .620338 .491075
6 1 .494345 .410502 .990886
7 1 .514144 .485078 .011576
ITEM: TIMESTEP
200
ITEM: NUMBER OF ATOMS
7
ITEM: BOX BOUNDS ss ss ss
-2.9580 3.3461
-2.3656 3.5313
-1.8273 2.1869
ITEM: ATOMS id type xs ys zs
1 1 .492891 .988525 .600291
2 1 .992838 .624623 .532560
3 1 .812493 .009509 .445870
4 1 .204380 .010480 .420656
5 1 .006897 .619380 .490684
6 1 .494620 .410646 .989571
7 1 .513023 .484816 .012913
ITEM: TIMESTEP
250
ITEM: NUMBER OF ATOMS
7
ITEM: BOX BOUNDS ss ss ss
-2.9677 3.3483
-2.3656 3.5313
-1.8268 2.1888
ITEM: ATOMS id type xs ys zs
1 1 .493934 .989267 .599819
2 1 .992421 .624549 .532769
3 1 .812196 .009425 .446083
4 1 .205069 .010408 .419918
5 1 .008950 .618935 .490281
6 1 .495676 .410719 .988854
7 1 .513327 .484627 .013103
ITEM: TIMESTEP
300
ITEM: NUMBER OF ATOMS
7
ITEM: BOX BOUNDS ss ss ss
-2.9605 3.3527
-2.3656 3.5313
-1.8225 2.2016
ITEM: ATOMS id type xs ys zs
1 1 .493524 .990041 .597852
2 1 .991642 .624667 .530636
3 1 .811250 .009604 .444694
4 1 .203613 .009881 .417665
5 1 .008456 .618804 .488273
6 1 .494915 .410822 .984973
7 1 .512234 .484654 .011980
ITEM: TIMESTEP
350
ITEM: NUMBER OF ATOMS
7
ITEM: BOX BOUNDS ss ss ss
-2.9613 3.3566
-2.3656 3.5313
-1.8269 2.1967
ITEM: ATOMS id type xs ys zs
1 1 .494215 .990792 .599147
2 1 .991189 .625080 .530931
3 1 .810524 .009903 .445468
4 1 .202838 .009275 .418773
5 1 .009431 .618851 .490336
6 1 .495011 .410898 .985044
7 1 .511647 .484477 .013107
ITEM: TIMESTEP
400
ITEM: NUMBER OF ATOMS
7
ITEM: BOX BOUNDS ss ss ss
-2.9507 3.3527
-2.3656 3.5313
-1.8292 2.1833
ITEM: ATOMS id type xs ys zs
1 1 .494729 .991687 .601785
2 1 .991974 .625740 .532503
3 1 .810310 .009845 .445997
4 1 .200814 .008811 .420728
5 1 .008715 .619154 .493518
6 1 .495029 .410855 .987304
7 1 .510869 .484608 .014231
ITEM: TIMESTEP
1
ITEM: NUMBER OF ATOMS
7
ITEM: BOX BOUNDS ss ss ss
-2.9419 3.3297
-2.3555 3.5209
-1.8006 2.1592
ITEM: ATOMS id type xs ys zs
1 1 .491010 .987570 .598177
2 1 .995677 .625435 .531391
3 1 .815461 .006476 .447305
4 1 .202760 .007134 .420137
5 1 .004950 .622807 .493248
6 1 .492792 .412076 .995207
7 1 .515244 .487942 .005042
ITEM: TIMESTEP
50
ITEM: NUMBER OF ATOMS
7
ITEM: BOX BOUNDS ss ss ss
-2.9419 3.3317
-2.3555 3.5209
-1.8113 2.1668
ITEM: ATOMS id type xs ys zs
1 1 .490790 .987701 .598520
2 1 .995579 .625464 .531336
3 1 .815241 .006609 .448083
4 1 .202928 .007622 .421044
5 1 .004515 .622858 .493271
6 1 .492609 .411651 .993708
7 1 .515201 .487674 .007301
ITEM: TIMESTEP
100
ITEM: NUMBER OF ATOMS
7
ITEM: BOX BOUNDS ss ss ss
-2.9496 3.3410
-2.3555 3.5209
-1.8188 2.1791
ITEM: ATOMS id type xs ys zs
1 1 .491326 .989007 .598490
2 1 .993892 .625466 .530770
3 1 .814139 .007320 .447929
4 1 .204197 .008450 .420668
5 1 .005629 .621941 .492246
6 1 .492965 .411144 .990640
7 1 .514688 .486569 .008480
ITEM: TIMESTEP
150
ITEM: NUMBER OF ATOMS
7
ITEM: BOX BOUNDS ss ss ss
-2.9557 3.3436
-2.3555 3.5209
-1.8215 2.1871
ITEM: ATOMS id type xs ys zs
1 1 .491913 .989761 .598658
2 1 .993552 .625487 .529829
3 1 .814481 .008072 .447658
4 1 .204542 .009204 .420964
5 1 .006965 .620503 .491334
6 1 .494261 .410256 .988812
7 1 .514231 .485348 .009577
ITEM: TIMESTEP
200
ITEM: NUMBER OF ATOMS
7
ITEM: BOX BOUNDS ss ss ss
-2.9630 3.3476
-2.3555 3.5222
-1.8222 2.1949
ITEM: ATOMS id type xs ys zs
1 1 .492543 .990477 .599144
2 1 .992626 .625221 .528669
3 1 .814593 .008913 .447208
4 1 .205109 .008902 .421136
5 1 .008532 .619094 .489899
6 1 .495491 .410132 .987181
7 1 .513274 .484879 .010828
ITEM: TIMESTEP
250
ITEM: NUMBER OF ATOMS
7
ITEM: BOX BOUNDS ss ss ss
-2.9548 3.3509
-2.3664 3.5261
-1.8234 2.1975
ITEM: ATOMS id type xs ys zs
1 1 .492869 .991299 .601063
2 1 .991953 .625618 .527090
3 1 .814460 .011343 .447364
4 1 .204206 .009333 .421451
5 1 .007984 .618645 .488974
6 1 .495146 .411593 .986363
7 1 .511158 .485709 .012167
ITEM: TIMESTEP
300
ITEM: NUMBER OF ATOMS
7
ITEM: BOX BOUNDS ss ss ss
-2.9519 3.3542
-2.3643 3.5249
-1.8275 2.1917
ITEM: ATOMS id type xs ys zs
1 1 .493535 .992751 .604180
2 1 .991409 .625901 .526829
3 1 .813973 .011053 .448536
4 1 .204185 .008109 .422452
5 1 .007910 .618787 .490013
6 1 .494856 .412040 .987228
7 1 .509906 .485780 .014187
ITEM: TIMESTEP
350
ITEM: NUMBER OF ATOMS
7
ITEM: BOX BOUNDS ss ss ss
-2.9460 3.3465
-2.3725 3.5357
-1.8271 2.1958
ITEM: ATOMS id type xs ys zs
1 1 .494593 .992229 .604842
2 1 .992320 .625696 .526112
3 1 .814173 .011990 .447712
4 1 .203736 .008925 .422407
5 1 .007466 .618462 .489759
6 1 .495190 .412841 .985515
7 1 .509635 .485595 .014861
ITEM: TIMESTEP
400
ITEM: NUMBER OF ATOMS
7
ITEM: BOX BOUNDS ss ss ss
-2.9488 3.3428
-2.3748 3.5500
-1.8206 2.1883
ITEM: ATOMS id type xs ys zs
1 1 .496034 .991333 .606365
2 1 .992692 .624587 .527132
3 1 .813591 .011770 .447572
4 1 .203547 .009039 .424242
5 1 .008615 .617323 .490369
6 1 .496250 .413151 .986365
7 1 .510079 .484528 .014118
ITEM: TIMESTEP
1
ITEM: NUMBER OF ATOMS
7
ITEM: BOX BOUNDS ss ss ss
-2.9248 3.3262
-2.3687 3.5348
-1.7876 2.1540
ITEM: ATOMS id type xs ys zs
1 1 .489894 .985276 .597635
2 1 .996221 .624805 .530544
3 1 .815415 .008681 .446072
4 1 .200698 .009338 .418785
5 1 .002240 .622189 .492229
6 1 .491684 .412424 .996493
7 1 .514207 .487944 .001787
ITEM: TIMESTEP
50
ITEM: NUMBER OF ATOMS
7
ITEM: BOX BOUNDS ss ss ss
-2.9393 3.3315
-2.3687 3.5348
-1.8101 2.1689
ITEM: ATOMS id type xs ys zs
1 1 .490498 .985181 .598151
2 1 .995631 .624806 .530673
3 1 .815162 .008793 .447747
4 1 .202625 .009816 .420824
5 1 .004078 .622354 .492849
6 1 .492396 .411815 .993216
7 1 .514986 .487625 .006984
ITEM: TIMESTEP
100
ITEM: NUMBER OF ATOMS
7
ITEM: BOX BOUNDS ss ss ss
-2.9505 3.3390
-2.3687 3.5348
-1.8142 2.1790
ITEM: ATOMS id type xs ys zs
1 1 .492165 .986369 .597688
2 1 .994820 .624396 .529539
3 1 .814637 .009719 .446763
4 1 .204307 .010396 .419606
5 1 .005932 .620885 .491504
6 1 .492873 .411108 .990679
7 1 .515318 .485708 .008530
ITEM: TIMESTEP
150
ITEM: NUMBER OF ATOMS
7
ITEM: BOX BOUNDS ss ss ss
-2.9543 3.3487
-2.3687 3.5348
-1.8261 2.1795
ITEM: ATOMS id type xs ys zs
1 1 .492170 .987291 .599342
2 1 .993739 .624077 .531265
3 1 .813643 .010235 .448139
4 1 .204307 .010693 .420509
5 1 .006477 .619820 .492448
6 1 .492705 .410984 .990163
7 1 .514430 .484966 .011811
ITEM: TIMESTEP
200
ITEM: NUMBER OF ATOMS
7
ITEM: BOX BOUNDS ss ss ss
-2.9621 3.3612
-2.3687 3.5348
-1.8249 2.1876
ITEM: ATOMS id type xs ys zs
1 1 .492009 .988055 .598114
2 1 .991820 .624369 .530619
3 1 .812145 .011013 .447145
4 1 .204599 .010417 .419082
5 1 .007747 .619037 .490834
6 1 .492880 .410954 .988165
7 1 .513356 .484751 .011865
ITEM: TIMESTEP
250
ITEM: NUMBER OF ATOMS
7
ITEM: BOX BOUNDS ss ss ss
-2.9672 3.3580
-2.3687 3.5348
-1.8255 2.1890
ITEM: ATOMS id type xs ys zs
1 1 .493557 .988589 .598510
2 1 .992764 .624323 .530279
3 1 .812266 .011105 .446595
4 1 .205271 .009850 .419065
5 1 .008925 .618471 .490572
6 1 .494082 .410928 .987518
7 1 .513487 .484510 .012683
ITEM: TIMESTEP
300
ITEM: NUMBER OF ATOMS
7
ITEM: BOX BOUNDS ss ss ss
-2.9630 3.3628
-2.3687 3.5348
-1.8233 2.1850
ITEM: ATOMS id type xs ys zs
1 1 .493874 .988901 .599430
2 1 .992348 .623931 .530510
3 1 .811045 .010898 .446267
4 1 .204299 .009045 .419457
5 1 .008852 .617862 .490739
6 1 .493748 .410934 .987869
7 1 .512213 .484111 .012684
ITEM: TIMESTEP
350
ITEM: NUMBER OF ATOMS
7
ITEM: BOX BOUNDS ss ss ss
-2.9730 3.3688
-2.3687 3.5348
-1.8230 2.1810
ITEM: ATOMS id type xs ys zs
1 1 .494640 .989545 .600139
2 1 .990830 .623755 .531180
3 1 .810150 .010375 .446360
4 1 .204947 .008594 .419893
5 1 .010967 .617538 .491285
6 1 .494386 .411011 .988134
7 1 .512058 .484099 .012684
ITEM: TIMESTEP
400
ITEM: NUMBER OF ATOMS
7
ITEM: BOX BOUNDS ss ss ss
-2.9587 3.3731
-2.3687 3.5348
-1.8238 2.1827
ITEM: ATOMS id type xs ys zs
1 1 .493131 .990599 .599738
2 1 .989131 .623958 .531813
3 1 .808838 .009779 .445895
4 1 .202597 .008419 .419686
5 1 .009418 .617621 .490886
6 1 .492943 .411231 .987304
7 1 .510410 .483930 .012664
ITEM: TIMESTEP
1
ITEM: NUMBER OF ATOMS
7
ITEM: BOX BOUNDS ss ss ss
-2.9293 3.3358
-2.3575 3.5302
-1.8045 2.1608
ITEM: ATOMS id type xs ys zs
1 1 .489499 .986016 .598331
2 1 .994688 .624580 .531637
3 1 .814289 .006807 .447672
4 1 .200956 .007463 .420546
5 1 .002944 .621963 .493555
6 1 .491288 .411630 .994811
7 1 .513760 .487356 .006034
ITEM: TIMESTEP
50
ITEM: NUMBER OF ATOMS
7
ITEM: BOX BOUNDS ss ss ss
-2.9422 3.3364
-2.3575 3.5302
-1.8115 2.1687
ITEM: ATOMS id type xs ys zs
1 1 .490291 .985765 .598257
2 1 .994826 .624667 .530876
3 1 .814705 .006851 .448042
4 1 .202703 .007950 .421150
5 1 .004541 .622261 .493095
6 1 .492234 .411119 .993238
7 1 .514959 .487240 .007421
ITEM: TIMESTEP
100
ITEM: NUMBER OF ATOMS
7
ITEM: BOX BOUNDS ss ss ss
-2.9577 3.3452
-2.3575 3.5302
-1.8248 2.1783
ITEM: ATOMS id type xs ys zs
1 1 .490778 .987000 .599001
2 1 .993365 .624771 .530926
3 1 .814667 .007284 .449312
4 1 .204130 .008960 .422525
5 1 .005381 .621845 .492737
6 1 .493199 .410027 .991153
7 1 .514338 .485337 .011494
ITEM: TIMESTEP
150
ITEM: NUMBER OF ATOMS
7
ITEM: BOX BOUNDS ss ss ss
-2.9721 3.3496
-2.3583 3.5302
-1.8209 2.1875
ITEM: ATOMS id type xs ys zs
1 1 .491271 .987716 .598095
2 1 .992535 .625270 .529123
3 1 .815051 .007839 .448505
4 1 .205164 .009735 .420237
5 1 .007020 .620859 .489712
6 1 .494492 .409446 .988563
7 1 .514449 .484113 .010832
ITEM: TIMESTEP
200
ITEM: NUMBER OF ATOMS
7
ITEM: BOX BOUNDS ss ss ss
-2.9737 3.3510
-2.3575 3.5302
-1.8161 2.1855
ITEM: ATOMS id type xs ys zs
1 1 .491854 .988296 .598330
2 1 .992465 .625020 .528941
3 1 .814724 .008025 .448528
4 1 .204766 .009775 .419113
5 1 .007886 .619997 .488941
6 1 .495409 .409279 .988451
7 1 .514056 .483449 .009984
ITEM: TIMESTEP
250
ITEM: NUMBER OF ATOMS
7
ITEM: BOX BOUNDS ss ss ss
-2.9715 3.3520
-2.3659 3.5302
-1.8182 2.1881
ITEM: ATOMS id type xs ys zs
1 1 .493286 .989485 .598652
2 1 .992888 .624489 .529059
3 1 .814645 .009504 .449018
4 1 .204644 .010515 .419961
5 1 .009781 .620627 .492403
6 1 .496185 .410533 .987827
7 1 .513525 .483716 .011668
ITEM: TIMESTEP
300
ITEM: NUMBER OF ATOMS
7
ITEM: BOX BOUNDS ss ss ss
-2.9700 3.3524
-2.3575 3.5302
-1.8218 2.1902
ITEM: ATOMS id type xs ys zs
1 1 .494533 .990355 .599322
2 1 .992816 .623466 .529473
3 1 .815130 .007865 .449980
4 1 .204971 .008455 .421204
5 1 .010534 .619968 .495581
6 1 .496775 .409961 .987509
7 1 .512882 .482345 .014190
ITEM: TIMESTEP
350
ITEM: NUMBER OF ATOMS
7
ITEM: BOX BOUNDS ss ss ss
-2.9547 3.3551
-2.3600 3.5302
-1.8237 2.1855
ITEM: ATOMS id type xs ys zs
1 1 .493924 .990518 .600843
2 1 .992222 .623709 .530803
3 1 .814188 .008229 .450807
4 1 .202915 .008486 .422480
5 1 .008022 .619518 .496797
6 1 .495740 .410152 .988781
7 1 .510846 .482369 .015508
ITEM: TIMESTEP
400
ITEM: NUMBER OF ATOMS
7
ITEM: BOX BOUNDS ss ss ss
-2.9552 3.3542
-2.3664 3.5302
-1.8125 2.1899
ITEM: ATOMS id type xs ys zs
1 1 .494778 .990658 .600005
2 1 .992190 .624315 .529964
3 1 .813689 .009604 .447835
4 1 .202695 .008720 .420942
5 1 .008443 .619443 .495473
6 1 .495950 .410724 .987681
7 1 .510272 .482907 .012976
ITEM: TIMESTEP
1
ITEM: NUMBER OF ATOMS
7
ITEM: BOX BOUNDS ss ss ss
-2.9216 3.3419
-2.3534 3.5182
-1.7876 2.1684
ITEM: ATOMS id type xs ys zs
1 1 .488397 .988022 .595463
2 1 .993716 .625599 .528610
3 1 .813271 .006134 .444445
4 1 .199781 .006795 .417258
5 1 .001719 .622974 .490438
6 1 .490185 .412065 .992887
7 1 .512665 .488001 .001757
ITEM: TIMESTEP
50
ITEM: NUMBER OF ATOMS
7
ITEM: BOX BOUNDS ss ss ss
-2.9424 3.3419
-2.3534 3.5182
-1.8076 2.1726
ITEM: ATOMS id type xs ys zs
1 1 .489801 .987843 .597206
2 1 .994150 .625611 .529809
3 1 .813997 .006264 .447047
4 1 .202656 .007425 .420133
5 1 .004485 .623264 .492001
6 1 .491774 .411515 .992500
7 1 .514578 .487948 .006429
ITEM: TIMESTEP
100
ITEM: NUMBER OF ATOMS
7
ITEM: BOX BOUNDS ss ss ss
-2.9574 3.3464
-2.3534 3.5182
-1.8188 2.1860
ITEM: ATOMS id type xs ys zs
1 1 .490922 .988810 .597243
2 1 .993694 .625657 .529680
3 1 .813496 .007237 .447927
4 1 .205138 .008947 .420458
5 1 .006284 .622366 .491263
6 1 .492974 .410770 .990447
7 1 .515277 .487123 .008977
ITEM: TIMESTEP
150
ITEM: NUMBER OF ATOMS
7
ITEM: BOX BOUNDS ss ss ss
-2.9567 3.3459
-2.3534 3.5182
-1.8241 2.1975
ITEM: ATOMS id type xs ys zs
1 1 .490419 .990638 .596716
2 1 .992704 .625243 .528654
3 1 .812697 .008514 .448058
4 1 .205299 .009199 .420670
5 1 .006207 .620817 .489662
6 1 .493217 .411333 .987708
7 1 .514550 .486736 .008833
ITEM: TIMESTEP
200
ITEM: NUMBER OF ATOMS
7
ITEM: BOX BOUNDS ss ss ss
-2.9719 3.3441
-2.3600 3.5182
-1.8319 2.1926
ITEM: ATOMS id type xs ys zs
1 1 .491310 .991330 .599906
2 1 .992133 .626110 .530435
3 1 .812511 .010353 .450198
4 1 .207407 .009880 .422137
5 1 .008741 .619696 .488903
6 1 .494302 .412691 .989402
7 1 .515194 .487347 .010166
ITEM: TIMESTEP
250
ITEM: NUMBER OF ATOMS
7
ITEM: BOX BOUNDS ss ss ss
-2.9614 3.3419
-2.3534 3.5182
-1.8351 2.1918
ITEM: ATOMS id type xs ys zs
1 1 .490544 .991580 .601274
2 1 .992069 .626250 .531063
3 1 .812311 .010246 .450823
4 1 .206030 .008542 .422555
5 1 .007043 .617918 .487852
6 1 .493217 .412426 .990164
7 1 .513591 .486626 .011114
ITEM: TIMESTEP
300
ITEM: NUMBER OF ATOMS
7
ITEM: BOX BOUNDS ss ss ss
-2.9656 3.3457
-2.3540 3.5199
-1.8351 2.2004
ITEM: ATOMS id type xs ys zs
1 1 .490806 .991672 .600327
2 1 .991322 .626414 .530270
3 1 .811646 .010427 .450022
4 1 .206331 .008389 .421725
5 1 .007525 .617209 .486481
6 1 .493727 .412720 .988158
7 1 .512885 .486172 .011828
ITEM: TIMESTEP
350
ITEM: NUMBER OF ATOMS
7
ITEM: BOX BOUNDS ss ss ss
-2.9804 3.3419
-2.3636 3.5182
-1.8397 2.2020
ITEM: ATOMS id type xs ys zs
1 1 .492583 .992652 .600032
2 1 .991778 .627195 .531705
3 1 .812126 .011547 .450379
4 1 .208361 .009511 .422867
5 1 .009886 .617560 .486182
6 1 .495925 .414256 .987690
7 1 .513900 .486992 .014299
ITEM: TIMESTEP
400
ITEM: NUMBER OF ATOMS
7
ITEM: BOX BOUNDS ss ss ss
-2.9753 3.3442
-2.3584 3.5309
-1.8346 2.2039
ITEM: ATOMS id type xs ys zs
1 1 .491960 .991473 .598441
2 1 .991308 .625442 .532421
3 1 .811531 .010170 .449206
4 1 .207456 .008286 .423364
5 1 .008943 .615376 .485240
6 1 .496009 .413544 .987016
7 1 .513167 .485495 .014390
ITEM: TIMESTEP
1
ITEM: NUMBER OF ATOMS
7
ITEM: BOX BOUNDS ss ss ss
-2.9453 3.3184
-2.3447 3.5176
-1.8053 2.1734
ITEM: ATOMS id type xs ys zs
1 1 .492165 .988101 .596513
2 1 .997465 .625103 .530041
3 1 .817028 .004652 .446356
4 1 .203559 .005315 .419328
5 1 .005504 .622478 .492087
6 1 .493951 .411232 .991668
7 1 .516432 .487286 .006204
ITEM: TIMESTEP
50
ITEM: NUMBER OF ATOMS
7
ITEM: BOX BOUNDS ss ss ss
-2.9453 3.3366
-2.3447 3.5176
-1.8112 2.1734
ITEM: ATOMS id type xs ys zs
1 1 .490448 .987670 .597660
2 1 .994847 .625131 .529947
3 1 .814794 .004687 .447448
4 1 .203227 .005783 .420744
5 1 .005060 .622870 .492477
6 1 .492323 .410702 .992326
7 1 .515236 .487259 .007071
ITEM: TIMESTEP
100
ITEM: NUMBER OF ATOMS
7
ITEM: BOX BOUNDS ss ss ss
-2.9543 3.3423
-2.3486 3.5176
-1.8186 2.1801
ITEM: ATOMS id type xs ys zs
1 1 .491609 .988227 .598729
2 1 .994466 .625681 .529442
3 1 .814136 .006313 .447937
4 1 .204880 .007339 .420696
5 1 .006109 .622325 .492090
6 1 .492756 .410230 .991215
7 1 .515346 .486672 .008628
ITEM: TIMESTEP
150
ITEM: NUMBER OF ATOMS
7
ITEM: BOX BOUNDS ss ss ss
-2.9600 3.3518
-2.3478 3.5176
-1.8256 2.1862
ITEM: ATOMS id type xs ys zs
1 1 .491978 .989283 .598547
2 1 .993388 .626224 .528862
3 1 .812167 .006709 .450140
4 1 .204632 .008821 .420551
5 1 .006617 .621350 .490898
6 1 .493502 .410267 .989739
7 1 .514308 .486539 .010149
ITEM: TIMESTEP
200
ITEM: NUMBER OF ATOMS
7
ITEM: BOX BOUNDS ss ss ss
-2.9588 3.3567
-2.3502 3.5176
-1.8283 2.1880
ITEM: ATOMS id type xs ys zs
1 1 .492544 .990073 .598721
2 1 .993056 .625618 .529605
3 1 .810533 .007894 .452338
4 1 .203471 .010065 .420928
5 1 .007126 .620984 .488902
6 1 .493768 .410812 .989646
7 1 .512965 .486154 .010707
ITEM: TIMESTEP
250
ITEM: NUMBER OF ATOMS
7
ITEM: BOX BOUNDS ss ss ss
-2.9675 3.3736
-2.3547 3.5176
-1.8344 2.1956
ITEM: ATOMS id type xs ys zs
1 1 .492678 .990187 .598925
2 1 .990220 .625821 .529486
3 1 .808403 .009890 .452487
4 1 .203673 .010350 .420785
5 1 .008952 .621124 .486997
6 1 .492850 .411585 .988356
7 1 .512098 .485517 .011353
ITEM: TIMESTEP
300
ITEM: NUMBER OF ATOMS
7
ITEM: BOX BOUNDS ss ss ss
-2.9792 3.3623
-2.3530 3.5176
-1.8435 2.2000
ITEM: ATOMS id type xs ys zs
1 1 .495204 .990294 .599599
2 1 .991620 .625918 .529812
3 1 .809811 .010609 .453359
4 1 .205338 .009725 .421865
5 1 .011450 .620769 .485611
6 1 .494262 .411946 .987714
7 1 .513855 .484925 .012377
ITEM: TIMESTEP
350
ITEM: NUMBER OF ATOMS
7
ITEM: BOX BOUNDS ss ss ss
-2.9691 3.3557
-2.3476 3.5176
-1.8480 2.2083
ITEM: ATOMS id type xs ys zs
1 1 .495230 .990495 .599200
2 1 .992458 .625880 .529117
3 1 .810431 .009805 .452625
4 1 .204304 .008574 .421388
5 1 .010227 .619915 .483956
6 1 .494158 .411436 .985745
7 1 .513589 .484215 .013007
ITEM: TIMESTEP
400
ITEM: NUMBER OF ATOMS
7
ITEM: BOX BOUNDS ss ss ss
-2.9601 3.3621
-2.3519 3.5176
-1.8614 2.2045
ITEM: ATOMS id type xs ys zs
1 1 .493628 .990811 .601215
2 1 .991555 .626600 .530993
3 1 .809421 .010030 .454216
4 1 .203276 .008618 .423002
5 1 .008921 .619141 .485719
6 1 .493572 .411892 .985860
7 1 .512716 .484501 .016264
ITEM: TIMESTEP
1
ITEM: NUMBER OF ATOMS
7
ITEM: BOX BOUNDS ss ss ss
-2.9453 3.3469
-2.3447 3.5176
-1.8374 2.1736
ITEM: ATOMS id type xs ys zs
1 1 .489931 .988101 .599709
2 1 .992946 .625103 .533768
3 1 .813323 .004652 .450759
4 1 .202634 .005313 .423946
5 1 .005477 .622478 .496119
6 1 .491713 .411233 .991673
7 1 .514094 .487286 .014153
ITEM: TIMESTEP
50
ITEM: NUMBER OF ATOMS
7
ITEM: BOX BOUNDS ss ss ss
-2.9453 3.3469
-2.3489 3.5176
-1.8374 2.1736
ITEM: ATOMS id type xs ys zs
1 1 .489645 .987738 .600151
2 1 .993278 .625470 .532962
3 1 .813517 .005342 .450876
4 1 .202834 .006516 .424558
5 1 .004966 .623158 .495734
6 1 .491545 .411195 .992334
7 1 .514405 .487613 .013645
ITEM: TIMESTEP
100
ITEM: NUMBER OF ATOMS
7
ITEM: BOX BOUNDS ss ss ss
-2.9671 3.3469
-2.3520 3.5176
-1.8374 2.1810
ITEM: ATOMS id type xs ys zs
1 1 .492200 .988399 .599812
2 1 .993935 .625727 .531405
3 1 .814244 .006245 .450000
4 1 .205406 .008392 .424474
5 1 .007626 .622380 .494548
6 1 .493401 .411011 .991290
7 1 .515527 .486284 .013568
ITEM: TIMESTEP
150
ITEM: NUMBER OF ATOMS
7
ITEM: BOX BOUNDS ss ss ss
-2.9621 3.3513
-2.3535 3.5176
-1.8374 2.1872
ITEM: ATOMS id type xs ys zs
1 1 .491810 .989227 .599136
2 1 .993451 .625709 .530231
3 1 .813557 .007292 .449430
4 1 .203738 .009640 .424642
5 1 .006653 .621789 .493971
6 1 .493055 .411192 .990133
7 1 .513836 .484809 .013707
ITEM: TIMESTEP
200
ITEM: NUMBER OF ATOMS
7
ITEM: BOX BOUNDS ss ss ss
-2.9686 3.3535
-2.3595 3.5176
-1.8374 2.2039
ITEM: ATOMS id type xs ys zs
1 1 .491885 .989896 .596290
2 1 .992673 .625849 .528391
3 1 .813679 .009152 .447512
4 1 .203744 .010875 .423372
5 1 .007040 .621305 .492360
6 1 .493729 .412025 .985416
7 1 .512816 .484036 .014004
ITEM: TIMESTEP
250
ITEM: NUMBER OF ATOMS
7
ITEM: BOX BOUNDS ss ss ss
-2.9793 3.3626
-2.3571 3.5176
-1.8374 2.2049
ITEM: ATOMS id type xs ys zs
1 1 .492128 .990447 .596874
2 1 .990643 .625921 .528525
3 1 .812876 .009173 .447697
4 1 .204873 .010402 .422958
5 1 .008694 .620976 .491117
6 1 .494479 .411480 .984546
7 1 .512244 .483591 .013939
ITEM: TIMESTEP
300
ITEM: NUMBER OF ATOMS
7
ITEM: BOX BOUNDS ss ss ss
-2.9800 3.3534
-2.3543 3.5176
-1.8374 2.1982
ITEM: ATOMS id type xs ys zs
1 1 .493317 .991231 .599216
2 1 .991843 .626212 .529395
3 1 .813794 .009516 .447626
4 1 .205447 .009246 .423173
5 1 .009164 .620483 .490081
6 1 .495848 .411629 .985171
7 1 .512555 .483745 .014382
ITEM: TIMESTEP
350
ITEM: NUMBER OF ATOMS
7
ITEM: BOX BOUNDS ss ss ss
-2.9841 3.3546
-2.3555 3.5211
-1.8374 2.1920
ITEM: ATOMS id type xs ys zs
1 1 .493251 .991403 .600723
2 1 .990637 .626555 .529654
3 1 .813749 .010208 .446706
4 1 .206817 .007984 .423244
5 1 .010156 .618904 .487996
6 1 .496511 .411454 .986530
7 1 .512243 .483846 .014225
ITEM: TIMESTEP
400
ITEM: NUMBER OF ATOMS
7
ITEM: BOX BOUNDS ss ss ss
-2.9717 3.3545
-2.3624 3.5304
-1.8304 2.1972
ITEM: ATOMS id type xs ys zs
1 1 .491991 .990406 .599884
2 1 .989990 .626527 .527929
3 1 .813035 .011421 .445133
4 1 .205490 .008779 .421573
5 1 .008473 .617809 .485056
6 1 .495910 .411668 .985394
7 1 .510979 .483919 .012342
ITEM: TIMESTEP
1
ITEM: NUMBER OF ATOMS
7
ITEM: BOX BOUNDS ss ss ss
-2.9421 3.3116
-2.3440 3.5201
-1.8080 2.1621
ITEM: ATOMS id type xs ys zs
1 1 .492443 .987670 .598489
2 1 .998551 .624792 .531869
3 1 .817824 .004535 .448010
4 1 .203382 .005196 .420922
5 1 .005009 .622167 .493837
6 1 .494236 .410987 .994494
7 1 .516757 .487017 .006905
ITEM: TIMESTEP
50
ITEM: NUMBER OF ATOMS
7
ITEM: BOX BOUNDS ss ss ss
-2.9426 3.3333
-2.3479 3.5201
-1.8146 2.1710
ITEM: ATOMS id type xs ys zs
1 1 .490369 .987140 .598100
2 1 .995514 .624965 .530728
3 1 .815248 .005135 .448217
4 1 .202913 .006376 .421405
5 1 .004592 .622858 .493284
6 1 .492413 .410820 .992766
7 1 .515388 .487305 .007966
ITEM: TIMESTEP
100
ITEM: NUMBER OF ATOMS
7
ITEM: BOX BOUNDS ss ss ss
-2.9524 3.3430
-2.3550 3.5201
-1.8228 2.1770
ITEM: ATOMS id type xs ys zs
1 1 .490546 .987863 .597612
2 1 .994713 .624932 .531610
3 1 .813947 .006327 .449335
4 1 .203993 .008939 .422401
5 1 .005957 .622194 .492972
6 1 .493454 .410237 .990819
7 1 .514964 .486048 .008547
ITEM: TIMESTEP
150
ITEM: NUMBER OF ATOMS
7
ITEM: BOX BOUNDS ss ss ss
-2.9605 3.3473
-2.3598 3.5201
-1.8327 2.1864
ITEM: ATOMS id type xs ys zs
1 1 .491240 .988541 .597396
2 1 .993691 .625412 .530891
3 1 .812868 .007312 .450104
4 1 .205010 .010658 .422061
5 1 .006902 .622268 .492724
6 1 .494598 .410151 .988107
7 1 .514899 .485433 .010648
ITEM: TIMESTEP
200
ITEM: NUMBER OF ATOMS
7
ITEM: BOX BOUNDS ss ss ss
-2.9628 3.3552
-2.3678 3.5201
-1.8417 2.1928
ITEM: ATOMS id type xs ys zs
1 1 .491576 .989125 .598435
2 1 .991697 .626403 .530840
3 1 .811533 .008275 .451468
4 1 .204336 .012777 .422650
5 1 .007115 .622150 .491994
6 1 .495165 .411127 .984842
7 1 .514201 .484988 .012899
ITEM: TIMESTEP
250
ITEM: NUMBER OF ATOMS
7
ITEM: BOX BOUNDS ss ss ss
-2.9715 3.3483
-2.3666 3.5201
-1.8352 2.1945
ITEM: ATOMS id type xs ys zs
1 1 .493417 .989520 .598136
2 1 .992341 .626385 .529548
3 1 .812670 .007543 .450640
4 1 .204375 .012853 .421674
5 1 .008609 .621110 .490337
6 1 .497198 .411392 .983951
7 1 .515360 .483957 .011150
ITEM: TIMESTEP
300
ITEM: NUMBER OF ATOMS
7
ITEM: BOX BOUNDS ss ss ss
-2.9635 3.3465
-2.3758 3.5201
-1.8461 2.1895
ITEM: ATOMS id type xs ys zs
1 1 .492714 .990178 .600953
2 1 .992270 .627004 .531149
3 1 .812437 .008889 .452267
4 1 .202901 .013764 .423388
5 1 .007778 .620900 .491047
6 1 .496536 .412400 .985234
7 1 .514586 .484211 .014006
ITEM: TIMESTEP
350
ITEM: NUMBER OF ATOMS
7
ITEM: BOX BOUNDS ss ss ss
-2.9612 3.3496
-2.3785 3.5201
-1.8489 2.1934
ITEM: ATOMS id type xs ys zs
1 1 .491674 .990654 .601948