ITEM: TIMESTEP
1
ITEM: NUMBER OF ATOMS
7
ITEM: BOX BOUNDS ss ss ss
-2.9144 3.3062
-2.3214 3.4516
-1.7842 2.1440
ITEM: ATOMS id type xs ys zs
1 1 .490740 .999630 .598807
2 1 .999374 .630728 .531673
3 1 .817668 .000765 .446693
4 1 .199990 .001361 .419249
5 1 .000585 .627901 .492992
6 1 .492460 .413487 .998948
7 1 .514951 .490646 .000989
ITEM: TIMESTEP
50
ITEM: NUMBER OF ATOMS
7
ITEM: BOX BOUNDS ss ss ss
-2.9408 3.3306
-2.3414 3.4755
-1.8066 2.1696
ITEM: ATOMS id type xs ys zs
1 1 .492242 .998620 .596032
2 1 .994351 .628333 .531736
3 1 .814873 .004872 .445503
4 1 .202152 .005669 .418393
5 1 .005237 .625222 .493901
6 1 .492731 .414344 .992185
7 1 .514717 .490553 .005963
ITEM: TIMESTEP
100
ITEM: NUMBER OF ATOMS
7
ITEM: BOX BOUNDS ss ss ss
-2.9516 3.3407
-2.3476 3.4897
-1.8216 2.1778
ITEM: ATOMS id type xs ys zs
1 1 .493296 .995729 .598354
2 1 .993603 .626750 .534699
3 1 .812848 .007171 .447869
4 1 .202558 .005205 .419811
5 1 .005498 .623750 .495940
6 1 .493590 .412454 .989842
7 1 .512931 .486923 .009309
ITEM: TIMESTEP
150
ITEM: NUMBER OF ATOMS
7
ITEM: BOX BOUNDS ss ss ss
-2.9503 3.3492
-2.3480 3.5089
-1.8208 2.1840
ITEM: ATOMS id type xs ys zs
1 1 .493200 .993992 .598212
2 1 .990617 .623417 .535340
3 1 .812763 .008422 .448208
4 1 .204173 .005027 .415717
5 1 .007188 .619822 .494896
6 1 .490521 .411647 .985341
7 1 .511296 .484696 .011169
ITEM: TIMESTEP
200
ITEM: NUMBER OF ATOMS
7
ITEM: BOX BOUNDS ss ss ss
-2.9557 3.3498
-2.3652 3.5073
-1.8214 2.1881
ITEM: ATOMS id type xs ys zs
1 1 .495001 .995993 .597767
2 1 .991390 .624614 .536938
3 1 .812778 .011106 .445939
4 1 .203205 .008186 .416166
5 1 .009008 .620561 .495330
6 1 .491641 .413357 .981774
7 1 .512109 .485987 .010104
ITEM: TIMESTEP
250
ITEM: NUMBER OF ATOMS
7
ITEM: BOX BOUNDS ss ss ss
-2.9558 3.3503
-2.3618 3.5153
-1.8188 2.1859
ITEM: ATOMS id type xs ys zs
1 1 .494724 .993613 .595175
2 1 .991494 .623461 .538985
3 1 .810390 .009210 .444322
4 1 .203675 .006799 .415979
5 1 .008661 .617886 .493824
6 1 .492261 .411610 .985361
7 1 .511949 .485133 .010094
ITEM: TIMESTEP
300
ITEM: NUMBER OF ATOMS
7
ITEM: BOX BOUNDS ss ss ss
-2.9540 3.3445
-2.3658 3.5131
-1.8323 2.1882
ITEM: ATOMS id type xs ys zs
1 1 .496488 .995831 .595447
2 1 .992132 .623714 .541125
3 1 .811237 .008913 .446716
4 1 .203548 .005973 .415757
5 1 .008457 .619015 .494504
6 1 .492203 .413177 .984668
7 1 .512409 .486418 .013753
ITEM: TIMESTEP
350
ITEM: NUMBER OF ATOMS
7
ITEM: BOX BOUNDS ss ss ss
-2.9531 3.3377
-2.3711 3.5189
-1.8259 2.1833
ITEM: ATOMS id type xs ys zs
1 1 .498192 .995213 .594514
2 1 .993324 .623447 .542538
3 1 .811333 .009613 .448162
4 1 .202652 .007078 .414750
5 1 .008429 .619565 .495049
6 1 .492066 .413309 .985573
7 1 .512180 .484772 .013409
ITEM: TIMESTEP
400
ITEM: NUMBER OF ATOMS
7
ITEM: BOX BOUNDS ss ss ss
-2.9474 3.3357
-2.3772 3.5259
-1.8191 2.1832
ITEM: ATOMS id type xs ys zs
1 1 .495663 .995003 .593857
2 1 .992390 .624170 .543785
3 1 .811935 .011467 .442766
4 1 .202874 .006792 .414044
5 1 .008654 .617022 .492377
6 1 .493875 .413182 .985235
7 1 .512549 .485888 .011328
ITEM: TIMESTEP
1
ITEM: NUMBER OF ATOMS
7
ITEM: BOX BOUNDS ss ss ss
-2.9273 3.3211
-2.3622 3.5116
-1.8010 2.1648
ITEM: ATOMS id type xs ys zs
1 1 .490607 .989391 .597340
2 1 .996991 .626843 .530843
3 1 .816084 .007681 .446724
4 1 .201193 .008287 .419548
5 1 .002656 .624098 .492587
6 1 .492310 .413361 .993735
7 1 .514705 .489171 .005182
ITEM: TIMESTEP
50
ITEM: NUMBER OF ATOMS
7
ITEM: BOX BOUNDS ss ss ss
-2.9399 3.3308
-2.3622 3.5116
-1.8074 2.1671
ITEM: ATOMS id type xs ys zs
1 1 .492110 .992530 .597972
2 1 .995467 .627065 .533841
3 1 .813949 .009640 .447827
4 1 .202471 .008134 .419885
5 1 .004864 .621842 .493951
6 1 .493060 .413117 .991848
7 1 .512973 .486906 .004763
ITEM: TIMESTEP
100
ITEM: NUMBER OF ATOMS
7
ITEM: BOX BOUNDS ss ss ss
-2.9488 3.3359
-2.3622 3.5116
-1.8192 2.1757
ITEM: ATOMS id type xs ys zs
1 1 .494119 .993895 .596994
2 1 .992811 .626641 .533508
3 1 .813291 .010379 .447576
4 1 .203393 .006253 .421523
5 1 .007209 .622600 .495200
6 1 .493134 .413214 .987340
7 1 .512138 .487235 .010803
ITEM: TIMESTEP
150
ITEM: NUMBER OF ATOMS
7
ITEM: BOX BOUNDS ss ss ss
-2.9546 3.3390
-2.3622 3.5116
-1.8253 2.1805
ITEM: ATOMS id type xs ys zs
1 1 .496041 .994973 .595578
2 1 .994217 .628147 .536465
3 1 .811934 .010712 .447806
4 1 .203900 .008889 .419460
5 1 .006029 .620777 .496856
6 1 .494357 .412462 .986017
7 1 .512404 .486312 .010982
ITEM: TIMESTEP
200
ITEM: NUMBER OF ATOMS
7
ITEM: BOX BOUNDS ss ss ss
-2.9570 3.3415
-2.3622 3.5116
-1.8318 2.1833
ITEM: ATOMS id type xs ys zs
1 1 .496679 .994506 .594916
2 1 .992971 .626764 .537731
3 1 .812142 .011233 .448274
4 1 .203124 .008110 .418544
5 1 .007209 .619272 .499681
6 1 .494659 .413394 .986234
7 1 .512774 .486016 .012672
ITEM: TIMESTEP
250
ITEM: NUMBER OF ATOMS
7
ITEM: BOX BOUNDS ss ss ss
-2.9540 3.3495
-2.3622 3.5157
-1.8221 2.1823
ITEM: ATOMS id type xs ys zs
1 1 .496777 .995768 .592914
2 1 .992110 .629050 .537990
3 1 .811672 .012978 .445932
4 1 .203474 .007429 .417406
5 1 .007880 .619094 .500987
6 1 .493483 .412943 .983917
7 1 .510496 .485669 .010126
ITEM: TIMESTEP
300
ITEM: NUMBER OF ATOMS
7
ITEM: BOX BOUNDS ss ss ss
-2.9519 3.3437
-2.3655 3.5186
-1.8247 2.1825
ITEM: ATOMS id type xs ys zs
1 1 .497709 .996361 .591266
2 1 .991544 .626035 .534527
3 1 .812105 .012046 .444711
4 1 .204420 .008674 .413862
5 1 .009573 .619993 .500485
6 1 .496659 .414146 .984109
7 1 .509263 .487596 .010778
ITEM: TIMESTEP
350
ITEM: NUMBER OF ATOMS
7
ITEM: BOX BOUNDS ss ss ss
-2.9560 3.3418
-2.3640 3.5284
-1.8208 2.1799
ITEM: ATOMS id type xs ys zs
1 1 .498160 .995744 .593345
2 1 .992546 .626272 .539537
3 1 .812880 .011827 .445932
4 1 .202586 .008163 .417137
5 1 .010233 .618903 .500445
6 1 .495067 .413401 .986200
7 1 .511362 .485040 .011712
ITEM: TIMESTEP
400
ITEM: NUMBER OF ATOMS
7
ITEM: BOX BOUNDS ss ss ss
-2.9652 3.3457
-2.3722 3.5333
-1.8281 2.1751
ITEM: ATOMS id type xs ys zs
1 1 .499078 .994686 .595135
2 1 .992776 .621140 .538870
3 1 .810710 .011071 .448231
4 1 .203675 .007133 .415932
5 1 .011230 .618505 .498549
6 1 .494457 .412925 .986313
7 1 .512219 .485025 .014834
ITEM: TIMESTEP
1
ITEM: NUMBER OF ATOMS
7
ITEM: BOX BOUNDS ss ss ss
-2.9419 3.3152
-2.3656 3.5313
-1.8049 2.1532
ITEM: ATOMS id type xs ys zs
1 1 .492251 .986121 .599532
2 1 .997957 .624954 .532836
3 1 .817282 .008241 .448543
4 1 .203247 .008843 .421342
5 1 .004983 .622229 .494512
6 1 .493975 .412359 .996630
7 1 .516339 .487858 .006198
ITEM: TIMESTEP
50
ITEM: NUMBER OF ATOMS
7
ITEM: BOX BOUNDS ss ss ss
-2.9419 3.3315
-2.3656 3.5313
-1.8106 2.1694
ITEM: ATOMS id type xs ys zs
1 1 .492187 .988138 .599073
2 1 .995703 .624942 .533747
3 1 .814897 .008995 .446335
4 1 .203087 .008761 .421251
5 1 .005121 .621739 .492291
6 1 .493887 .411549 .992620
7 1 .514165 .485465 .007799
ITEM: TIMESTEP
100
ITEM: NUMBER OF ATOMS
7
ITEM: BOX BOUNDS ss ss ss
-2.9507 3.3365
-2.3656 3.5313
-1.8213 2.1745
ITEM: ATOMS id type xs ys zs
1 1 .492745 .989338 .600791
2 1 .993181 .625077 .533967
3 1 .812908 .007267 .448034
4 1 .202804 .009863 .420787
5 1 .007093 .619413 .496192
6 1 .495016 .411127 .990874
7 1 .513955 .485349 .013494
ITEM: TIMESTEP
150
ITEM: NUMBER OF ATOMS
7
ITEM: BOX BOUNDS ss ss ss
-2.9563 3.3372
-2.3656 3.5313
-1.8256 2.1811
ITEM: ATOMS id type xs ys zs
1 1 .495877 .990737 .600473
2 1 .995065 .625387 .535318
3 1 .813617 .009137 .447607
4 1 .204668 .009357 .418472
5 1 .008768 .620549 .492843
6 1 .494482 .410859 .989043
7 1 .514243 .485632 .012335
ITEM: TIMESTEP
200
ITEM: NUMBER OF ATOMS
7
ITEM: BOX BOUNDS ss ss ss
-2.9580 3.3461
-2.3656 3.5313
-1.8273 2.1869
ITEM: ATOMS id type xs ys zs
1 1 .495880 .992017 .595222
2 1 .993487 .627425 .531324
3 1 .810621 .010103 .443372
4 1 .202227 .008851 .420384
5 1 .011794 .621185 .496642
6 1 .496345 .412138 .989675
7 1 .512998 .484193 .013512
ITEM: TIMESTEP
250
ITEM: NUMBER OF ATOMS
7
ITEM: BOX BOUNDS ss ss ss
-2.9677 3.3483
-2.3656 3.5313
-1.8268 2.1888
ITEM: ATOMS id type xs ys zs
1 1 .495174 .991157 .598085
2 1 .991176 .625651 .535533
3 1 .811529 .009363 .442149
4 1 .204181 .008444 .419055
5 1 .009985 .617940 .492819
6 1 .495439 .412002 .986723
7 1 .513014 .483895 .013356
ITEM: TIMESTEP
300
ITEM: NUMBER OF ATOMS
7
ITEM: BOX BOUNDS ss ss ss
-2.9605 3.3527
-2.3656 3.5313
-1.8225 2.2016
ITEM: ATOMS id type xs ys zs
1 1 .496695 .992946 .596323
2 1 .993025 .625932 .527785
3 1 .808866 .009595 .436850
4 1 .201600 .008553 .417518
5 1 .012246 .619737 .495413
6 1 .496576 .409588 .981188
7 1 .511494 .485561 .013854
ITEM: TIMESTEP
350
ITEM: NUMBER OF ATOMS
7
ITEM: BOX BOUNDS ss ss ss
-2.9613 3.3566
-2.3656 3.5313
-1.8269 2.1967
ITEM: ATOMS id type xs ys zs
1 1 .497454 .993937 .598783
2 1 .992641 .624284 .534176
3 1 .806653 .008648 .441901
4 1 .201839 .007025 .418449
5 1 .012841 .619466 .493526
6 1 .494248 .411545 .984037
7 1 .511528 .485831 .016434
ITEM: TIMESTEP
400
ITEM: NUMBER OF ATOMS
7
ITEM: BOX BOUNDS ss ss ss
-2.9507 3.3527
-2.3656 3.5313
-1.8292 2.1833
ITEM: ATOMS id type xs ys zs
1 1 .496998 .992648 .597064
2 1 .991266 .623240 .535869
3 1 .809498 .007714 .438734
4 1 .200262 .008119 .419715
5 1 .010045 .619026 .499601
6 1 .495581 .410120 .983617
7 1 .509797 .485619 .016760
ITEM: TIMESTEP
1
ITEM: NUMBER OF ATOMS
7
ITEM: BOX BOUNDS ss ss ss
-2.9419 3.3297
-2.3555 3.5209
-1.8006 2.1592
ITEM: ATOMS id type xs ys zs
1 1 .491122 .987838 .598176
2 1 .995647 .625410 .531531
3 1 .815380 .006541 .447272
4 1 .202784 .007139 .420056
5 1 .004937 .622682 .493242
6 1 .492857 .412051 .995129
7 1 .515156 .487824 .005071
ITEM: TIMESTEP
50
ITEM: NUMBER OF ATOMS
7
ITEM: BOX BOUNDS ss ss ss
-2.9419 3.3317
-2.3555 3.5209
-1.8113 2.1668
ITEM: ATOMS id type xs ys zs
1 1 .491486 .990735 .600101
2 1 .993860 .626677 .532224
3 1 .813502 .007046 .444277
4 1 .202935 .007647 .419211
5 1 .005761 .621406 .493962
6 1 .493057 .413699 .993145
7 1 .514325 .486509 .007851
ITEM: TIMESTEP
100
ITEM: NUMBER OF ATOMS
7
ITEM: BOX BOUNDS ss ss ss
-2.9496 3.3410
-2.3555 3.5209
-1.8188 2.1791
ITEM: ATOMS id type xs ys zs
1 1 .492009 .991831 .598196
2 1 .991060 .626716 .531282
3 1 .812789 .008383 .444256
4 1 .203986 .007883 .419869
5 1 .006827 .621004 .493350
6 1 .493661 .413519 .989596
7 1 .513992 .484999 .008145
ITEM: TIMESTEP
150
ITEM: NUMBER OF ATOMS
7
ITEM: BOX BOUNDS ss ss ss
-2.9557 3.3436
-2.3555 3.5209
-1.8215 2.1871
ITEM: ATOMS id type xs ys zs
1 1 .490973 .997300 .597280
2 1 .989951 .627617 .528213
3 1 .809083 .011523 .447255
4 1 .207115 .007096 .418869
5 1 .009575 .621106 .496618
6 1 .494609 .414645 .987085
7 1 .512371 .486036 .008082
ITEM: TIMESTEP
200
ITEM: NUMBER OF ATOMS
7
ITEM: BOX BOUNDS ss ss ss
-2.9630 3.3476
-2.3555 3.5222
-1.8222 2.1949
ITEM: ATOMS id type xs ys zs
1 1 .493269 .994619 .598795
2 1 .991386 .628696 .530398
3 1 .813961 .008781 .442589
4 1 .206635 .007448 .417999
5 1 .010113 .621614 .495110
6 1 .496197 .412670 .986722
7 1 .512693 .486530 .012400
ITEM: TIMESTEP
250
ITEM: NUMBER OF ATOMS
7
ITEM: BOX BOUNDS ss ss ss
-2.9548 3.3509
-2.3664 3.5261
-1.8234 2.1975
ITEM: ATOMS id type xs ys zs
1 1 .492580 .995974 .599065
2 1 .991055 .629253 .527783
3 1 .815132 .010777 .443674
4 1 .204816 .008088 .418100
5 1 .007976 .621551 .497098
6 1 .494453 .414412 .985083
7 1 .511002 .487430 .014035
ITEM: TIMESTEP
300
ITEM: NUMBER OF ATOMS
7
ITEM: BOX BOUNDS ss ss ss
-2.9519 3.3542
-2.3643 3.5249
-1.8275 2.1917
ITEM: ATOMS id type xs ys zs
1 1 .494488 .997103 .599166
2 1 .992343 .626525 .526725
3 1 .811976 .009324 .447365
4 1 .204974 .006573 .421008
5 1 .010587 .619749 .494709
6 1 .495762 .414002 .987368
7 1 .508711 .487049 .018817
ITEM: TIMESTEP
350
ITEM: NUMBER OF ATOMS
7
ITEM: BOX BOUNDS ss ss ss
-2.9460 3.3465
-2.3725 3.5357
-1.8271 2.1958
ITEM: ATOMS id type xs ys zs
1 1 .495863 .995389 .600753
2 1 .993081 .626139 .532372
3 1 .813129 .011569 .443993
4 1 .203752 .010037 .423189
5 1 .008766 .618235 .493157
6 1 .496319 .415822 .981298
7 1 .510614 .484904 .013717
ITEM: TIMESTEP
400
ITEM: NUMBER OF ATOMS
7
ITEM: BOX BOUNDS ss ss ss
-2.9488 3.3428
-2.3748 3.5500
-1.8206 2.1883
ITEM: ATOMS id type xs ys zs
1 1 .500603 .991156 .597079
2 1 .993070 .625313 .529815
3 1 .813253 .011567 .446148
4 1 .205700 .006625 .419088
5 1 .008505 .614379 .499097
6 1 .495381 .414262 .986616
7 1 .508738 .483480 .015355
ITEM: TIMESTEP
1
ITEM: NUMBER OF ATOMS
7
ITEM: BOX BOUNDS ss ss ss
-2.9248 3.3262
-2.3687 3.5348
-1.7876 2.1540
ITEM: ATOMS id type xs ys zs
1 1 .489975 .985534 .597643
2 1 .996167 .624767 .530701
3 1 .815335 .008743 .446035
4 1 .200718 .009352 .418696
5 1 .002238 .622013 .492262
6 1 .491757 .412403 .996365
7 1 .514093 .487809 .001800
ITEM: TIMESTEP
50
ITEM: NUMBER OF ATOMS
7
ITEM: BOX BOUNDS ss ss ss
-2.9393 3.3315
-2.3687 3.5348
-1.8101 2.1689
ITEM: ATOMS id type xs ys zs
1 1 .492538 .986636 .599305
2 1 .995749 .623393 .532264
3 1 .814939 .009190 .445414
4 1 .202963 .009053 .420001
5 1 .005334 .620145 .491631
6 1 .493338 .411696 .992126
7 1 .515002 .485576 .008589
ITEM: TIMESTEP
100
ITEM: NUMBER OF ATOMS
7
ITEM: BOX BOUNDS ss ss ss
-2.9505 3.3390
-2.3687 3.5348
-1.8142 2.1790
ITEM: ATOMS id type xs ys zs
1 1 .494538 .988985 .598928
2 1 .994531 .623570 .531162
3 1 .815135 .008898 .444577
4 1 .203384 .007227 .418985
5 1 .007175 .618770 .492120
6 1 .493573 .411217 .989361
7 1 .515424 .483554 .014143
ITEM: TIMESTEP
150
ITEM: NUMBER OF ATOMS
7
ITEM: BOX BOUNDS ss ss ss
-2.9543 3.3487
-2.3687 3.5348
-1.8261 2.1795
ITEM: ATOMS id type xs ys zs
1 1 .495995 .989027 .598203
2 1 .995777 .622917 .532240
3 1 .812721 .011139 .444143
4 1 .205113 .008465 .421622
5 1 .007729 .618287 .494029
6 1 .494832 .411071 .989245
7 1 .513784 .484985 .014516
ITEM: TIMESTEP
200
ITEM: NUMBER OF ATOMS
7
ITEM: BOX BOUNDS ss ss ss
-2.9621 3.3612
-2.3687 3.5348
-1.8249 2.1876
ITEM: ATOMS id type xs ys zs
1 1 .495076 .989184 .600631
2 1 .992541 .622801 .533319
3 1 .810041 .010362 .445680
4 1 .205158 .007328 .420542
5 1 .010005 .617356 .492639
6 1 .493409 .411364 .986763
7 1 .512993 .484463 .014748
ITEM: TIMESTEP
250
ITEM: NUMBER OF ATOMS
7
ITEM: BOX BOUNDS ss ss ss
-2.9672 3.3580
-2.3687 3.5348
-1.8255 2.1890
ITEM: ATOMS id type xs ys zs
1 1 .491754 .991686 .590863
2 1 .990924 .625132 .537299
3 1 .811254 .012300 .446452
4 1 .202556 .009559 .417773
5 1 .011234 .617612 .489174
6 1 .492018 .413481 .986501
7 1 .513099 .484047 .011256
ITEM: TIMESTEP
300
ITEM: NUMBER OF ATOMS
7
ITEM: BOX BOUNDS ss ss ss
-2.9630 3.3628
-2.3687 3.5348
-1.8233 2.1850
ITEM: ATOMS id type xs ys zs
1 1 .493295 .993204 .588116
2 1 .989035 .623918 .539658
3 1 .811366 .010143 .446000
4 1 .202566 .010259 .418704
5 1 .010924 .617024 .488010
6 1 .491846 .413721 .986083
7 1 .512896 .482020 .009588
ITEM: TIMESTEP
350
ITEM: NUMBER OF ATOMS
7
ITEM: BOX BOUNDS ss ss ss
-2.9730 3.3688
-2.3687 3.5348
-1.8230 2.1810
ITEM: ATOMS id type xs ys zs
1 1 .493925 .994499 .589074
2 1 .987535 .624213 .542549
3 1 .811448 .008097 .445829
4 1 .205193 .008757 .417574
5 1 .013495 .616519 .486576
6 1 .493294 .412790 .986101
7 1 .512835 .483201 .012173
ITEM: TIMESTEP
400
ITEM: NUMBER OF ATOMS
7
ITEM: BOX BOUNDS ss ss ss
-2.9587 3.3731
-2.3687 3.5348
-1.8238 2.1827
ITEM: ATOMS id type xs ys zs
1 1 .492388 .994412 .589134
2 1 .987005 .624140 .542493
3 1 .807877 .008663 .443911
4 1 .202595 .007409 .418021
5 1 .011990 .616231 .487036
6 1 .492131 .411969 .984219
7 1 .511442 .483366 .010873
ITEM: TIMESTEP
1
ITEM: NUMBER OF ATOMS
7
ITEM: BOX BOUNDS ss ss ss
-2.9293 3.3358
-2.3575 3.5302
-1.8045 2.1608
ITEM: ATOMS id type xs ys zs
1 1 .489588 .986260 .598323
2 1 .994696 .624562 .531844
3 1 .814208 .006889 .447662
4 1 .200961 .007475 .420509
5 1 .002983 .621799 .493550
6 1 .491356 .411608 .994759
7 1 .513631 .487237 .006032
ITEM: TIMESTEP
50
ITEM: NUMBER OF ATOMS
7
ITEM: BOX BOUNDS ss ss ss
-2.9422 3.3364
-2.3575 3.5302
-1.8115 2.1687
ITEM: ATOMS id type xs ys zs
1 1 .490819 .987677 .598841
2 1 .994363 .623917 .534066
3 1 .813474 .007059 .448707
4 1 .201121 .007055 .420950
5 1 .004823 .620798 .495024
6 1 .493214 .410898 .991611
7 1 .514724 .486683 .009292
ITEM: TIMESTEP
100
ITEM: NUMBER OF ATOMS
7
ITEM: BOX BOUNDS ss ss ss
-2.9577 3.3452
-2.3575 3.5302
-1.8248 2.1783
ITEM: ATOMS id type xs ys zs
1 1 .494611 .989325 .596661
2 1 .994976 .622850 .533000
3 1 .812007 .007527 .449165
4 1 .203976 .007983 .422979
5 1 .007509 .619655 .492558
6 1 .492434 .410995 .989364
7 1 .514194 .486715 .009000
ITEM: TIMESTEP
150
ITEM: NUMBER OF ATOMS
7
ITEM: BOX BOUNDS ss ss ss
-2.9721 3.3496
-2.3583 3.5302
-1.8209 2.1875
ITEM: ATOMS id type xs ys zs
1 1 .494495 .990716 .598183
2 1 .994280 .623380 .530274
3 1 .815287 .008544 .449629
4 1 .204892 .008410 .421472
5 1 .012141 .620368 .497910
6 1 .496143 .410968 .987813
7 1 .513265 .484487 .013445
ITEM: TIMESTEP
200
ITEM: NUMBER OF ATOMS
7
ITEM: BOX BOUNDS ss ss ss
-2.9737 3.3510
-2.3575 3.5302
-1.8161 2.1855
ITEM: ATOMS id type xs ys zs
1 1 .495476 .991332 .598224
2 1 .993217 .622957 .530577
3 1 .815126 .008032 .448839
4 1 .206132 .007528 .420647
5 1 .012198 .619868 .498360
6 1 .497279 .410649 .988132
7 1 .513934 .482601 .013356
ITEM: TIMESTEP
250
ITEM: NUMBER OF ATOMS
7
ITEM: BOX BOUNDS ss ss ss
-2.9715 3.3520
-2.3659 3.5302
-1.8182 2.1881
ITEM: ATOMS id type xs ys zs
1 1 .495321 .991774 .596569
2 1 .992958 .624701 .532707
3 1 .814126 .009645 .449262
4 1 .205047 .007809 .422834
5 1 .011948 .618668 .496444
6 1 .497450 .410609 .987776
7 1 .512548 .483743 .016289
ITEM: TIMESTEP
300
ITEM: NUMBER OF ATOMS
7
ITEM: BOX BOUNDS ss ss ss
-2.9700 3.3524
-2.3575 3.5302
-1.8218 2.1902
ITEM: ATOMS id type xs ys zs
1 1 .498605 .992444 .598531
2 1 .994798 .620532 .530796
3 1 .812202 .006653 .443893
4 1 .202000 .007482 .421083
5 1 .012196 .620272 .502607
6 1 .497145 .408887 .985227
7 1 .512679 .485840 .016403
ITEM: TIMESTEP
350
ITEM: NUMBER OF ATOMS
7
ITEM: BOX BOUNDS ss ss ss
-2.9547 3.3551
-2.3600 3.5302
-1.8237 2.1855
ITEM: ATOMS id type xs ys zs
1 1 .496186 .993334 .600175
2 1 .991997 .626496 .535881
3 1 .812083 .009304 .453099
4 1 .202515 .004951 .423447
5 1 .009334 .617376 .499804
6 1 .493055 .412472 .987482
7 1 .511138 .483293 .014521
ITEM: TIMESTEP
400
ITEM: NUMBER OF ATOMS
7
ITEM: BOX BOUNDS ss ss ss
-2.9552 3.3542
-2.3664 3.5302
-1.8125 2.1899
ITEM: ATOMS id type xs ys zs
1 1 .496115 .994319 .600040
2 1 .992206 .628370 .536004
3 1 .810428 .009838 .446950
4 1 .203472 .006403 .423080
5 1 .010299 .618284 .497239
6 1 .495339 .413257 .986004
7 1 .510377 .485131 .011359
ITEM: TIMESTEP
1
ITEM: NUMBER OF ATOMS
7
ITEM: BOX BOUNDS ss ss ss
-2.9216 3.3419
-2.3534 3.5182
-1.7876 2.1684
ITEM: ATOMS id type xs ys zs
1 1 .488509 .988284 .595502
2 1 .993720 .625580 .528753
3 1 .813192 .006195 .444420
4 1 .199795 .006779 .417203
5 1 .001757 .622826 .490451
6 1 .490246 .412038 .992786
7 1 .512552 .487862 .001758
ITEM: TIMESTEP
50
ITEM: NUMBER OF ATOMS
7
ITEM: BOX BOUNDS ss ss ss
-2.9424 3.3419
-2.3534 3.5182
-1.8076 2.1726
ITEM: ATOMS id type xs ys zs
1 1 .490357 .989866 .595015
2 1 .992849 .623204 .531862
3 1 .813382 .007539 .447297
4 1 .203016 .008079 .418927
5 1 .005075 .621253 .493741
6 1 .491970 .412277 .993471
7 1 .512720 .487234 .005914
ITEM: TIMESTEP
100
ITEM: NUMBER OF ATOMS
7
ITEM: BOX BOUNDS ss ss ss
-2.9574 3.3464
-2.3534 3.5182
-1.8188 2.1860
ITEM: ATOMS id type xs ys zs
1 1 .492092 .993016 .595604
2 1 .992810 .626543 .531958
3 1 .814986 .009392 .447073
4 1 .203555 .007858 .424288
5 1 .007348 .619596 .492762
6 1 .493831 .413240 .987167
7 1 .514223 .489318 .010985
ITEM: TIMESTEP
150
ITEM: NUMBER OF ATOMS
7
ITEM: BOX BOUNDS ss ss ss
-2.9567 3.3459
-2.3534 3.5182
-1.8241 2.1975
ITEM: ATOMS id type xs ys zs
1 1 .490956 .994167 .594222
2 1 .992501 .626371 .530741
3 1 .814849 .007330 .449018
4 1 .202610 .007733 .421650
5 1 .006746 .618025 .491866
6 1 .494139 .412749 .985771
7 1 .514469 .487002 .013194
ITEM: TIMESTEP
200
ITEM: NUMBER OF ATOMS
7
ITEM: BOX BOUNDS ss ss ss
-2.9719 3.3441
-2.3600 3.5182
-1.8319 2.1926
ITEM: ATOMS id type xs ys zs
1 1 .491161 .994862 .595178
2 1 .992081 .626919 .532635
3 1 .815202 .008288 .450691
4 1 .205863 .008562 .423825
5 1 .010331 .617867 .494419
6 1 .495349 .414313 .986663
7 1 .516450 .486554 .016258
ITEM: TIMESTEP
250
ITEM: NUMBER OF ATOMS
7
ITEM: BOX BOUNDS ss ss ss
-2.9614 3.3419
-2.3534 3.5182
-1.8351 2.1918
ITEM: ATOMS id type xs ys zs
1 1 .491290 .995472 .598691
2 1 .993672 .624860 .534315
3 1 .810968 .008602 .448039
4 1 .204020 .005826 .425330
5 1 .008377 .616280 .490564
6 1 .494097 .414374 .986515
7 1 .512956 .485997 .011872
ITEM: TIMESTEP
300
ITEM: NUMBER OF ATOMS
7
ITEM: BOX BOUNDS ss ss ss
-2.9656 3.3457
-2.3540 3.5199
-1.8351 2.2004
ITEM: ATOMS id type xs ys zs
1 1 .490877 .994374 .594006
2 1 .990711 .626456 .535485
3 1 .810333 .007423 .448624
4 1 .205041 .006926 .425490
5 1 .007604 .615517 .489098
6 1 .494645 .416158 .988369
7 1 .511020 .485481 .016085
ITEM: TIMESTEP
350
ITEM: NUMBER OF ATOMS
7
ITEM: BOX BOUNDS ss ss ss
-2.9804 3.3419
-2.3636 3.5182
-1.8397 2.2020
ITEM: ATOMS id type xs ys zs
1 1 .494938 .994168 .596480
2 1 .991632 .620526 .536306
3 1 .809394 .009868 .446771
4 1 .207287 .007720 .421255
5 1 .010789 .615633 .490179
6 1 .494379 .413407 .984801
7 1 .513944 .487575 .013828
ITEM: TIMESTEP
400
ITEM: NUMBER OF ATOMS
7
ITEM: BOX BOUNDS ss ss ss
-2.9753 3.3442
-2.3584 3.5309
-1.8346 2.2039
ITEM: ATOMS id type xs ys zs
1 1 .492641 .993740 .594067
2 1 .990602 .625105 .536527
3 1 .810567 .010724 .448632
4 1 .206639 .005865 .420838
5 1 .009004 .611808 .491412
6 1 .497933 .415134 .983685
7 1 .512650 .486087 .016261
ITEM: TIMESTEP
1
ITEM: NUMBER OF ATOMS
7
ITEM: BOX BOUNDS ss ss ss
-2.9453 3.3184
-2.3447 3.5176
-1.8053 2.1734
ITEM: ATOMS id type xs ys zs
1 1 .492222 .988508 .596292
2 1 .997365 .625157 .530218
3 1 .816966 .004718 .446370
4 1 .203558 .005338 .419269
5 1 .005442 .622229 .492146
6 1 .494037 .411093 .991599
7 1 .516282 .487163 .006252
ITEM: TIMESTEP
50
ITEM: NUMBER OF ATOMS
7
ITEM: BOX BOUNDS ss ss ss
-2.9453 3.3366
-2.3447 3.5176
-1.8112 2.1734
ITEM: ATOMS id type xs ys zs
1 1 .491045 .989047 .596577
2 1 .995324 .623462 .532154
3 1 .813151 .004048 .445508
4 1 .203403 .005466 .417117
5 1 .006077 .621096 .492672
6 1 .493261 .409951 .988451
7 1 .512691 .487818 .006371
ITEM: TIMESTEP
100
ITEM: NUMBER OF ATOMS
7
ITEM: BOX BOUNDS ss ss ss
-2.9543 3.3423
-2.3486 3.5176
-1.8186 2.1801
ITEM: ATOMS id type xs ys zs
1 1 .492280 .989439 .597030
2 1 .994178 .624803 .531029
3 1 .813293 .005981 .446361
4 1 .204264 .006541 .417530
5 1 .006277 .620800 .494085
6 1 .493269 .410389 .987386
7 1 .513744 .487700 .007899
ITEM: TIMESTEP
150
ITEM: NUMBER OF ATOMS
7
ITEM: BOX BOUNDS ss ss ss
-2.9600 3.3518
-2.3478 3.5176
-1.8256 2.1862
ITEM: ATOMS id type xs ys zs
1 1 .492636 .993506 .596888
2 1 .993857 .626005 .532830
3 1 .811544 .005749 .454434
4 1 .203957 .010520 .420576
5 1 .006895 .620675 .491116
6 1 .494465 .411926 .989062
7 1 .511947 .485754 .012888
ITEM: TIMESTEP
200
ITEM: NUMBER OF ATOMS
7
ITEM: BOX BOUNDS ss ss ss
-2.9588 3.3567
-2.3502 3.5176
-1.8283 2.1880
ITEM: ATOMS id type xs ys zs
1 1 .493965 .992250 .600116
2 1 .993005 .624690 .535759
3 1 .808576 .005008 .453926
4 1 .204082 .010758 .419618
5 1 .008673 .621076 .494356
6 1 .495316 .412968 .989597
7 1 .511094 .487634 .013954
ITEM: TIMESTEP
250
ITEM: NUMBER OF ATOMS
7
ITEM: BOX BOUNDS ss ss ss
-2.9675 3.3736
-2.3547 3.5176
-1.8344 2.1956
ITEM: ATOMS id type xs ys zs
1 1 .489619 .991555 .591396
2 1 .988487 .627621 .531938
3 1 .808725 .009140 .446585
4 1 .206007 .005128 .415421
5 1 .007004 .621441 .493943
6 1 .488834 .412166 .982279
7 1 .509325 .483139 .011888
ITEM: TIMESTEP
300
ITEM: NUMBER OF ATOMS
7
ITEM: BOX BOUNDS ss ss ss
-2.9792 3.3623
-2.3530 3.5176
-1.8435 2.2000
ITEM: ATOMS id type xs ys zs
1 1 .494007 .993194 .594436
2 1 .991422 .627542 .532119
3 1 .807064 .009302 .450885
4 1 .205860 .006329 .420721
5 1 .011609 .619419 .486740
6 1 .492057 .414699 .985091
7 1 .512470 .484651 .014346
ITEM: TIMESTEP
350
ITEM: NUMBER OF ATOMS
7
ITEM: BOX BOUNDS ss ss ss
-2.9691 3.3557
-2.3476 3.5176
-1.8480 2.2083
ITEM: ATOMS id type xs ys zs
1 1 .494541 .992668 .591591
2 1 .994161 .626636 .533543
3 1 .807442 .006739 .444624
4 1 .203398 .006773 .421223
5 1 .011989 .619789 .486305
6 1 .495608 .411687 .983501
7 1 .515200 .483233 .013638
ITEM: TIMESTEP
400
ITEM: NUMBER OF ATOMS
7
ITEM: BOX BOUNDS ss ss ss
-2.9601 3.3621
-2.3519 3.5176
-1.8614 2.2045
ITEM: ATOMS id type xs ys zs
1 1 .494758 .992697 .596501
2 1 .990930 .628617 .534903
3 1 .805818 .008537 .446787
4 1 .200423 .006599 .421151
5 1 .010729 .620370 .490548
6 1 .494480 .413125 .985882
7 1 .512539 .484534 .018535
ITEM: TIMESTEP
1
ITEM: NUMBER OF ATOMS
7
ITEM: BOX BOUNDS ss ss ss
-2.9453 3.3469
-2.3447 3.5176
-1.8374 2.1736
ITEM: ATOMS id type xs ys zs
1 1 .490031 .988346 .599662
2 1 .992920 .625097 .533952
3 1 .813255 .004704 .450740
4 1 .202650 .005331 .423837
5 1 .005474 .622288 .496125
6 1 .491753 .411161 .991601
7 1 .513976 .487165 .014181
ITEM: TIMESTEP
50
ITEM: NUMBER OF ATOMS
7
ITEM: BOX BOUNDS ss ss ss
-2.9453 3.3469
-2.3489 3.5176
-1.8374 2.1736
ITEM: ATOMS id type xs ys zs
1 1 .489438 .990689 .598604
2 1 .992407 .625582 .535264
3 1 .813551 .006321 .452940
4 1 .202293 .005252 .423535
5 1 .007276 .622025 .496196
6 1 .491778 .410103 .991158
7 1 .513425 .486409 .015079
ITEM: TIMESTEP
100
ITEM: NUMBER OF ATOMS
7
ITEM: BOX BOUNDS ss ss ss
-2.9671 3.3469
-2.3520 3.5176
-1.8374 2.1810
ITEM: ATOMS id type xs ys zs
1 1 .491072 .991517 .601338
2 1 .991704 .625542 .535169
3 1 .813641 .006699 .452243
4 1 .203911 .006649 .423628
5 1 .009969 .621762 .494093
6 1 .493913 .411321 .990109
7 1 .513435 .483906 .013470
ITEM: TIMESTEP
150
ITEM: NUMBER OF ATOMS
7
ITEM: BOX BOUNDS ss ss ss
-2.9621 3.3513
-2.3535 3.5176
-1.8374 2.1872
ITEM: ATOMS id type xs ys zs
1 1 .492404 .990947 .596662
2 1 .993190 .625355 .534366
3 1 .812072 .007482 .449590
4 1 .202461 .009086 .425537
5 1 .005910 .618969 .496978
6 1 .493080 .411569 .988108
7 1 .511579 .483216 .014778
ITEM: TIMESTEP
200
ITEM: NUMBER OF ATOMS
7
ITEM: BOX BOUNDS ss ss ss
-2.9686 3.3535
-2.3595 3.5176
-1.8374 2.2039
ITEM: ATOMS id type xs ys zs
1 1 .491534 .994948 .597563
2 1 .988677 .626592 .531294
3 1 .812304 .009222 .444388
4 1 .204829 .006467 .421545
5 1 .011996 .621670 .485090
6 1 .493028 .411050 .982172
7 1 .512628 .487421 .014044
ITEM: TIMESTEP
250
ITEM: NUMBER OF ATOMS
7
ITEM: BOX BOUNDS ss ss ss
-2.9793 3.3626
-2.3571 3.5176
-1.8374 2.2049
ITEM: ATOMS id type xs ys zs
1 1 .492235 .995497 .593824
2 1 .986723 .624926 .531460
3 1 .810998 .010086 .443981
4 1 .207518 .005770 .420860
5 1 .014257 .620299 .484993
6 1 .493973 .410859 .980591
7 1 .512847 .485742 .012819
ITEM: TIMESTEP
300
ITEM: NUMBER OF ATOMS
7
ITEM: BOX BOUNDS ss ss ss
-2.9800 3.3534
-2.3543 3.5176
-1.8374 2.1982
ITEM: ATOMS id type xs ys zs
1 1 .494434 .996085 .597572
2 1 .989309 .625302 .532565
3 1 .811234 .009800 .450218
4 1 .203549 .009075 .421022
5 1 .009208 .620798 .491677
6 1 .494039 .416284 .984786
7 1 .511062 .484702 .016783
ITEM: TIMESTEP
350
ITEM: NUMBER OF ATOMS
7
ITEM: BOX BOUNDS ss ss ss
-2.9841 3.3546
-2.3555 3.5211
-1.8374 2.1920
ITEM: ATOMS id type xs ys zs
1 1 .498503 .995251 .598011
2 1 .988575 .623917 .534070
3 1 .809039 .009558 .452194
4 1 .205544 .008854 .418470
5 1 .008445 .619180 .498034
6 1 .495326 .416460 .984240
7 1 .509660 .484403 .016852
ITEM: TIMESTEP
400
ITEM: NUMBER OF ATOMS
7
ITEM: BOX BOUNDS ss ss ss
-2.9717 3.3545
-2.3624 3.5304
-1.8304 2.1972
ITEM: ATOMS id type xs ys zs
1 1 .495438 .994615 .595089
2 1 .988377 .625059 .535388
3 1 .811016 .008587 .444418
4 1 .207566 .007233 .417698
5 1 .011905 .618090 .483396
6 1 .493789 .412880 .984125
7 1 .513467 .485128 .011142
ITEM: TIMESTEP
1
ITEM: NUMBER OF ATOMS
7
ITEM: BOX BOUNDS ss ss ss
-2.9421 3.3116
-2.3440 3.5201
-1.8080 2.1621
ITEM: ATOMS id type xs ys zs
1 1 .492573 .987961 .598540
2 1 .998513 .624784 .532027
3 1 .817750 .004575 .447991
4 1 .203412 .005168 .420788
5 1 .005020 .622008 .493818
6 1 .494312 .410978 .994382
7 1 .516630 .486854 .006890
ITEM: TIMESTEP
50
ITEM: NUMBER OF ATOMS
7
ITEM: BOX BOUNDS ss ss ss
-2.9426 3.3333
-2.3479 3.5201
-1.8146 2.1710
ITEM: ATOMS id type xs ys zs
1 1 .491190 .989403 .595477
2 1 .996201 .625199 .535034
3 1 .813893 .005156 .449348
4 1 .202926 .007175 .422538
5 1 .004617 .620921 .492830
6 1 .494781 .410541 .991648
7 1 .515339 .485559 .007072
ITEM: TIMESTEP
100
ITEM: NUMBER OF ATOMS
7
ITEM: BOX BOUNDS ss ss ss
-2.9524 3.3430
-2.3550 3.5201
-1.8228 2.1770
ITEM: ATOMS id type xs ys zs
1 1 .492784 .989967 .597912
2 1 .993112 .626582 .532260
3 1 .812002 .006560 .449744
4 1 .204081 .009548 .420900
5 1 .006049 .621977 .493029
6 1 .495206 .411952 .984418
7 1 .513676 .483833 .011782
ITEM: TIMESTEP
150
ITEM: NUMBER OF ATOMS
7
ITEM: BOX BOUNDS ss ss ss
-2.9605 3.3473
-2.3598 3.5201
-1.8327 2.1864
ITEM: ATOMS id type xs ys zs
1 1 .491966 .992673 .597960
2 1 .994513 .624143 .535869
3 1 .811543 .009675 .450737
4 1 .204878 .009912 .416969
5 1 .008082 .622067 .498158
6 1 .495168 .409035 .986996
7 1 .513081 .485189 .013675
ITEM: TIMESTEP
200
ITEM: NUMBER OF ATOMS
7
ITEM: BOX BOUNDS ss ss ss
-2.9628 3.3552
-2.3678 3.5201
-1.8417 2.1928
ITEM: ATOMS id type xs ys zs
1 1 .492290 .990367 .596272
2 1 .990882 .626153 .533736
3 1 .812128 .008692 .448845
4 1 .203992 .010903 .420499
5 1 .009482 .619004 .494816
6 1 .496340 .413291 .980882
7 1 .514126 .483177 .011752
ITEM: TIMESTEP
250
ITEM: NUMBER OF ATOMS
7
ITEM: BOX BOUNDS ss ss ss
-2.9715 3.3483
-2.3666 3.5201
-1.8352 2.1945
ITEM: ATOMS id type xs ys zs
1 1 .493443 .991141 .596331
2 1 .991566 .626899 .532253
3 1 .811847 .008285 .446219
4 1 .205661 .009602 .418271
5 1 .010550 .618175 .493200
6 1 .496603 .413016 .980451
7 1 .515203 .482037 .009950
ITEM: TIMESTEP
300
ITEM: NUMBER OF ATOMS
7
ITEM: BOX BOUNDS ss ss ss
-2.9635 3.3465
-2.3758 3.5201
-1.8461 2.1895
ITEM: ATOMS id type xs ys zs
1 1 .493733 .993351 .599081
2 1 .994196 .623044 .536472
3 1 .813720 .006708 .450237
4 1 .203672 .011636 .421924
5 1 .010363 .619032 .495060
6 1 .496014 .413425 .981896
7 1 .515368 .482627 .020058
ITEM: TIMESTEP
350
ITEM: NUMBER OF ATOMS
7
ITEM: BOX BOUNDS ss ss ss
-2.9612 3.3496
-2.3785 3.5201
-1.8489 2.1934
ITEM: ATOMS id type xs ys zs
1 1 .495222 .991879 .595814