ITEM: TIMESTEP
1
ITEM: NUMBER OF ATOMS
7
ITEM: BOX BOUNDS ss ss ss
-2.9144 3.3062
-2.3214 3.4516
-1.7842 2.1440
ITEM: ATOMS id type xs ys zs
1 1 .490573 .999194 .598659
2 1 .999409 .630853 .531301
3 1 .817821 .000942 .446867
4 1 .200020 .001410 .419316
5 1 .000637 .628311 .492798
6 1 .492233 .413657 .999161
7 1 .515171 .491093 .001212
ITEM: TIMESTEP
50
ITEM: NUMBER OF ATOMS
7
ITEM: BOX BOUNDS ss ss ss
-2.9408 3.3306
-2.3414 3.4755
-1.8066 2.1696
ITEM: ATOMS id type xs ys zs
1 1 .491367 .997364 .597397
2 1 .996846 .629531 .526598
3 1 .816504 .005322 .447535
4 1 .204331 .005615 .416490
5 1 .003370 .625301 .490408
6 1 .491415 .413194 .993368
7 1 .515009 .490274 .002379
ITEM: TIMESTEP
100
ITEM: NUMBER OF ATOMS
7
ITEM: BOX BOUNDS ss ss ss
-2.9516 3.3407
-2.3476 3.4897
-1.8216 2.1778
ITEM: ATOMS id type xs ys zs
1 1 .492618 .994659 .600280
2 1 .992318 .629052 .535363
3 1 .815121 .004896 .446999
4 1 .203386 .004826 .423202
5 1 .007904 .622264 .492820
6 1 .495047 .410731 .989262
7 1 .512571 .488909 .011456
ITEM: TIMESTEP
150
ITEM: NUMBER OF ATOMS
7
ITEM: BOX BOUNDS ss ss ss
-2.9503 3.3492
-2.3480 3.5089
-1.8208 2.1840
ITEM: ATOMS id type xs ys zs
1 1 .492704 .992077 .594097
2 1 .991788 .624223 .533375
3 1 .813206 .006372 .450061
4 1 .202672 .005326 .416279
5 1 .006411 .619570 .495593
6 1 .490217 .411047 .988536
7 1 .512007 .485352 .011034
ITEM: TIMESTEP
200
ITEM: NUMBER OF ATOMS
7
ITEM: BOX BOUNDS ss ss ss
-2.9557 3.3498
-2.3652 3.5073
-1.8214 2.1881
ITEM: ATOMS id type xs ys zs
1 1 .493287 .994786 .599502
2 1 .991729 .623815 .532970
3 1 .814003 .006976 .446888
4 1 .203596 .009849 .420067
5 1 .007347 .620669 .484452
6 1 .495657 .416235 .984758
7 1 .514069 .481969 .013428
ITEM: TIMESTEP
250
ITEM: NUMBER OF ATOMS
7
ITEM: BOX BOUNDS ss ss ss
-2.9558 3.3503
-2.3618 3.5153
-1.8188 2.1859
ITEM: ATOMS id type xs ys zs
1 1 .495844 .992758 .597883
2 1 .994776 .624980 .531738
3 1 .813556 .005822 .444962
4 1 .205196 .008844 .418270
5 1 .008229 .621360 .485294
6 1 .493842 .412963 .985805
7 1 .512814 .484115 .011339
ITEM: TIMESTEP
300
ITEM: NUMBER OF ATOMS
7
ITEM: BOX BOUNDS ss ss ss
-2.9540 3.3445
-2.3658 3.5131
-1.8323 2.1882
ITEM: ATOMS id type xs ys zs
1 1 .497299 .994040 .599580
2 1 .995760 .626382 .531218
3 1 .813967 .004201 .447980
4 1 .204886 .010355 .420378
5 1 .006452 .621298 .487055
6 1 .494590 .415886 .984290
7 1 .512774 .486809 .017438
ITEM: TIMESTEP
350
ITEM: NUMBER OF ATOMS
7
ITEM: BOX BOUNDS ss ss ss
-2.9531 3.3377
-2.3711 3.5189
-1.8259 2.1833
ITEM: ATOMS id type xs ys zs
1 1 .496806 .995323 .598604
2 1 .996571 .622378 .541758
3 1 .813822 .009364 .442023
4 1 .200811 .008813 .419243
5 1 .005830 .613593 .494103
6 1 .497690 .411947 .984144
7 1 .513985 .487336 .009648
ITEM: TIMESTEP
400
ITEM: NUMBER OF ATOMS
7
ITEM: BOX BOUNDS ss ss ss
-2.9474 3.3357
-2.3772 3.5259
-1.8191 2.1832
ITEM: ATOMS id type xs ys zs
1 1 .492757 .991291 .596496
2 1 .990564 .627715 .540834
3 1 .813967 .012132 .438093
4 1 .205474 .008977 .417750
5 1 .007298 .614374 .493599
6 1 .496477 .410800 .986218
7 1 .512381 .483718 .009162
ITEM: TIMESTEP
1
ITEM: NUMBER OF ATOMS
7
ITEM: BOX BOUNDS ss ss ss
-2.9273 3.3211
-2.3622 3.5116
-1.8010 2.1648
ITEM: ATOMS id type xs ys zs
1 1 .491115 .989191 .597243
2 1 .997194 .626643 .530474
3 1 .816135 .007586 .446950
4 1 .201172 .008461 .419748
5 1 .002645 .624282 .492325
6 1 .492680 .413477 .993954
7 1 .514924 .489346 .005467
ITEM: TIMESTEP
50
ITEM: NUMBER OF ATOMS
7
ITEM: BOX BOUNDS ss ss ss
-2.9399 3.3308
-2.3622 3.5116
-1.8074 2.1671
ITEM: ATOMS id type xs ys zs
1 1 .491326 .991055 .599674
2 1 .994624 .628344 .531993
3 1 .813367 .008459 .446408
4 1 .204230 .008757 .417871
5 1 .004529 .623049 .491993
6 1 .494478 .413145 .993903
7 1 .516201 .488696 .008424
ITEM: TIMESTEP
100
ITEM: NUMBER OF ATOMS
7
ITEM: BOX BOUNDS ss ss ss
-2.9488 3.3359
-2.3622 3.5116
-1.8192 2.1757
ITEM: ATOMS id type xs ys zs
1 1 .491093 .991854 .599689
2 1 .995275 .628751 .534866
3 1 .814549 .010657 .445070
4 1 .202257 .007725 .420172
5 1 .007731 .622931 .495057
6 1 .492293 .413012 .990420
7 1 .511363 .488552 .008096
ITEM: TIMESTEP
150
ITEM: NUMBER OF ATOMS
7
ITEM: BOX BOUNDS ss ss ss
-2.9546 3.3390
-2.3622 3.5116
-1.8253 2.1805
ITEM: ATOMS id type xs ys zs
1 1 .495400 .992562 .598023
2 1 .994531 .626949 .532046
3 1 .814359 .009739 .448866
4 1 .204231 .010522 .420029
5 1 .004869 .624695 .495846
6 1 .495112 .410924 .985687
7 1 .514545 .486039 .009632
ITEM: TIMESTEP
200
ITEM: NUMBER OF ATOMS
7
ITEM: BOX BOUNDS ss ss ss
-2.9570 3.3415
-2.3622 3.5116
-1.8318 2.1833
ITEM: ATOMS id type xs ys zs
1 1 .492424 .995558 .600593
2 1 .994530 .626489 .533990
3 1 .814768 .006342 .447484
4 1 .203353 .009588 .420097
5 1 .011941 .620433 .491296
6 1 .498896 .409680 .984032
7 1 .512239 .484134 .009271
ITEM: TIMESTEP
250
ITEM: NUMBER OF ATOMS
7
ITEM: BOX BOUNDS ss ss ss
-2.9540 3.3495
-2.3622 3.5157
-1.8221 2.1823
ITEM: ATOMS id type xs ys zs
1 1 .498967 .992205 .597412
2 1 .994439 .627466 .536376
3 1 .811921 .012070 .450652
4 1 .205697 .008415 .419931
5 1 .008569 .621662 .497475
6 1 .493675 .413113 .990479
7 1 .512484 .485012 .008905
ITEM: TIMESTEP
300
ITEM: NUMBER OF ATOMS
7
ITEM: BOX BOUNDS ss ss ss
-2.9519 3.3437
-2.3655 3.5186
-1.8247 2.1825
ITEM: ATOMS id type xs ys zs
1 1 .493994 .995218 .596242
2 1 .993737 .625481 .534870
3 1 .810858 .007966 .453643
4 1 .201014 .007765 .425083
5 1 .008572 .617073 .492097
6 1 .497192 .415656 .987230
7 1 .514343 .485241 .012354
ITEM: TIMESTEP
350
ITEM: NUMBER OF ATOMS
7
ITEM: BOX BOUNDS ss ss ss
-2.9560 3.3418
-2.3640 3.5284
-1.8208 2.1799
ITEM: ATOMS id type xs ys zs
1 1 .494234 .992085 .600045
2 1 .992844 .623718 .534595
3 1 .810746 .007431 .453300
4 1 .200733 .008788 .425154
5 1 .009647 .616439 .495578
6 1 .497831 .416391 .987392
7 1 .514387 .485125 .010241
ITEM: TIMESTEP
400
ITEM: NUMBER OF ATOMS
7
ITEM: BOX BOUNDS ss ss ss
-2.9652 3.3457
-2.3722 3.5333
-1.8281 2.1751
ITEM: ATOMS id type xs ys zs
1 1 .500315 .995941 .595969
2 1 .990976 .626373 .539864
3 1 .815731 .014866 .448578
4 1 .204670 .010888 .420542
5 1 .012091 .619629 .503154
6 1 .496131 .417308 .985476
7 1 .512223 .483980 .012694
ITEM: TIMESTEP
1
ITEM: NUMBER OF ATOMS
7
ITEM: BOX BOUNDS ss ss ss
-2.9419 3.3152
-2.3656 3.5313
-1.8049 2.1532
ITEM: ATOMS id type xs ys zs
1 1 .492108 .985997 .599667
2 1 .998014 .624962 .532869
3 1 .817308 .008144 .448591
4 1 .203020 .008590 .421168
5 1 .005007 .622268 .494557
6 1 .493948 .412433 .996535
7 1 .516534 .488003 .006020
ITEM: TIMESTEP
50
ITEM: NUMBER OF ATOMS
7
ITEM: BOX BOUNDS ss ss ss
-2.9419 3.3315
-2.3656 3.5313
-1.8106 2.1694
ITEM: ATOMS id type xs ys zs
1 1 .490777 .986512 .595963
2 1 .995349 .626857 .532458
3 1 .817304 .008748 .449191
4 1 .202454 .009428 .421982
5 1 .003612 .621644 .491831
6 1 .492164 .411327 .992498
7 1 .515261 .487658 .007150
ITEM: TIMESTEP
100
ITEM: NUMBER OF ATOMS
7
ITEM: BOX BOUNDS ss ss ss
-2.9507 3.3365
-2.3656 3.5313
-1.8213 2.1745
ITEM: ATOMS id type xs ys zs
1 1 .492292 .985259 .602372
2 1 .994897 .624817 .534059
3 1 .812095 .009222 .441796
4 1 .203857 .008619 .422494
5 1 .003788 .621741 .490972
6 1 .493650 .409376 .991671
7 1 .512183 .483614 .010873
ITEM: TIMESTEP
150
ITEM: NUMBER OF ATOMS
7
ITEM: BOX BOUNDS ss ss ss
-2.9563 3.3372
-2.3656 3.5313
-1.8256 2.1811
ITEM: ATOMS id type xs ys zs
1 1 .494191 .991509 .603477
2 1 .992900 .622084 .533317
3 1 .811097 .010199 .441167
4 1 .203711 .012515 .419330
5 1 .003992 .619591 .493694
6 1 .492733 .410477 .989420
7 1 .513621 .486789 .009022
ITEM: TIMESTEP
200
ITEM: NUMBER OF ATOMS
7
ITEM: BOX BOUNDS ss ss ss
-2.9580 3.3461
-2.3656 3.5313
-1.8273 2.1869
ITEM: ATOMS id type xs ys zs
1 1 .493086 .989752 .604632
2 1 .992208 .623558 .531359
3 1 .808837 .009942 .443259
4 1 .205719 .013199 .420774
5 1 .002461 .621883 .491809
6 1 .496413 .412105 .987432
7 1 .513356 .488097 .010874
ITEM: TIMESTEP
250
ITEM: NUMBER OF ATOMS
7
ITEM: BOX BOUNDS ss ss ss
-2.9677 3.3483
-2.3656 3.5313
-1.8268 2.1888
ITEM: ATOMS id type xs ys zs
1 1 .493024 .990800 .606857
2 1 .993001 .622445 .529818
3 1 .809241 .010805 .442182
4 1 .202981 .013207 .420287
5 1 .003227 .620762 .491572
6 1 .498787 .413056 .987491
7 1 .514818 .489080 .010165
ITEM: TIMESTEP
300
ITEM: NUMBER OF ATOMS
7
ITEM: BOX BOUNDS ss ss ss
-2.9605 3.3527
-2.3656 3.5313
-1.8225 2.2016
ITEM: ATOMS id type xs ys zs
1 1 .490956 .990689 .604038
2 1 .986809 .625090 .533226
3 1 .813479 .012084 .453435
4 1 .208305 .009138 .413254
5 1 .011156 .618639 .491140
6 1 .492570 .411144 .984202
7 1 .510128 .484870 .009213
ITEM: TIMESTEP
350
ITEM: NUMBER OF ATOMS
7
ITEM: BOX BOUNDS ss ss ss
-2.9613 3.3566
-2.3656 3.5313
-1.8269 2.1967
ITEM: ATOMS id type xs ys zs
1 1 .497472 .993872 .600786
2 1 .991172 .626398 .525600
3 1 .811263 .010098 .435608
4 1 .202800 .010537 .417399
5 1 .012588 .621122 .499644
6 1 .497425 .406915 .987242
7 1 .512017 .485019 .015703
ITEM: TIMESTEP
400
ITEM: NUMBER OF ATOMS
7
ITEM: BOX BOUNDS ss ss ss
-2.9507 3.3527
-2.3656 3.5313
-1.8292 2.1833
ITEM: ATOMS id type xs ys zs
1 1 .496609 .992946 .601873
2 1 .991663 .630412 .531377
3 1 .807851 .009871 .436327
4 1 .198502 .007677 .424466
5 1 .009697 .620709 .500218
6 1 .501376 .409398 .981149
7 1 .509346 .487348 .010498
ITEM: TIMESTEP
1
ITEM: NUMBER OF ATOMS
7
ITEM: BOX BOUNDS ss ss ss
-2.9419 3.3297
-2.3555 3.5209
-1.8006 2.1592
ITEM: ATOMS id type xs ys zs
1 1 .491117 .987539 .597960
2 1 .995705 .625662 .531641
3 1 .815602 .006644 .446880
4 1 .202701 .006948 .420118
5 1 .004877 .622813 .493262
6 1 .492710 .412002 .995498
7 1 .515573 .488102 .005047
ITEM: TIMESTEP
50
ITEM: NUMBER OF ATOMS
7
ITEM: BOX BOUNDS ss ss ss
-2.9419 3.3317
-2.3555 3.5209
-1.8113 2.1668
ITEM: ATOMS id type xs ys zs
1 1 .489429 .987220 .602184
2 1 .994998 .625011 .531182
3 1 .815160 .004736 .446810
4 1 .202227 .007706 .419875
5 1 .003238 .625599 .494133
6 1 .493377 .413362 .994069
7 1 .514909 .488438 .006584
ITEM: TIMESTEP
100
ITEM: NUMBER OF ATOMS
7
ITEM: BOX BOUNDS ss ss ss
-2.9496 3.3410
-2.3555 3.5209
-1.8188 2.1791
ITEM: ATOMS id type xs ys zs
1 1 .491136 .990005 .595795
2 1 .994156 .624628 .532038
3 1 .812862 .008855 .450513
4 1 .203275 .005266 .423958
5 1 .005982 .620239 .493270
6 1 .492799 .408448 .990618
7 1 .514588 .487784 .010461
ITEM: TIMESTEP
150
ITEM: NUMBER OF ATOMS
7
ITEM: BOX BOUNDS ss ss ss
-2.9557 3.3436
-2.3555 3.5209
-1.8215 2.1871
ITEM: ATOMS id type xs ys zs
1 1 .495438 .990319 .601372
2 1 .993050 .627209 .530107
3 1 .812968 .011195 .451437
4 1 .204249 .008316 .425024
5 1 .007009 .621221 .500480
6 1 .493184 .411435 .993361
7 1 .515165 .485159 .006798
ITEM: TIMESTEP
200
ITEM: NUMBER OF ATOMS
7
ITEM: BOX BOUNDS ss ss ss
-2.9630 3.3476
-2.3555 3.5222
-1.8222 2.1949
ITEM: ATOMS id type xs ys zs
1 1 .492035 .988530 .597289
2 1 .993461 .625133 .528309
3 1 .812366 .009178 .446667
4 1 .206293 .010190 .424958
5 1 .008329 .618077 .488858
6 1 .496933 .407892 .993029
7 1 .515841 .484681 .011003
ITEM: TIMESTEP
250
ITEM: NUMBER OF ATOMS
7
ITEM: BOX BOUNDS ss ss ss
-2.9548 3.3509
-2.3664 3.5261
-1.8234 2.1975
ITEM: ATOMS id type xs ys zs
1 1 .489683 .992907 .598942
2 1 .986544 .627215 .527621
3 1 .812030 .008035 .446022
4 1 .205761 .007963 .424387
5 1 .007308 .617490 .490266
6 1 .494667 .406954 .983634
7 1 .508797 .488721 .011607
ITEM: TIMESTEP
300
ITEM: NUMBER OF ATOMS
7
ITEM: BOX BOUNDS ss ss ss
-2.9519 3.3542
-2.3643 3.5249
-1.8275 2.1917
ITEM: ATOMS id type xs ys zs
1 1 .493857 .992895 .604314
2 1 .992455 .627926 .523475
3 1 .814545 .008018 .452748
4 1 .205806 .009879 .415670
5 1 .008400 .617554 .487214
6 1 .494280 .409845 .990240
7 1 .510522 .483070 .016312
ITEM: TIMESTEP
350
ITEM: NUMBER OF ATOMS
7
ITEM: BOX BOUNDS ss ss ss
-2.9460 3.3465
-2.3725 3.5357
-1.8271 2.1958
ITEM: ATOMS id type xs ys zs
1 1 .492474 .990128 .608758
2 1 .996201 .629246 .527557
3 1 .813728 .011791 .450426
4 1 .202947 .008719 .422158
5 1 .008383 .618941 .495393
6 1 .495800 .411458 .984871
7 1 .512226 .487568 .011727
ITEM: TIMESTEP
400
ITEM: NUMBER OF ATOMS
7
ITEM: BOX BOUNDS ss ss ss
-2.9488 3.3428
-2.3748 3.5500
-1.8206 2.1883
ITEM: ATOMS id type xs ys zs
1 1 .496804 .992366 .607043
2 1 .990533 .625961 .528105
3 1 .811160 .008253 .445223
4 1 .202493 .011533 .426816
5 1 .007672 .619634 .489842
6 1 .497496 .413996 .985730
7 1 .511813 .484205 .013144
ITEM: TIMESTEP
1
ITEM: NUMBER OF ATOMS
7
ITEM: BOX BOUNDS ss ss ss
-2.9248 3.3262
-2.3687 3.5348
-1.7876 2.1540
ITEM: ATOMS id type xs ys zs
1 1 .490052 .985281 .597772
2 1 .996277 .624809 .530565
3 1 .815354 .008402 .446043
4 1 .200506 .009295 .418520
5 1 .002510 .622249 .492366
6 1 .491851 .412324 .996139
7 1 .514048 .487894 .001872
ITEM: TIMESTEP
50
ITEM: NUMBER OF ATOMS
7
ITEM: BOX BOUNDS ss ss ss
-2.9393 3.3315
-2.3687 3.5348
-1.8101 2.1689
ITEM: ATOMS id type xs ys zs
1 1 .490812 .984560 .598843
2 1 .994744 .623920 .530613
3 1 .815239 .010617 .442748
4 1 .200556 .009239 .420719
5 1 .005049 .620692 .489466
6 1 .494949 .412755 .993676
7 1 .514621 .490173 .006331
ITEM: TIMESTEP
100
ITEM: NUMBER OF ATOMS
7
ITEM: BOX BOUNDS ss ss ss
-2.9505 3.3390
-2.3687 3.5348
-1.8142 2.1790
ITEM: ATOMS id type xs ys zs
1 1 .494232 .986552 .598878
2 1 .994208 .624477 .531328
3 1 .815764 .010158 .449784
4 1 .205086 .010036 .419371
5 1 .005508 .620344 .493545
6 1 .494430 .408901 .990821
7 1 .517790 .485455 .008862
ITEM: TIMESTEP
150
ITEM: NUMBER OF ATOMS
7
ITEM: BOX BOUNDS ss ss ss
-2.9543 3.3487
-2.3687 3.5348
-1.8261 2.1795
ITEM: ATOMS id type xs ys zs
1 1 .495043 .990083 .599467
2 1 .995036 .623304 .527781
3 1 .813831 .008232 .447243
4 1 .205188 .012049 .423569
5 1 .006601 .619320 .492687
6 1 .495412 .411221 .988914
7 1 .515720 .485851 .008978
ITEM: TIMESTEP
200
ITEM: NUMBER OF ATOMS
7
ITEM: BOX BOUNDS ss ss ss
-2.9621 3.3612
-2.3687 3.5348
-1.8249 2.1876
ITEM: ATOMS id type xs ys zs
1 1 .494253 .989667 .597293
2 1 .994033 .619819 .526963
3 1 .812445 .009220 .443679
4 1 .207717 .011605 .424781
5 1 .006505 .619334 .489945
6 1 .494643 .411054 .988927
7 1 .516982 .485936 .007237
ITEM: TIMESTEP
250
ITEM: NUMBER OF ATOMS
7
ITEM: BOX BOUNDS ss ss ss
-2.9672 3.3580
-2.3687 3.5348
-1.8255 2.1890
ITEM: ATOMS id type xs ys zs
1 1 .495058 .983674 .598971
2 1 .994209 .624262 .528436
3 1 .811524 .011368 .444110
4 1 .204812 .010835 .419157
5 1 .010199 .619063 .495564
6 1 .494269 .408023 .995799
7 1 .515078 .485927 .012742
ITEM: TIMESTEP
300
ITEM: NUMBER OF ATOMS
7
ITEM: BOX BOUNDS ss ss ss
-2.9630 3.3628
-2.3687 3.5348
-1.8233 2.1850
ITEM: ATOMS id type xs ys zs
1 1 .499155 .990647 .599712
2 1 .996111 .623738 .530666
3 1 .809671 .014956 .442177
4 1 .202690 .006564 .423654
5 1 .011027 .616518 .491617
6 1 .493503 .410728 .985853
7 1 .515153 .483191 .015699
ITEM: TIMESTEP
350
ITEM: NUMBER OF ATOMS
7
ITEM: BOX BOUNDS ss ss ss
-2.9730 3.3688
-2.3687 3.5348
-1.8230 2.1810
ITEM: ATOMS id type xs ys zs
1 1 .494026 .988041 .600188
2 1 .990223 .624233 .530106
3 1 .809367 .012751 .450365
4 1 .204944 .009820 .416086
5 1 .007092 .615421 .492859
6 1 .494619 .414831 .986358
7 1 .510235 .480240 .015847
ITEM: TIMESTEP
400
ITEM: NUMBER OF ATOMS
7
ITEM: BOX BOUNDS ss ss ss
-2.9587 3.3731
-2.3687 3.5348
-1.8238 2.1827
ITEM: ATOMS id type xs ys zs
1 1 .493061 .994293 .603648
2 1 .991399 .622922 .528506
3 1 .811182 .007291 .445064
4 1 .202436 .005156 .427220
5 1 .007827 .615637 .494995
6 1 .495093 .410564 .983158
7 1 .507755 .482984 .016048
ITEM: TIMESTEP
1
ITEM: NUMBER OF ATOMS
7
ITEM: BOX BOUNDS ss ss ss
-2.9293 3.3358
-2.3575 3.5302
-1.8045 2.1608
ITEM: ATOMS id type xs ys zs
1 1 .489471 .986043 .598873
2 1 .995098 .624559 .531540
3 1 .814076 .006632 .447306
4 1 .200982 .007618 .420679
5 1 .003202 .621937 .493766
6 1 .490991 .411707 .994553
7 1 .513851 .487355 .006404
ITEM: TIMESTEP
50
ITEM: NUMBER OF ATOMS
7
ITEM: BOX BOUNDS ss ss ss
-2.9422 3.3364
-2.3575 3.5302
-1.8115 2.1687
ITEM: ATOMS id type xs ys zs
1 1 .490700 .985931 .597337
2 1 .994225 .625881 .531644
3 1 .814676 .006869 .449095
4 1 .202376 .008628 .421341
5 1 .002508 .621096 .493784
6 1 .493054 .411357 .991735
7 1 .514969 .486215 .006600
ITEM: TIMESTEP
100
ITEM: NUMBER OF ATOMS
7
ITEM: BOX BOUNDS ss ss ss
-2.9577 3.3452
-2.3575 3.5302
-1.8248 2.1783
ITEM: ATOMS id type xs ys zs
1 1 .489462 .987656 .596044
2 1 .993792 .622217 .530119
3 1 .816344 .005472 .447438
4 1 .206234 .009467 .420104
5 1 .006405 .621459 .489703
6 1 .492348 .410492 .990638
7 1 .512170 .486242 .008684
ITEM: TIMESTEP
150
ITEM: NUMBER OF ATOMS
7
ITEM: BOX BOUNDS ss ss ss
-2.9721 3.3496
-2.3583 3.5302
-1.8209 2.1875
ITEM: ATOMS id type xs ys zs
1 1 .489962 .990203 .600635
2 1 .992123 .623174 .527631
3 1 .813104 .008655 .448045
4 1 .208768 .011372 .424290
5 1 .006074 .620109 .487797
6 1 .492054 .412601 .992498
7 1 .516202 .487881 .011718
ITEM: TIMESTEP
200
ITEM: NUMBER OF ATOMS
7
ITEM: BOX BOUNDS ss ss ss
-2.9737 3.3510
-2.3575 3.5302
-1.8161 2.1855
ITEM: ATOMS id type xs ys zs
1 1 .492863 .988964 .594770
2 1 .994733 .621182 .529527
3 1 .813189 .007367 .444073
4 1 .204083 .007228 .414398
5 1 .008980 .623092 .487433
6 1 .497980 .408629 .987269
7 1 .514199 .482808 .006279
ITEM: TIMESTEP
250
ITEM: NUMBER OF ATOMS
7
ITEM: BOX BOUNDS ss ss ss
-2.9715 3.3520
-2.3659 3.5302
-1.8182 2.1881
ITEM: ATOMS id type xs ys zs
1 1 .493653 .989905 .593048
2 1 .993526 .623148 .533372
3 1 .811055 .010245 .443734
4 1 .203038 .011953 .427560
5 1 .007904 .620149 .488864
6 1 .494139 .415201 .987755
7 1 .512491 .483693 .010038
ITEM: TIMESTEP
300
ITEM: NUMBER OF ATOMS
7
ITEM: BOX BOUNDS ss ss ss
-2.9700 3.3524
-2.3575 3.5302
-1.8218 2.1902
ITEM: ATOMS id type xs ys zs
1 1 .492937 .988094 .595344
2 1 .994240 .623244 .532159
3 1 .809134 .008554 .444046
4 1 .204642 .009321 .425934
5 1 .008339 .621094 .488704
6 1 .494399 .412819 .990994
7 1 .513074 .485570 .013016
ITEM: TIMESTEP
350
ITEM: NUMBER OF ATOMS
7
ITEM: BOX BOUNDS ss ss ss
-2.9547 3.3551
-2.3600 3.5302
-1.8237 2.1855
ITEM: ATOMS id type xs ys zs
1 1 .497241 .991433 .603305
2 1 .993656 .622726 .533480
3 1 .814808 .008924 .454068
4 1 .202305 .008104 .426148
5 1 .007442 .621207 .494573
6 1 .496491 .408866 .990522
7 1 .507994 .485902 .022749
ITEM: TIMESTEP
400
ITEM: NUMBER OF ATOMS
7
ITEM: BOX BOUNDS ss ss ss
-2.9552 3.3542
-2.3664 3.5302
-1.8125 2.1899
ITEM: ATOMS id type xs ys zs
1 1 .496638 .990847 .598604
2 1 .995648 .624241 .531646
3 1 .814323 .009368 .453064
4 1 .202595 .009565 .423827
5 1 .006123 .621644 .486572
6 1 .496821 .406779 .988872
7 1 .507603 .488484 .016850
ITEM: TIMESTEP
1
ITEM: NUMBER OF ATOMS
7
ITEM: BOX BOUNDS ss ss ss
-2.9216 3.3419
-2.3534 3.5182
-1.7876 2.1684
ITEM: ATOMS id type xs ys zs
1 1 .488516 .988296 .595559
2 1 .993655 .625528 .528711
3 1 .813129 .005909 .444633
4 1 .199659 .007001 .417131
5 1 .001438 .623098 .490575
6 1 .490098 .411899 .993047
7 1 .512884 .487880 .001773
ITEM: TIMESTEP
50
ITEM: NUMBER OF ATOMS
7
ITEM: BOX BOUNDS ss ss ss
-2.9424 3.3419
-2.3534 3.5182
-1.8076 2.1726
ITEM: ATOMS id type xs ys zs
1 1 .492326 .988453 .600279
2 1 .995742 .624898 .531061
3 1 .816478 .004765 .444377
4 1 .202038 .006976 .419110
5 1 .005105 .623884 .492077
6 1 .490898 .409521 .989363
7 1 .514590 .488292 .005327
ITEM: TIMESTEP
100
ITEM: NUMBER OF ATOMS
7
ITEM: BOX BOUNDS ss ss ss
-2.9574 3.3464
-2.3534 3.5182
-1.8188 2.1860
ITEM: ATOMS id type xs ys zs
1 1 .492527 .986599 .599556
2 1 .995895 .622349 .530324
3 1 .817557 .004809 .441839
4 1 .204632 .006900 .418574
5 1 .006422 .624984 .493129
6 1 .491182 .408477 .986563
7 1 .514672 .486951 .008907
ITEM: TIMESTEP
150
ITEM: NUMBER OF ATOMS
7
ITEM: BOX BOUNDS ss ss ss
-2.9567 3.3459
-2.3534 3.5182
-1.8241 2.1975
ITEM: ATOMS id type xs ys zs
1 1 .489953 .990613 .594824
2 1 .993427 .626775 .530605
3 1 .811114 .009514 .447611
4 1 .207088 .010672 .421483
5 1 .005174 .622278 .491658
6 1 .493647 .411894 .987613
7 1 .513076 .485816 .005181
ITEM: TIMESTEP
200
ITEM: NUMBER OF ATOMS
7
ITEM: BOX BOUNDS ss ss ss
-2.9719 3.3441
-2.3600 3.5182
-1.8319 2.1926
ITEM: ATOMS id type xs ys zs
1 1 .493116 .990560 .597212
2 1 .992630 .626035 .530083
3 1 .812524 .009431 .450162
4 1 .207825 .011038 .423790
5 1 .007263 .622857 .491650
6 1 .495743 .411908 .991075
7 1 .513894 .485706 .007352
ITEM: TIMESTEP
250
ITEM: NUMBER OF ATOMS
7
ITEM: BOX BOUNDS ss ss ss
-2.9614 3.3419
-2.3534 3.5182
-1.8351 2.1918
ITEM: ATOMS id type xs ys zs
1 1 .492180 .989260 .595403
2 1 .991282 .628994 .528301
3 1 .810860 .008897 .451958
4 1 .208295 .012883 .418247
5 1 .005105 .615460 .486461
6 1 .498449 .411312 .993779
7 1 .513468 .486137 .005982
ITEM: TIMESTEP
300
ITEM: NUMBER OF ATOMS
7
ITEM: BOX BOUNDS ss ss ss
-2.9656 3.3457
-2.3540 3.5199
-1.8351 2.2004
ITEM: ATOMS id type xs ys zs
1 1 .492167 .989189 .598596
2 1 .990073 .625132 .528310
3 1 .811185 .008367 .450884
4 1 .206326 .005425 .417452
5 1 .007752 .617771 .482980
6 1 .493061 .411816 .988225
7 1 .515506 .484386 .008315
ITEM: TIMESTEP
350
ITEM: NUMBER OF ATOMS
7
ITEM: BOX BOUNDS ss ss ss
-2.9804 3.3419
-2.3636 3.5182
-1.8397 2.2020
ITEM: ATOMS id type xs ys zs
1 1 .496294 .993011 .594045
2 1 .989214 .625969 .535085
3 1 .810409 .008108 .447069
4 1 .215066 .010126 .421396
5 1 .010854 .617365 .485660
6 1 .497695 .412604 .986499
7 1 .512618 .488994 .013649
ITEM: TIMESTEP
400
ITEM: NUMBER OF ATOMS
7
ITEM: BOX BOUNDS ss ss ss
-2.9753 3.3442
-2.3584 3.5309
-1.8346 2.2039
ITEM: ATOMS id type xs ys zs
1 1 .490840 .993472 .592175
2 1 .987998 .620575 .534133
3 1 .810325 .007838 .451835
4 1 .211588 .007585 .422733
5 1 .008042 .615907 .485136
6 1 .497968 .413395 .987156
7 1 .511091 .485500 .014040
ITEM: TIMESTEP
1
ITEM: NUMBER OF ATOMS
7
ITEM: BOX BOUNDS ss ss ss
-2.9453 3.3184
-2.3447 3.5176
-1.8053 2.1734
ITEM: ATOMS id type xs ys zs
1 1 .492441 .988239 .596747
2 1 .997579 .625139 .529553
3 1 .816789 .004641 .446328
4 1 .203536 .005293 .419453
5 1 .005421 .622474 .492070
6 1 .493948 .411171 .991744
7 1 .516474 .487374 .006336
ITEM: TIMESTEP
50
ITEM: NUMBER OF ATOMS
7
ITEM: BOX BOUNDS ss ss ss
-2.9453 3.3366
-2.3447 3.5176
-1.8112 2.1734
ITEM: ATOMS id type xs ys zs
1 1 .490500 .985346 .597889
2 1 .994183 .623702 .531207
3 1 .814484 .005906 .446861
4 1 .204281 .006099 .419771
5 1 .005573 .624696 .492948
6 1 .492149 .410468 .991936
7 1 .514914 .487419 .007835
ITEM: TIMESTEP
100
ITEM: NUMBER OF ATOMS
7
ITEM: BOX BOUNDS ss ss ss
-2.9543 3.3423
-2.3486 3.5176
-1.8186 2.1801
ITEM: ATOMS id type xs ys zs
1 1 .487768 .990623 .597022
2 1 .994007 .624560 .529959
3 1 .816241 .005435 .446345
4 1 .205583 .009178 .419340
5 1 .004987 .622195 .489393
6 1 .487840 .409671 .990225
7 1 .518121 .485721 .008027
ITEM: TIMESTEP
150
ITEM: NUMBER OF ATOMS
7
ITEM: BOX BOUNDS ss ss ss
-2.9600 3.3518
-2.3478 3.5176
-1.8256 2.1862
ITEM: ATOMS id type xs ys zs
1 1 .490974 .987336 .598289
2 1 .993966 .629153 .529813
3 1 .813911 .004353 .447248
4 1 .205537 .007189 .413854
5 1 .006284 .623278 .494136
6 1 .492252 .410371 .991774
7 1 .512715 .483692 .013110
ITEM: TIMESTEP
200
ITEM: NUMBER OF ATOMS
7
ITEM: BOX BOUNDS ss ss ss
-2.9588 3.3567
-2.3502 3.5176
-1.8283 2.1880
ITEM: ATOMS id type xs ys zs
1 1 .490335 .987955 .597130
2 1 .991135 .627567 .529090
3 1 .810276 .005823 .457142
4 1 .204455 .009763 .418629
5 1 .003925 .620053 .492218
6 1 .494534 .411593 .990418
7 1 .512441 .487341 .008422
ITEM: TIMESTEP
250
ITEM: NUMBER OF ATOMS
7
ITEM: BOX BOUNDS ss ss ss
-2.9675 3.3736
-2.3547 3.5176
-1.8344 2.1956
ITEM: ATOMS id type xs ys zs
1 1 .492399 .990341 .600959
2 1 .988805 .624451 .528632
3 1 .808673 .009382 .454095
4 1 .202592 .009503 .423805
5 1 .009267 .622961 .491542
6 1 .497632 .414958 .989825
7 1 .509767 .485477 .015548
ITEM: TIMESTEP
300
ITEM: NUMBER OF ATOMS
7
ITEM: BOX BOUNDS ss ss ss
-2.9792 3.3623
-2.3530 3.5176
-1.8435 2.2000
ITEM: ATOMS id type xs ys zs
1 1 .492915 .990932 .601878
2 1 .990325 .623998 .527709
3 1 .812182 .009625 .457979
4 1 .205914 .007088 .424162
5 1 .010967 .623945 .491494
6 1 .500438 .414183 .991609
7 1 .511303 .486687 .019433
ITEM: TIMESTEP
350
ITEM: NUMBER OF ATOMS
7
ITEM: BOX BOUNDS ss ss ss
-2.9691 3.3557
-2.3476 3.5176
-1.8480 2.2083
ITEM: ATOMS id type xs ys zs
1 1 .492054 .991046 .599455
2 1 .992642 .627245 .529931
3 1 .808750 .013573 .462618
4 1 .200790 .007256 .423805
5 1 .010775 .621215 .486540
6 1 .489630 .411190 .990648
7 1 .513336 .483793 .008712
ITEM: TIMESTEP
400
ITEM: NUMBER OF ATOMS
7
ITEM: BOX BOUNDS ss ss ss
-2.9601 3.3621
-2.3519 3.5176
-1.8614 2.2045
ITEM: ATOMS id type xs ys zs
1 1 .496925 .992991 .600145
2 1 .989513 .625344 .523784
3 1 .806027 .010778 .458812
4 1 .203034 .009149 .424795
5 1 .011078 .624525 .485915
6 1 .489014 .417013 .992636
7 1 .511380 .484102 .019458
ITEM: TIMESTEP
1
ITEM: NUMBER OF ATOMS
7
ITEM: BOX BOUNDS ss ss ss
-2.9453 3.3469
-2.3447 3.5176
-1.8374 2.1736
ITEM: ATOMS id type xs ys zs
1 1 .489795 .987855 .600096
2 1 .992935 .625476 .533937
3 1 .813255 .004839 .450688
4 1 .202646 .005054 .424101
5 1 .005033 .622489 .496035
6 1 .491833 .411206 .991797
7 1 .514272 .487087 .014000
ITEM: TIMESTEP
50
ITEM: NUMBER OF ATOMS
7
ITEM: BOX BOUNDS ss ss ss
-2.9453 3.3469
-2.3489 3.5176
-1.8374 2.1736
ITEM: ATOMS id type xs ys zs
1 1 .489799 .988588 .599114
2 1 .992218 .625933 .532527
3 1 .813287 .005704 .448894
4 1 .202451 .007905 .422177
5 1 .005101 .623303 .495923
6 1 .491830 .408865 .990454
7 1 .513597 .488602 .014179
ITEM: TIMESTEP
100
ITEM: NUMBER OF ATOMS
7
ITEM: BOX BOUNDS ss ss ss
-2.9671 3.3469
-2.3520 3.5176
-1.8374 2.1810
ITEM: ATOMS id type xs ys zs
1 1 .492852 .987898 .599681
2 1 .995570 .625211 .526164
3 1 .814915 .003488 .448679
4 1 .206211 .009843 .422000
5 1 .008212 .619608 .492494
6 1 .492836 .412378 .993065
7 1 .517609 .485433 .018416
ITEM: TIMESTEP
150
ITEM: NUMBER OF ATOMS
7
ITEM: BOX BOUNDS ss ss ss
-2.9621 3.3513
-2.3535 3.5176
-1.8374 2.1872
ITEM: ATOMS id type xs ys zs
1 1 .490300 .989067 .599347
2 1 .990630 .626981 .531511
3 1 .816917 .006519 .452227
4 1 .204554 .010433 .425516
5 1 .008749 .624717 .499858
6 1 .492531 .413012 .988043
7 1 .512815 .484678 .018290
ITEM: TIMESTEP
200
ITEM: NUMBER OF ATOMS
7
ITEM: BOX BOUNDS ss ss ss
-2.9686 3.3535
-2.3595 3.5176
-1.8374 2.2039
ITEM: ATOMS id type xs ys zs
1 1 .489427 .987310 .600642
2 1 .994186 .627616 .523631
3 1 .815601 .012843 .446532
4 1 .203950 .009844 .421329
5 1 .007019 .620443 .490191
6 1 .492051 .412093 .982687
7 1 .511616 .485017 .015176
ITEM: TIMESTEP
250
ITEM: NUMBER OF ATOMS
7
ITEM: BOX BOUNDS ss ss ss
-2.9793 3.3626
-2.3571 3.5176
-1.8374 2.2049
ITEM: ATOMS id type xs ys zs
1 1 .492482 .991594 .597445
2 1 .990647 .623907 .524854
3 1 .810609 .009576 .442043
4 1 .202888 .007845 .424205
5 1 .008143 .620735 .491307
6 1 .495925 .412774 .987846
7 1 .509535 .482417 .024582
ITEM: TIMESTEP
300
ITEM: NUMBER OF ATOMS
7
ITEM: BOX BOUNDS ss ss ss
-2.9800 3.3534
-2.3543 3.5176
-1.8374 2.1982
ITEM: ATOMS id type xs ys zs
1 1 .492459 .991453 .596382
2 1 .993550 .623205 .524823
3 1 .812118 .009187 .442146
4 1 .203163 .009107 .426646
5 1 .009592 .620009 .490162
6 1 .496488 .412312 .987937
7 1 .509618 .480370 .025355
ITEM: TIMESTEP
350
ITEM: NUMBER OF ATOMS
7
ITEM: BOX BOUNDS ss ss ss
-2.9841 3.3546
-2.3555 3.5211
-1.8374 2.1920
ITEM: ATOMS id type xs ys zs
1 1 .493919 .987128 .592222
2 1 .993807 .628139 .530797
3 1 .815784 .011811 .452511
4 1 .205503 .008858 .424350
5 1 .008751 .619081 .492735
6 1 .500237 .410710 .987759
7 1 .514381 .481086 .014305
ITEM: TIMESTEP
400
ITEM: NUMBER OF ATOMS
7
ITEM: BOX BOUNDS ss ss ss
-2.9717 3.3545
-2.3624 3.5304
-1.8304 2.1972
ITEM: ATOMS id type xs ys zs
1 1 .490086 .994608 .595407
2 1 .985344 .624343 .531245
3 1 .810710 .006737 .448189
4 1 .206759 .006567 .418964
5 1 .010463 .618202 .482867
6 1 .489404 .411611 .987425
7 1 .508223 .485191 .008263
ITEM: TIMESTEP
1
ITEM: NUMBER OF ATOMS
7
ITEM: BOX BOUNDS ss ss ss
-2.9421 3.3116
-2.3440 3.5201
-1.8080 2.1621
ITEM: ATOMS id type xs ys zs
1 1 .492345 .987487 .598359
2 1 .998445 .624804 .531684
3 1 .817727 .004603 .447841
4 1 .203167 .004997 .420709
5 1 .005242 .622370 .493438
6 1 .494118 .410784 .994109
7 1 .516714 .487091 .006972
ITEM: TIMESTEP
50
ITEM: NUMBER OF ATOMS
7
ITEM: BOX BOUNDS ss ss ss
-2.9426 3.3333
-2.3479 3.5201
-1.8146 2.1710
ITEM: ATOMS id type xs ys zs
1 1 .491421 .989269 .597495
2 1 .996384 .625111 .531323
3 1 .815154 .003616 .447210
4 1 .203905 .004628 .419701
5 1 .004601 .622655 .490684
6 1 .492381 .408799 .992249
7 1 .516891 .486945 .008043
ITEM: TIMESTEP
100
ITEM: NUMBER OF ATOMS
7
ITEM: BOX BOUNDS ss ss ss
-2.9524 3.3430
-2.3550 3.5201
-1.8228 2.1770
ITEM: ATOMS id type xs ys zs
1 1 .489111 .990953 .596318
2 1 .993957 .623781 .533233
3 1 .816009 .006292 .449303
4 1 .202542 .007671 .425712
5 1 .005272 .623518 .495613
6 1 .495020 .410510 .994558
7 1 .517475 .485751 .007248
ITEM: TIMESTEP
150
ITEM: NUMBER OF ATOMS
7
ITEM: BOX BOUNDS ss ss ss
-2.9605 3.3473
-2.3598 3.5201
-1.8327 2.1864
ITEM: ATOMS id type xs ys zs
1 1 .493027 .989780 .599155
2 1 .992955 .626556 .531945
3 1 .809748 .005935 .450017
4 1 .206394 .008614 .422753
5 1 .007705 .624141 .493539
6 1 .497081 .412235 .982467
7 1 .512688 .481836 .013806
ITEM: TIMESTEP
200
ITEM: NUMBER OF ATOMS
7
ITEM: BOX BOUNDS ss ss ss
-2.9628 3.3552
-2.3678 3.5201
-1.8417 2.1928
ITEM: ATOMS id type xs ys zs
1 1 .490836 .988457 .596394
2 1 .991855 .626172 .528394
3 1 .813367 .009534 .448759
4 1 .205497 .011737 .429815
5 1 .006929 .623083 .494941
6 1 .496141 .410927 .989694
7 1 .515474 .483342 .012732
ITEM: TIMESTEP
250
ITEM: NUMBER OF ATOMS
7
ITEM: BOX BOUNDS ss ss ss
-2.9715 3.3483
-2.3666 3.5201
-1.8352 2.1945
ITEM: ATOMS id type xs ys zs
1 1 .492993 .988613 .594177
2 1 .992699 .631414 .532189
3 1 .814434 .008193 .447597
4 1 .203008 .010808 .427701
5 1 .009066 .621396 .496009
6 1 .498660 .410295 .981367
7 1 .515243 .479160 .009353
ITEM: TIMESTEP
300
ITEM: NUMBER OF ATOMS
7
ITEM: BOX BOUNDS ss ss ss
-2.9635 3.3465
-2.3758 3.5201
-1.8461 2.1895
ITEM: ATOMS id type xs ys zs
1 1 .493278 .992082 .603250
2 1 .992639 .632110 .534994
3 1 .812569 .009924 .447747
4 1 .204222 .013051 .425636
5 1 .004628 .620361 .494595
6 1 .497132 .410897 .985816
7 1 .511474 .479991 .018119
ITEM: TIMESTEP
350
ITEM: NUMBER OF ATOMS
7
ITEM: BOX BOUNDS ss ss ss
-2.9612 3.3496
-2.3785 3.5201
-1.8489 2.1934
ITEM: ATOMS id type xs ys zs
1 1 .488742 .992933 .601796