ITEM: TIMESTEP
1
ITEM: NUMBER OF ATOMS
7
ITEM: BOX BOUNDS ss ss ss
-3.0185 3.1286
-2.9227 3.1549
-2.0579 1.7983
ITEM: ATOMS id type xs ys zs
1 1 .488859 .999309 .427197
2 1 .999256 .646654 .508401
3 1 .838143 .033831 .583192
4 1 .219443 .000638 .539498
5 1 .000659 .583378 .430927
6 1 .491519 .486166 .999024
7 1 .528150 .433930 .000945
ITEM: TIMESTEP
50
ITEM: NUMBER OF ATOMS
7
ITEM: BOX BOUNDS ss ss ss
-3.0451 3.1547
-2.9489 3.1804
-2.0795 1.8234
ITEM: ATOMS id type xs ys zs
1 1 .489005 .995637 .427721
2 1 .995429 .645510 .507981
3 1 .835004 .037803 .581689
4 1 .222092 .004839 .538678
5 1 .004994 .582560 .431287
6 1 .491568 .486243 .992442
7 1 .527658 .434373 .006525
ITEM: TIMESTEP
100
ITEM: NUMBER OF ATOMS
7
ITEM: BOX BOUNDS ss ss ss
-3.0478 3.1739
-2.9562 3.1919
-2.0922 1.8288
ITEM: ATOMS id type xs ys zs
1 1 .487238 .993419 .429233
2 1 .993540 .644548 .509473
3 1 .831860 .039575 .582194
4 1 .222397 .006231 .539181
5 1 .005247 .582308 .432816
6 1 .490388 .485577 .990729
7 1 .525644 .433470 .009508
ITEM: TIMESTEP
150
ITEM: NUMBER OF ATOMS
7
ITEM: BOX BOUNDS ss ss ss
-3.0536 3.1825
-2.9573 3.1853
-2.0948 1.8285
ITEM: ATOMS id type xs ys zs
1 1 .486341 .992925 .429398
2 1 .993278 .645043 .510234
3 1 .830625 .040283 .582707
4 1 .223454 .006568 .538815
5 1 .005826 .583747 .433456
6 1 .490464 .485971 .990119
7 1 .524948 .432870 .009550
ITEM: TIMESTEP
200
ITEM: NUMBER OF ATOMS
7
ITEM: BOX BOUNDS ss ss ss
-3.0646 3.1818
-2.9581 3.1821
-2.0986 1.8336
ITEM: ATOMS id type xs ys zs
1 1 .486520 .991985 .429346
2 1 .993985 .645141 .510152
3 1 .831048 .040717 .582944
4 1 .225273 .007436 .538862
5 1 .007809 .585138 .433567
6 1 .492211 .485901 .988618
7 1 .525783 .432402 .010280
ITEM: TIMESTEP
250
ITEM: NUMBER OF ATOMS
7
ITEM: BOX BOUNDS ss ss ss
-3.0527 3.1936
-2.9619 3.1683
-2.1045 1.8282
ITEM: ATOMS id type xs ys zs
1 1 .483869 .992785 .432286
2 1 .992406 .646451 .513050
3 1 .829778 .041716 .584290
4 1 .223826 .008586 .540620
5 1 .006124 .587594 .435192
6 1 .490720 .486843 .990858
7 1 .524019 .432875 .011441
ITEM: TIMESTEP
300
ITEM: NUMBER OF ATOMS
7
ITEM: BOX BOUNDS ss ss ss
-3.0625 3.1944
-2.9610 3.1608
-2.0994 1.8349
ITEM: ATOMS id type xs ys zs
1 1 .483758 .992084 .432665
2 1 .992720 .646743 .514800
3 1 .831064 .042035 .582014
4 1 .226030 .008695 .539657
5 1 .008340 .589356 .433777
6 1 .491435 .486636 .990220
7 1 .525177 .432104 .009464
ITEM: TIMESTEP
350
ITEM: NUMBER OF ATOMS
7
ITEM: BOX BOUNDS ss ss ss
-3.0539 3.1926
-2.9508 3.1506
-2.1041 1.8353
ITEM: ATOMS id type xs ys zs
1 1 .482523 .992270 .433417
2 1 .993487 .646756 .517132
3 1 .831663 .040990 .582261
4 1 .225418 .007623 .540560
5 1 .007237 .590165 .434139
6 1 .490992 .486182 .990603
7 1 .525253 .431252 .010242
ITEM: TIMESTEP
400
ITEM: NUMBER OF ATOMS
7
ITEM: BOX BOUNDS ss ss ss
-3.0566 3.2000
-2.9452 3.1455
-2.1102 1.8478
ITEM: ATOMS id type xs ys zs
1 1 .481893 .992216 .432583
2 1 .992619 .646694 .516816
3 1 .831214 .040614 .581253
4 1 .225343 .007283 .539565
5 1 .007515 .590482 .433597
6 1 .490634 .485707 .987679
7 1 .525063 .430988 .011415
ITEM: TIMESTEP
1
ITEM: NUMBER OF ATOMS
7
ITEM: BOX BOUNDS ss ss ss
-3.0386 3.1847
-2.9243 3.1546
-2.0943 1.8255
ITEM: ATOMS id type xs ys zs
1 1 .486099 .999367 .429560
2 1 .990245 .646775 .509432
3 1 .831104 .034075 .583005
4 1 .219972 .000892 .540031
5 1 .003862 .583514 .433221
6 1 .488720 .486324 .992086
7 1 .524911 .434097 .010232
ITEM: TIMESTEP
50
ITEM: NUMBER OF ATOMS
7
ITEM: BOX BOUNDS ss ss ss
-3.0458 3.1847
-2.9461 3.1792
-2.0943 1.8255
ITEM: ATOMS id type xs ys zs
1 1 .486767 .995907 .429703
2 1 .990551 .645528 .509530
3 1 .831012 .037249 .582962
4 1 .221027 .004359 .540177
5 1 .005005 .582409 .433081
6 1 .489202 .486171 .991985
7 1 .525211 .434306 .010337
ITEM: TIMESTEP
100
ITEM: NUMBER OF ATOMS
7
ITEM: BOX BOUNDS ss ss ss
-3.0639 3.1847
-2.9579 3.1929
-2.0943 1.8293
ITEM: ATOMS id type xs ys zs
1 1 .487670 .993490 .430120
2 1 .991968 .644578 .509691
3 1 .831135 .039731 .582149
4 1 .224082 .006313 .539938
5 1 .007556 .582397 .432983
6 1 .490730 .485461 .990422
7 1 .525777 .433641 .010361
ITEM: TIMESTEP
150
ITEM: NUMBER OF ATOMS
7
ITEM: BOX BOUNDS ss ss ss
-3.0627 3.1847
-2.9603 3.1982
-2.0954 1.8296
ITEM: ATOMS id type xs ys zs
1 1 .486935 .991900 .430832
2 1 .993900 .643825 .509565
3 1 .831163 .041249 .581611
4 1 .225306 .007189 .540988
5 1 .007812 .582847 .432362
6 1 .491465 .485386 .989280
7 1 .525586 .432863 .010191
ITEM: TIMESTEP
200
ITEM: NUMBER OF ATOMS
7
ITEM: BOX BOUNDS ss ss ss
-3.0580 3.1897
-2.9605 3.1856
-2.1015 1.8318
ITEM: ATOMS id type xs ys zs
1 1 .485692 .992947 .431550
2 1 .994338 .644991 .509604
3 1 .830422 .042171 .581956
4 1 .225313 .007662 .541934
5 1 .007771 .584659 .431954
6 1 .491379 .486794 .987835
7 1 .525321 .433275 .010191
ITEM: TIMESTEP
250
ITEM: NUMBER OF ATOMS
7
ITEM: BOX BOUNDS ss ss ss
-3.0651 3.1996
-2.9612 3.1845
-2.1080 1.8255
ITEM: ATOMS id type xs ys zs
1 1 .485357 .991750 .433316
2 1 .993511 .644781 .510816
3 1 .829724 .042839 .584168
4 1 .226048 .008014 .543890
5 1 .009365 .585331 .433520
6 1 .491693 .486535 .988876
7 1 .525388 .432694 .010639
ITEM: TIMESTEP
300
ITEM: NUMBER OF ATOMS
7
ITEM: BOX BOUNDS ss ss ss
-3.0694 3.2047
-2.9588 3.1766
-2.1109 1.8290
ITEM: ATOMS id type xs ys zs
1 1 .484982 .991649 .433587
2 1 .993177 .644855 .510795
3 1 .829520 .042884 .584296
4 1 .226419 .008080 .544492
5 1 .010118 .586314 .433184
6 1 .492035 .486790 .988689
7 1 .525308 .432375 .011128
ITEM: TIMESTEP
350
ITEM: NUMBER OF ATOMS
7
ITEM: BOX BOUNDS ss ss ss
-3.0530 3.2103
-2.9583 3.1718
-2.1160 1.8362
ITEM: ATOMS id type xs ys zs
1 1 .482576 .991403 .434225
2 1 .992589 .645117 .510663
3 1 .828463 .043294 .583927
4 1 .224008 .008556 .544356
5 1 .007440 .587247 .433067
6 1 .490669 .486983 .987624
7 1 .523582 .432300 .012392
ITEM: TIMESTEP
400
ITEM: NUMBER OF ATOMS
7
ITEM: BOX BOUNDS ss ss ss
-3.0598 3.2140
-2.9561 3.1619
-2.1202 1.8385
ITEM: ATOMS id type xs ys zs
1 1 .482628 .992151 .434985
2 1 .992222 .645850 .511111
3 1 .828333 .043379 .584273
4 1 .224516 .008860 .544283
5 1 .008323 .588488 .433469
6 1 .491022 .487400 .987516
7 1 .523793 .432533 .013218
ITEM: TIMESTEP
1
ITEM: NUMBER OF ATOMS
7
ITEM: BOX BOUNDS ss ss ss
-3.0454 3.2042
-2.9270 3.1544
-2.0964 1.8205
ITEM: ATOMS id type xs ys zs
1 1 .485149 .999402 .430415
2 1 .987169 .646955 .510342
3 1 .828701 .034507 .583977
4 1 .220142 .001338 .540972
5 1 .004946 .583717 .434080
6 1 .487760 .486571 .993368
7 1 .523795 .434367 .010772
ITEM: TIMESTEP
50
ITEM: NUMBER OF ATOMS
7
ITEM: BOX BOUNDS ss ss ss
-3.0454 3.2042
-2.9467 3.1942
-2.0964 1.8207
ITEM: ATOMS id type xs ys zs
1 1 .485294 .993581 .430459
2 1 .987445 .643960 .510263
3 1 .828376 .037209 .583937
4 1 .220305 .004376 .541110
5 1 .004955 .580952 .433965
6 1 .487674 .485067 .993087
7 1 .523589 .433387 .010799
ITEM: TIMESTEP
100
ITEM: NUMBER OF ATOMS
7
ITEM: BOX BOUNDS ss ss ss
-3.0504 3.2042
-2.9583 3.1902
-2.0964 1.8249
ITEM: ATOMS id type xs ys zs
1 1 .485279 .994035 .430151
2 1 .988702 .644870 .510368
3 1 .827438 .039827 .583333
4 1 .221822 .006605 .541075
5 1 .005631 .582333 .433771
6 1 .488136 .485947 .990929
7 1 .523686 .433892 .010152
ITEM: TIMESTEP
150
ITEM: NUMBER OF ATOMS
7
ITEM: BOX BOUNDS ss ss ss
-3.0548 3.2042
-2.9536 3.1903
-2.1001 1.8239
ITEM: ATOMS id type xs ys zs
1 1 .484493 .992398 .430686
2 1 .990007 .644661 .513081
3 1 .826762 .039073 .583607
4 1 .222499 .006134 .541632
5 1 .006554 .582787 .434087
6 1 .489052 .484765 .989646
7 1 .524266 .432343 .009796
ITEM: TIMESTEP
200
ITEM: NUMBER OF ATOMS
7
ITEM: BOX BOUNDS ss ss ss
-3.0572 3.2042
-2.9571 3.1767
-2.1110 1.8281
ITEM: ATOMS id type xs ys zs
1 1 .483399 .993163 .431748
2 1 .991362 .646575 .514397
3 1 .826504 .039977 .584476
4 1 .222450 .007627 .542147
5 1 .006977 .585365 .436010
6 1 .490192 .486289 .988442
7 1 .523983 .432653 .012235
ITEM: TIMESTEP
250
ITEM: NUMBER OF ATOMS
7
ITEM: BOX BOUNDS ss ss ss
-3.0701 3.2042
-2.9577 3.1734
-2.1125 1.8213
ITEM: ATOMS id type xs ys zs
1 1 .483208 .993020 .432561
2 1 .992231 .646834 .514633
3 1 .826919 .041001 .587041
4 1 .223810 .008971 .542766
5 1 .009860 .587154 .437623
6 1 .492385 .487221 .991098
7 1 .525552 .432531 .012896
ITEM: TIMESTEP
300
ITEM: NUMBER OF ATOMS
7
ITEM: BOX BOUNDS ss ss ss
-3.0678 3.2081
-2.9505 3.1737
-2.1143 1.8378
ITEM: ATOMS id type xs ys zs
1 1 .482262 .992371 .431313
2 1 .991967 .646268 .512315
3 1 .826479 .040452 .585698
4 1 .223303 .008393 .540443
5 1 .009849 .587507 .435984
6 1 .492317 .486945 .987483
7 1 .525323 .431604 .013278
ITEM: TIMESTEP
350
ITEM: NUMBER OF ATOMS
7
ITEM: BOX BOUNDS ss ss ss
-3.0575 3.2047
-2.9482 3.1844
-2.1102 1.8310
ITEM: ATOMS id type xs ys zs
1 1 .481528 .989821 .431715
2 1 .992538 .645200 .512378
3 1 .826780 .040516 .586845
4 1 .221986 .008590 .540666
5 1 .008366 .587189 .436196
6 1 .491824 .485807 .989403
7 1 .524767 .430192 .011776
ITEM: TIMESTEP
400
ITEM: NUMBER OF ATOMS
7
ITEM: BOX BOUNDS ss ss ss
-3.0537 3.2129
-2.9457 3.1688
-2.1170 1.8370
ITEM: ATOMS id type xs ys zs
1 1 .480609 .991594 .432418
2 1 .991228 .646882 .512144
3 1 .825789 .040848 .586738
4 1 .221030 .008645 .540456
5 1 .007533 .589343 .436461
6 1 .490761 .486555 .987989
7 1 .523698 .430839 .012839
ITEM: TIMESTEP
1
ITEM: NUMBER OF ATOMS
7
ITEM: BOX BOUNDS ss ss ss
-3.0454 3.2042
-2.9270 3.1547
-2.0964 1.8286
ITEM: ATOMS id type xs ys zs
1 1 .485149 .999354 .429523
2 1 .987168 .646925 .509291
3 1 .828702 .034505 .582766
4 1 .220142 .001336 .539853
5 1 .004949 .583689 .433185
6 1 .487761 .486544 .991302
7 1 .523796 .434346 .010754
ITEM: TIMESTEP
50
ITEM: NUMBER OF ATOMS
7
ITEM: BOX BOUNDS ss ss ss
-3.0454 3.2042
-2.9496 3.1812
-2.0964 1.8286
ITEM: ATOMS id type xs ys zs
1 1 .485324 .995730 .429575
2 1 .987294 .645521 .509239
3 1 .828424 .037655 .582710
4 1 .220269 .004784 .540010
5 1 .005021 .582276 .432982
6 1 .487722 .486335 .991177
7 1 .523585 .434650 .010870
ITEM: TIMESTEP
100
ITEM: NUMBER OF ATOMS
7
ITEM: BOX BOUNDS ss ss ss
-3.0489 3.2042
-2.9530 3.2052
-2.0964 1.8290
ITEM: ATOMS id type xs ys zs
1 1 .485282 .991813 .429672
2 1 .988460 .643149 .509915
3 1 .827735 .038561 .582729
4 1 .221358 .005460 .539934
5 1 .005536 .580612 .433040
6 1 .488160 .483942 .990542
7 1 .523297 .432694 .010619
ITEM: TIMESTEP
150
ITEM: NUMBER OF ATOMS
7
ITEM: BOX BOUNDS ss ss ss
-3.0546 3.2042
-2.9624 3.1895
-2.0964 1.8374
ITEM: ATOMS id type xs ys zs
1 1 .485546 .993856 .428597
2 1 .989543 .645147 .509985
3 1 .828002 .040383 .580618
4 1 .222886 .007413 .538154
5 1 .006219 .583318 .432845
6 1 .489042 .485172 .987701
7 1 .523578 .433928 .010319
ITEM: TIMESTEP
200
ITEM: NUMBER OF ATOMS
7
ITEM: BOX BOUNDS ss ss ss
-3.0653 3.2042
-2.9658 3.1903
-2.1020 1.8341
ITEM: ATOMS id type xs ys zs
1 1 .485202 .991833 .428228
2 1 .990730 .644622 .512134
3 1 .829686 .041556 .580220
4 1 .224520 .008626 .536687
5 1 .007458 .584537 .434301
6 1 .490300 .484739 .986586
7 1 .524790 .433655 .010161
ITEM: TIMESTEP
250
ITEM: NUMBER OF ATOMS
7
ITEM: BOX BOUNDS ss ss ss
-3.0570 3.2042
-2.9710 3.1811
-2.1124 1.8286
ITEM: ATOMS id type xs ys zs
1 1 .483168 .991511 .428125
2 1 .991722 .645233 .514090
3 1 .829666 .041999 .579679
4 1 .223059 .010939 .535946
5 1 .005893 .586579 .439150
6 1 .490977 .486082 .987363
7 1 .524239 .434327 .012350
ITEM: TIMESTEP
300
ITEM: NUMBER OF ATOMS
7
ITEM: BOX BOUNDS ss ss ss
-3.0590 3.2042
-2.9537 3.1714
-2.1060 1.8286
ITEM: ATOMS id type xs ys zs
1 1 .482754 .991925 .426951
2 1 .992363 .645194 .513634
3 1 .829166 .039767 .578180
4 1 .223138 .008228 .534908
5 1 .006329 .587269 .438449
6 1 .491494 .485357 .987857
7 1 .523997 .432946 .010717
ITEM: TIMESTEP
350
ITEM: NUMBER OF ATOMS
7
ITEM: BOX BOUNDS ss ss ss
-3.0613 3.2046
-2.9535 3.1580
-2.1106 1.8318
ITEM: ATOMS id type xs ys zs
1 1 .482439 .992831 .428132
2 1 .992831 .646436 .514551
3 1 .829221 .040382 .578405
4 1 .223194 .008325 .535320
5 1 .006964 .589841 .438393
6 1 .491905 .486015 .987511
7 1 .523815 .432801 .011614
ITEM: TIMESTEP
400
ITEM: NUMBER OF ATOMS
7
ITEM: BOX BOUNDS ss ss ss
-3.0642 3.2173
-2.9451 3.1597
-2.1104 1.8283
ITEM: ATOMS id type xs ys zs
1 1 .481300 .991246 .429296
2 1 .991302 .645140 .515406
3 1 .828383 .039530 .579562
4 1 .223650 .007551 .536303
5 1 .007435 .589912 .438407
6 1 .491525 .484967 .988652
7 1 .522933 .430716 .011431
ITEM: TIMESTEP
1
ITEM: NUMBER OF ATOMS
7
ITEM: BOX BOUNDS ss ss ss
-3.0454 3.2042
-2.9270 3.1546
-2.0964 1.8205
ITEM: ATOMS id type xs ys zs
1 1 .485148 .999371 .430416
2 1 .987163 .646938 .510342
3 1 .828701 .034501 .583977
4 1 .220142 .001336 .540972
5 1 .004948 .583695 .434083
6 1 .487760 .486554 .993366
7 1 .523798 .434355 .010774
ITEM: TIMESTEP
50
ITEM: NUMBER OF ATOMS
7
ITEM: BOX BOUNDS ss ss ss
-3.0454 3.2042
-2.9493 3.1830
-2.0964 1.8205
ITEM: ATOMS id type xs ys zs
1 1 .485456 .995592 .430408
2 1 .987239 .645303 .510265
3 1 .828448 .037498 .583951
4 1 .220222 .004706 .541150
5 1 .004997 .581987 .433969
6 1 .487664 .486254 .993258
7 1 .523650 .434515 .010969
ITEM: TIMESTEP
100
ITEM: NUMBER OF ATOMS
7
ITEM: BOX BOUNDS ss ss ss
-3.0538 3.2042
-2.9611 3.1977
-2.0964 1.8290
ITEM: ATOMS id type xs ys zs
1 1 .486149 .993715 .429187
2 1 .988377 .644462 .509990
3 1 .827819 .039708 .582321
4 1 .221916 .006624 .540242
5 1 .006285 .581577 .432702
6 1 .488381 .485803 .990672
7 1 .523698 .433809 .011055
ITEM: TIMESTEP
150
ITEM: NUMBER OF ATOMS
7
ITEM: BOX BOUNDS ss ss ss
-3.0585 3.2042
-2.9705 3.2013
-2.0964 1.8313
ITEM: ATOMS id type xs ys zs
1 1 .486186 .992985 .429071
2 1 .989223 .644241 .510622
3 1 .827493 .041933 .581356
4 1 .223039 .008218 .539962
5 1 .007026 .582433 .432340
6 1 .488730 .486084 .989403
7 1 .523716 .433951 .010818
ITEM: TIMESTEP
200
ITEM: NUMBER OF ATOMS
7
ITEM: BOX BOUNDS ss ss ss
-3.0607 3.2042
-2.9696 3.2005
-2.0976 1.8395
ITEM: ATOMS id type xs ys zs
1 1 .486097 .991916 .428765
2 1 .989980 .644105 .510622
3 1 .827560 .042784 .579637
4 1 .223336 .008146 .538967
5 1 .007114 .582624 .430821
6 1 .489047 .485577 .986154
7 1 .523532 .434101 .010073
ITEM: TIMESTEP
250
ITEM: NUMBER OF ATOMS
7
ITEM: BOX BOUNDS ss ss ss
-3.0789 3.2042
-2.9672 3.1994
-2.1050 1.8450
ITEM: ATOMS id type xs ys zs
1 1 .487435 .991201 .429798
2 1 .990392 .644051 .511276
3 1 .827850 .043352 .579143
4 1 .225563 .007574 .539433
5 1 .009989 .582742 .431026
6 1 .490517 .485098 .984925
7 1 .524616 .434068 .011238
ITEM: TIMESTEP
300
ITEM: NUMBER OF ATOMS
7
ITEM: BOX BOUNDS ss ss ss
-3.0725 3.2042
-2.9682 3.1982
-2.1060 1.8488
ITEM: ATOMS id type xs ys zs
1 1 .486736 .990513 .430972
2 1 .990425 .643755 .510556
3 1 .827530 .044232 .578816
4 1 .224874 .007979 .538635
5 1 .009041 .583023 .431607
6 1 .490045 .485286 .985472
7 1 .523709 .433845 .010940
ITEM: TIMESTEP
350
ITEM: NUMBER OF ATOMS
7
ITEM: BOX BOUNDS ss ss ss
-3.0722 3.2042
-2.9766 3.1808
-2.1189 1.8536
ITEM: ATOMS id type xs ys zs
1 1 .486218 .992421 .434555
2 1 .990347 .645545 .510966
3 1 .827699 .046249 .580117
4 1 .225107 .009817 .539130
5 1 .008815 .585413 .434515
6 1 .490118 .487126 .985775
7 1 .523123 .435379 .014121
ITEM: TIMESTEP
400
ITEM: NUMBER OF ATOMS
7
ITEM: BOX BOUNDS ss ss ss
-3.0859 3.1995
-2.9706 3.1846
-2.1209 1.8556
ITEM: ATOMS id type xs ys zs
1 1 .487757 .990867 .436572
2 1 .991232 .644697 .510708
3 1 .828927 .045778 .580159
4 1 .227132 .009161 .538814
5 1 .011103 .584985 .435241
6 1 .491523 .485865 .986302
7 1 .524264 .434229 .014597
ITEM: TIMESTEP
1
ITEM: NUMBER OF ATOMS
7
ITEM: BOX BOUNDS ss ss ss
-3.0412 3.1723
-2.9397 3.1546
-2.0928 1.8334
ITEM: ATOMS id type xs ys zs
1 1 .487295 .999368 .428471
2 1 .992232 .647668 .508213
3 1 .832846 .036517 .581669
4 1 .220746 .003419 .538769
5 1 .004299 .584561 .432128
6 1 .489922 .487624 .990092
7 1 .526170 .435534 .009825
ITEM: TIMESTEP
50
ITEM: NUMBER OF ATOMS
7
ITEM: BOX BOUNDS ss ss ss
-3.0429 3.1723
-2.9515 3.1850
-2.0928 1.8334
ITEM: ATOMS id type xs ys zs
1 1 .487702 .995311 .428551
2 1 .992231 .645261 .508104
3 1 .832647 .037800 .581686
4 1 .221040 .005024 .538922
5 1 .004638 .581850 .431893
6 1 .489955 .486260 .989999
7 1 .526189 .434642 .009994
ITEM: TIMESTEP
100
ITEM: NUMBER OF ATOMS
7
ITEM: BOX BOUNDS ss ss ss
-3.0462 3.1761
-2.9554 3.1923
-2.0928 1.8355
ITEM: ATOMS id type xs ys zs
1 1 .486511 .994088 .428953
2 1 .992408 .644547 .508417
3 1 .831393 .039134 .581070
4 1 .222095 .005835 .538066
5 1 .005371 .581653 .429403
6 1 .490220 .485240 .988870
7 1 .525010 .433573 .009472
ITEM: TIMESTEP
150
ITEM: NUMBER OF ATOMS
7
ITEM: BOX BOUNDS ss ss ss
-3.0504 3.1725
-2.9549 3.1928
-2.0982 1.8334
ITEM: ATOMS id type xs ys zs
1 1 .485625 .993184 .430933
2 1 .993419 .645320 .509145
3 1 .831888 .040516 .580854
4 1 .223091 .006358 .540297
5 1 .006965 .583269 .427367
6 1 .491451 .484138 .987814
7 1 .525395 .432243 .009458
ITEM: TIMESTEP
200
ITEM: NUMBER OF ATOMS
7
ITEM: BOX BOUNDS ss ss ss
-3.0485 3.1723
-2.9607 3.1976
-2.1114 1.8334
ITEM: ATOMS id type xs ys zs
1 1 .484946 .992063 .433707
2 1 .993956 .645515 .510680
3 1 .831754 .042539 .581328
4 1 .223137 .007788 .542237
5 1 .006925 .584077 .428415
6 1 .491393 .484756 .987488
7 1 .525410 .432012 .011728
ITEM: TIMESTEP
250
ITEM: NUMBER OF ATOMS
7
ITEM: BOX BOUNDS ss ss ss
-3.0441 3.1832
-2.9582 3.1904
-2.1206 1.8334
ITEM: ATOMS id type xs ys zs
1 1 .483316 .992699 .435846
2 1 .992918 .646196 .511916
3 1 .829945 .043229 .582050
4 1 .222237 .007610 .543230
5 1 .006065 .585050 .429673
6 1 .490155 .485740 .987718
7 1 .524136 .432261 .013491
ITEM: TIMESTEP
300
ITEM: NUMBER OF ATOMS
7
ITEM: BOX BOUNDS ss ss ss
-3.0467 3.1937
-2.9564 3.1898
-2.1190 1.8334
ITEM: ATOMS id type xs ys zs
1 1 .482731 .991878 .435520
2 1 .991870 .646041 .512379
3 1 .828540 .043765 .580900
4 1 .222062 .007425 .542370
5 1 .006380 .585563 .429967
6 1 .489557 .485630 .987902
7 1 .523445 .432246 .012616
ITEM: TIMESTEP
350
ITEM: NUMBER OF ATOMS
7
ITEM: BOX BOUNDS ss ss ss
-3.0511 3.1952
-2.9573 3.1810
-2.1172 1.8334
ITEM: ATOMS id type xs ys zs
1 1 .483703 .991979 .434593
2 1 .992442 .647229 .513306
3 1 .828512 .044803 .579794
4 1 .222486 .007695 .541376
5 1 .007318 .586772 .430772
6 1 .490044 .486199 .987972
7 1 .523931 .433047 .011534
ITEM: TIMESTEP
400
ITEM: NUMBER OF ATOMS
7
ITEM: BOX BOUNDS ss ss ss
-3.0540 3.1965
-2.9601 3.1791
-2.1201 1.8416
ITEM: ATOMS id type xs ys zs
1 1 .484307 .991032 .433451
2 1 .993217 .648194 .513121
3 1 .828680 .046072 .579005
4 1 .222842 .008350 .540350
5 1 .007975 .587254 .430716
6 1 .490557 .486568 .986272
7 1 .524353 .433306 .011769
ITEM: TIMESTEP
1
ITEM: NUMBER OF ATOMS
7
ITEM: BOX BOUNDS ss ss ss
-3.0346 3.1873
-2.9328 3.1544
-2.1004 1.8155
ITEM: ATOMS id type xs ys zs
1 1 .485577 .999404 .431548
2 1 .989831 .647292 .511493
3 1 .830662 .035421 .585148
4 1 .219385 .002285 .542130
5 1 .003230 .584110 .435213
6 1 .488198 .487061 .994648
7 1 .524400 .434909 .011798
ITEM: TIMESTEP
50
ITEM: NUMBER OF ATOMS
7
ITEM: BOX BOUNDS ss ss ss
-3.0419 3.1873
-2.9499 3.1880
-2.1004 1.8203
ITEM: ATOMS id type xs ys zs
1 1 .486533 .994871 .431051
2 1 .989860 .644834 .510643
3 1 .830584 .037456 .584347
4 1 .220261 .004757 .541686
5 1 .004507 .581466 .434528
6 1 .488686 .485957 .993332
7 1 .524902 .434320 .012040
ITEM: TIMESTEP
100
ITEM: NUMBER OF ATOMS
7
ITEM: BOX BOUNDS ss ss ss
-3.0579 3.1873
-2.9563 3.1979
-2.1004 1.8322
ITEM: ATOMS id type xs ys zs
1 1 .487316 .993508 .430065
2 1 .991027 .643911 .509564
3 1 .829774 .038782 .582704
4 1 .222206 .005602 .539940
5 1 .007272 .581017 .433115
6 1 .489926 .485106 .989734
7 1 .525553 .433457 .012146
ITEM: TIMESTEP
150
ITEM: NUMBER OF ATOMS
7
ITEM: BOX BOUNDS ss ss ss
-3.0669 3.1873
-2.9696 3.2112
-2.1009 1.8348
ITEM: ATOMS id type xs ys zs
1 1 .487931 .990898 .430257
2 1 .992047 .643017 .509880
3 1 .829144 .041313 .583280
4 1 .222734 .007593 .539648
5 1 .008538 .581086 .432934
6 1 .490666 .484746 .987858
7 1 .526087 .433123 .012375
ITEM: TIMESTEP
200
ITEM: NUMBER OF ATOMS
7
ITEM: BOX BOUNDS ss ss ss
-3.0632 3.1873
-2.9661 3.2003
-2.1004 1.8346
ITEM: ATOMS id type xs ys zs
1 1 .487846 .991611 .429523
2 1 .993421 .643814 .510726
3 1 .828096 .041071 .584753
4 1 .221602 .007265 .537597
5 1 .008193 .583038 .432761
6 1 .491028 .485931 .986591
7 1 .525868 .432895 .011448
ITEM: TIMESTEP
250
ITEM: NUMBER OF ATOMS
7
ITEM: BOX BOUNDS ss ss ss
-3.0606 3.1980
-2.9670 3.1992
-2.1041 1.8290
ITEM: ATOMS id type xs ys zs
1 1 .486473 .991195 .431122
2 1 .992847 .643484 .512246
3 1 .825736 .040922 .586056
4 1 .221027 .007543 .537811
5 1 .007991 .583724 .433748
6 1 .490264 .486656 .987482
7 1 .525161 .432437 .011939
ITEM: TIMESTEP
300
ITEM: NUMBER OF ATOMS
7
ITEM: BOX BOUNDS ss ss ss
-3.0683 3.2047
-2.9699 3.1921
-2.1030 1.8261
ITEM: ATOMS id type xs ys zs
1 1 .485775 .991582 .431814
2 1 .992588 .643959 .512795
3 1 .824878 .041431 .585997
4 1 .222016 .008029 .537254
5 1 .008998 .584681 .433121
6 1 .490354 .487128 .987825
7 1 .525414 .433272 .011497
ITEM: TIMESTEP
350
ITEM: NUMBER OF ATOMS
7
ITEM: BOX BOUNDS ss ss ss
-3.0646 3.2137
-2.9749 3.1953
-2.1099 1.8247
ITEM: ATOMS id type xs ys zs
1 1 .484617 .990309 .433642
2 1 .991703 .643388 .514305
3 1 .823551 .042142 .586843
4 1 .221492 .008873 .538060
5 1 .008778 .584807 .434320
6 1 .489474 .486496 .988198
7 1 .524858 .433505 .012659
ITEM: TIMESTEP
400
ITEM: NUMBER OF ATOMS
7
ITEM: BOX BOUNDS ss ss ss
-3.0643 3.2155
-2.9766 3.1792
-2.1112 1.8367
ITEM: ATOMS id type xs ys zs
1 1 .484368 .992318 .432636
2 1 .991974 .644451 .512860
3 1 .823484 .042816 .585499
4 1 .221464 .009372 .536213
5 1 .009064 .586828 .433742
6 1 .489758 .487582 .985360
7 1 .524958 .434766 .012262
ITEM: TIMESTEP
1
ITEM: NUMBER OF ATOMS
7
ITEM: BOX BOUNDS ss ss ss
-3.0346 3.1939
-2.9466 3.1546
-2.1004 1.8223
ITEM: ATOMS id type xs ys zs
1 1 .485066 .999372 .430790
2 1 .988785 .648072 .510602
3 1 .829786 .037612 .584129
4 1 .219151 .004551 .541190
5 1 .003228 .585034 .434459
6 1 .487683 .488211 .992917
7 1 .523846 .436180 .011781
ITEM: TIMESTEP
50
ITEM: NUMBER OF ATOMS
7
ITEM: BOX BOUNDS ss ss ss
-3.0423 3.1939
-2.9477 3.1855
-2.1004 1.8223
ITEM: ATOMS id type xs ys zs
1 1 .486099 .995435 .430729
2 1 .988691 .644958 .510388
3 1 .829791 .037067 .584102
4 1 .220123 .004327 .541407
5 1 .004548 .581489 .434355
6 1 .488207 .485982 .992868
7 1 .524383 .434346 .012103
ITEM: TIMESTEP
100
ITEM: NUMBER OF ATOMS
7
ITEM: BOX BOUNDS ss ss ss
-3.0568 3.1939
-2.9644 3.2018
-2.1004 1.8331
ITEM: ATOMS id type xs ys zs
1 1 .486934 .993771 .429337
2 1 .989681 .644076 .509773
3 1 .829269 .040186 .582452
4 1 .222720 .007026 .539591
5 1 .006819 .581184 .433209
6 1 .489432 .485942 .989902
7 1 .524896 .433825 .012334
ITEM: TIMESTEP
150
ITEM: NUMBER OF ATOMS
7
ITEM: BOX BOUNDS ss ss ss
-3.0491 3.1939
-2.9641 3.2067
-2.1004 1.8252
ITEM: ATOMS id type xs ys zs
1 1 .486383 .992672 .430020
2 1 .990508 .643618 .511226
3 1 .828484 .040227 .583546
4 1 .222556 .007110 .540318
5 1 .005503 .581415 .433991
6 1 .489166 .486018 .991092
7 1 .523799 .432881 .012215
ITEM: TIMESTEP
200
ITEM: NUMBER OF ATOMS
7
ITEM: BOX BOUNDS ss ss ss
-3.0607 3.1939
-2.9701 3.2043
-2.1004 1.8333
ITEM: ATOMS id type xs ys zs
1 1 .487919 .992291 .428873
2 1 .990975 .643610 .509874
3 1 .828672 .041457 .581176
4 1 .223782 .008490 .541033
5 1 .007052 .582849 .433798
6 1 .489821 .486886 .988006
7 1 .524271 .432609 .011291
ITEM: TIMESTEP
250
ITEM: NUMBER OF ATOMS
7
ITEM: BOX BOUNDS ss ss ss
-3.0607 3.1939
-2.9637 3.2005
-2.1042 1.8308
ITEM: ATOMS id type xs ys zs
1 1 .487600 .992129 .429295
2 1 .991471 .643569 .510691
3 1 .828234 .041145 .581289
4 1 .223907 .008393 .542014
5 1 .006593 .583272 .433710
6 1 .490307 .487045 .987530
7 1 .523848 .432370 .011110
ITEM: TIMESTEP
300
ITEM: NUMBER OF ATOMS
7
ITEM: BOX BOUNDS ss ss ss
-3.0704 3.1939
-2.9578 3.1983
-2.1045 1.8335
ITEM: ATOMS id type xs ys zs
1 1 .486944 .991313 .428724
2 1 .992074 .644457 .510933
3 1 .827512 .040293 .581426
4 1 .224621 .007954 .540900
5 1 .007671 .583007 .433336
6 1 .492088 .487199 .985642
7 1 .524123 .432495 .010336
ITEM: TIMESTEP
350
ITEM: NUMBER OF ATOMS
7
ITEM: BOX BOUNDS ss ss ss
-3.0662 3.1939
-2.9659 3.1945
-2.1152 1.8258
ITEM: ATOMS id type xs ys zs
1 1 .485843 .991564 .430756
2 1 .992716 .645206 .513622
3 1 .827244 .041984 .583693
4 1 .224015 .009575 .543923
5 1 .007035 .584362 .435496
6 1 .491622 .488282 .987012
7 1 .523964 .433694 .012536
ITEM: TIMESTEP
400
ITEM: NUMBER OF ATOMS
7
ITEM: BOX BOUNDS ss ss ss
-3.0710 3.2055
-2.9585 3.1868
-2.1185 1.8288
ITEM: ATOMS id type xs ys zs
1 1 .485468 .992847 .430167
2 1 .991551 .645035 .514125
3 1 .826964 .041854 .582905
4 1 .224712 .008887 .545211
5 1 .007883 .585805 .435029
6 1 .490467 .488611 .986346
7 1 .523818 .433691 .013594
ITEM: TIMESTEP
1
ITEM: NUMBER OF ATOMS
7
ITEM: BOX BOUNDS ss ss ss
-3.0453 3.1939
-2.9466 3.1705
-2.1004 1.8223
ITEM: ATOMS id type xs ys zs
1 1 .485948 .996778 .430800
2 1 .988803 .646391 .510599
3 1 .830078 .037511 .584132
4 1 .220485 .004538 .541190
5 1 .004933 .583515 .434451
6 1 .488556 .486941 .992913
7 1 .524662 .435048 .011778
ITEM: TIMESTEP
50
ITEM: NUMBER OF ATOMS
7
ITEM: BOX BOUNDS ss ss ss
-3.0453 3.1939
-2.9497 3.1860
-2.1004 1.8228
ITEM: ATOMS id type xs ys zs
1 1 .486468 .995396 .430779
2 1 .988680 .645038 .510166
3 1 .829831 .037353 .584133
4 1 .220494 .004607 .541452
5 1 .005025 .581561 .434229
6 1 .488456 .486116 .992762
7 1 .524658 .434559 .012013
ITEM: TIMESTEP
100
ITEM: NUMBER OF ATOMS
7
ITEM: BOX BOUNDS ss ss ss
-3.0519 3.1939
-2.9569 3.2010
-2.1004 1.8282
ITEM: ATOMS id type xs ys zs
1 1 .487034 .993637 .431344
2 1 .989987 .644162 .510515
3 1 .829389 .039619 .582999
4 1 .221717 .005610 .540709
5 1 .005465 .580547 .433482
6 1 .489182 .485426 .989748
7 1 .524314 .433759 .012297
ITEM: TIMESTEP
150
ITEM: NUMBER OF ATOMS
7
ITEM: BOX BOUNDS ss ss ss
-3.0636 3.1939
-2.9602 3.2034
-2.1004 1.8261
ITEM: ATOMS id type xs ys zs
1 1 .487782 .993811 .432490
2 1 .991040 .644333 .511500
3 1 .829666 .041475 .582940
4 1 .223341 .006094 .540685
5 1 .006440 .580406 .433230
6 1 .490469 .485734 .988504
7 1 .524634 .433873 .012830
ITEM: TIMESTEP
200
ITEM: NUMBER OF ATOMS
7
ITEM: BOX BOUNDS ss ss ss
-3.0735 3.1939
-2.9793 3.2133
-2.1004 1.8223
ITEM: ATOMS id type xs ys zs
1 1 .488378 .992355 .433590
2 1 .991971 .644840 .512307
3 1 .829404 .044599 .583081
4 1 .224898 .009347 .540572
5 1 .007969 .581550 .432215
6 1 .491120 .487093 .988483
7 1 .525454 .435048 .012696
ITEM: TIMESTEP
250
ITEM: NUMBER OF ATOMS
7
ITEM: BOX BOUNDS ss ss ss
-3.0766 3.1950
-2.9787 3.2179
-2.1048 1.8223
ITEM: ATOMS id type xs ys zs
1 1 .488563 .991346 .435252
2 1 .992757 .644871 .513218
3 1 .829154 .044422 .582306
4 1 .225009 .010026 .540981
5 1 .008656 .582364 .430669
6 1 .491329 .486607 .987860
7 1 .525980 .435135 .013741
ITEM: TIMESTEP
300
ITEM: NUMBER OF ATOMS
7
ITEM: BOX BOUNDS ss ss ss
-3.0759 3.1997
-2.9709 3.2107
-2.1004 1.8223
ITEM: ATOMS id type xs ys zs
1 1 .488206 .992164 .434883
2 1 .992207 .645472 .513192
3 1 .828132 .043770 .580766
4 1 .223940 .009165 .540768
5 1 .008629 .583221 .428998
6 1 .490465 .486240 .987352
7 1 .525551 .434845 .012179
ITEM: TIMESTEP
350
ITEM: NUMBER OF ATOMS
7
ITEM: BOX BOUNDS ss ss ss
-3.0763 3.2022
-2.9784 3.2136
-2.1040 1.8223
ITEM: ATOMS id type xs ys zs
1 1 .488759 .991207 .434667
2 1 .992114 .645365 .514713
3 1 .827004 .045525 .580942
4 1 .223253 .010604 .541345
5 1 .008786 .583992 .428829
6 1 .489928 .486739 .987219
7 1 .525254 .434824 .012621
ITEM: TIMESTEP
400
ITEM: NUMBER OF ATOMS
7
ITEM: BOX BOUNDS ss ss ss
-3.0829 3.2071
-2.9816 3.2077
-2.1039 1.8238
ITEM: ATOMS id type xs ys zs
1 1 .489441 .991703 .434285
2 1 .991642 .645580 .516463
3 1 .826099 .046685 .580767
4 1 .223347 .011547 .540969
5 1 .009803 .585178 .428203
6 1 .489654 .487691 .987752
7 1 .525297 .435055 .012522
ITEM: TIMESTEP
1
ITEM: NUMBER OF ATOMS
7
ITEM: BOX BOUNDS ss ss ss
-3.0692 3.1939
-2.9466 3.1849
-2.1004 1.8223
ITEM: ATOMS id type xs ys zs
1 1 .487912 .994433 .430791
2 1 .988842 .644867 .510607
3 1 .830727 .037424 .584129
4 1 .223466 .004524 .541189
5 1 .008736 .582139 .434453
6 1 .490514 .485797 .992912
7 1 .526480 .434023 .011782
ITEM: TIMESTEP
50
ITEM: NUMBER OF ATOMS
7
ITEM: BOX BOUNDS ss ss ss
-3.0692 3.1939
-2.9494 3.1849
-2.1004 1.8223
ITEM: ATOMS id type xs ys zs
1 1 .488405 .995594 .430803
2 1 .988617 .645133 .510345
3 1 .830576 .037199 .584132
4 1 .223379 .004495 .541405
5 1 .008853 .581551 .434254
6 1 .490390 .486231 .992823
7 1 .526493 .434745 .012018
ITEM: TIMESTEP
100
ITEM: NUMBER OF ATOMS
7
ITEM: BOX BOUNDS ss ss ss
-3.0692 3.1939
-2.9608 3.2022
-2.1004 1.8293
ITEM: ATOMS id type xs ys zs
1 1 .488323 .993396 .430231
2 1 .989655 .643918 .510335
3 1 .829610 .039049 .584072
4 1 .223373 .006314 .540442
5 1 .008661 .580366 .433653
6 1 .490480 .485592 .990349
7 1 .525588 .433947 .011474
ITEM: TIMESTEP
150
ITEM: NUMBER OF ATOMS
7
ITEM: BOX BOUNDS ss ss ss
-3.0692 3.1939
-2.9675 3.2040
-2.1004 1.8280
ITEM: ATOMS id type xs ys zs
1 1 .488531 .992830 .429030
2 1 .990386 .643818 .511388
3 1 .828994 .040360 .584427
4 1 .223411 .007788 .540041
5 1 .008140 .580579 .435225
6 1 .490520 .485695 .989538
7 1 .525154 .433364 .011154
ITEM: TIMESTEP
200
ITEM: NUMBER OF ATOMS
7
ITEM: BOX BOUNDS ss ss ss
-3.0692 3.1939
-2.9647 3.2046
-2.1004 1.8318
ITEM: ATOMS id type xs ys zs
1 1 .488186 .991895 .425672
2 1 .990391 .642091 .513002
3 1 .828569 .040253 .582064
4 1 .225735 .008301 .539727
5 1 .007825 .581073 .438426
6 1 .490066 .486337 .989059
7 1 .524524 .432645 .010704
ITEM: TIMESTEP
250
ITEM: NUMBER OF ATOMS
7
ITEM: BOX BOUNDS ss ss ss
-3.0708 3.1939
-2.9580 3.1959
-2.1004 1.8301
ITEM: ATOMS id type xs ys zs
1 1 .487715 .992973 .424793
2 1 .991350 .642124 .513259
3 1 .827865 .040425 .582390
4 1 .226554 .007374 .541033
5 1 .008014 .582057 .440707
6 1 .490822 .487413 .989801
7 1 .524302 .432861 .010328
ITEM: TIMESTEP
300
ITEM: NUMBER OF ATOMS
7
ITEM: BOX BOUNDS ss ss ss
-3.0709 3.1939
-2.9592 3.1998
-2.1042 1.8475
ITEM: ATOMS id type xs ys zs
1 1 .486786 .991844 .424406
2 1 .992620 .641373 .511487
3 1 .827411 .041801 .581390
4 1 .226503 .007893 .539598
5 1 .007846 .581809 .440004
6 1 .491318 .487672 .985011
7 1 .524489 .433470 .010879
ITEM: TIMESTEP
350
ITEM: NUMBER OF ATOMS
7
ITEM: BOX BOUNDS ss ss ss
-3.0692 3.1957
-2.9661 3.1974
-2.1078 1.8319
ITEM: ATOMS id type xs ys zs
1 1 .485340 .991346 .428934