ITEM: TIMESTEP
1
ITEM: NUMBER OF ATOMS
7
ITEM: BOX BOUNDS ss ss ss
-3.0185 3.1286
-2.9227 3.1549
-2.0579 1.7983
ITEM: ATOMS id type xs ys zs
1 1 .488850 .999361 .427280
2 1 .999087 .646587 .508204
3 1 .838100 .033751 .583428
4 1 .219351 .000571 .539368
5 1 .000738 .583401 .430766
6 1 .491214 .486360 .999168
7 1 .528229 .434097 .000953
ITEM: TIMESTEP
50
ITEM: NUMBER OF ATOMS
7
ITEM: BOX BOUNDS ss ss ss
-3.0451 3.1547
-2.9489 3.1804
-2.0795 1.8234
ITEM: ATOMS id type xs ys zs
1 1 .489997 .995275 .425903
2 1 .996165 .644358 .505074
3 1 .832013 .038273 .581802
4 1 .223031 .004731 .536290
5 1 .005508 .582433 .431003
6 1 .491673 .484525 .991197
7 1 .527178 .434708 .005387
ITEM: TIMESTEP
100
ITEM: NUMBER OF ATOMS
7
ITEM: BOX BOUNDS ss ss ss
-3.0478 3.1739
-2.9562 3.1919
-2.0922 1.8288
ITEM: ATOMS id type xs ys zs
1 1 .484954 .993114 .425565
2 1 .992269 .646098 .510885
3 1 .832737 .039897 .580866
4 1 .221902 .004982 .539894
5 1 .004155 .581172 .431009
6 1 .491107 .485796 .989062
7 1 .524520 .434277 .012555
ITEM: TIMESTEP
150
ITEM: NUMBER OF ATOMS
7
ITEM: BOX BOUNDS ss ss ss
-3.0536 3.1825
-2.9573 3.1853
-2.0948 1.8285
ITEM: ATOMS id type xs ys zs
1 1 .485595 .990518 .424065
2 1 .992626 .644917 .510195
3 1 .830277 .040865 .583839
4 1 .225994 .006000 .539660
5 1 .003647 .584526 .430793
6 1 .493251 .484666 .983103
7 1 .525457 .431971 .009874
ITEM: TIMESTEP
200
ITEM: NUMBER OF ATOMS
7
ITEM: BOX BOUNDS ss ss ss
-3.0646 3.1818
-2.9581 3.1821
-2.0986 1.8336
ITEM: ATOMS id type xs ys zs
1 1 .487206 .991263 .431097
2 1 .995839 .645352 .513464
3 1 .830819 .037579 .585028
4 1 .224382 .004766 .541025
5 1 .009588 .587819 .443776
6 1 .490669 .484213 .991770
7 1 .525746 .430624 .015216
ITEM: TIMESTEP
250
ITEM: NUMBER OF ATOMS
7
ITEM: BOX BOUNDS ss ss ss
-3.0527 3.1936
-2.9619 3.1683
-2.1045 1.8282
ITEM: ATOMS id type xs ys zs
1 1 .484606 .994703 .428833
2 1 .991220 .645188 .510803
3 1 .829978 .040918 .585562
4 1 .225477 .008790 .542105
5 1 .006724 .589007 .435649
6 1 .493463 .484967 .990371
7 1 .524015 .433752 .009382
ITEM: TIMESTEP
300
ITEM: NUMBER OF ATOMS
7
ITEM: BOX BOUNDS ss ss ss
-3.0625 3.1944
-2.9610 3.1608
-2.0994 1.8349
ITEM: ATOMS id type xs ys zs
1 1 .484309 .994104 .428979
2 1 .993810 .647416 .507014
3 1 .826747 .041238 .581081
4 1 .225361 .005409 .536793
5 1 .010621 .590866 .432078
6 1 .492987 .487062 .985693
7 1 .524479 .432220 .008324
ITEM: TIMESTEP
350
ITEM: NUMBER OF ATOMS
7
ITEM: BOX BOUNDS ss ss ss
-3.0539 3.1926
-2.9508 3.1506
-2.1041 1.8353
ITEM: ATOMS id type xs ys zs
1 1 .481480 .993053 .434693
2 1 .990434 .646105 .515460
3 1 .830785 .041098 .583340
4 1 .223679 .008862 .542099
5 1 .006587 .590980 .437929
6 1 .490843 .485834 .988998
7 1 .522383 .430664 .010892
ITEM: TIMESTEP
400
ITEM: NUMBER OF ATOMS
7
ITEM: BOX BOUNDS ss ss ss
-3.0566 3.2000
-2.9452 3.1455
-2.1102 1.8478
ITEM: ATOMS id type xs ys zs
1 1 .481783 .994206 .433633
2 1 .990118 .645093 .515357
3 1 .830961 .038495 .579663
4 1 .222959 .008489 .539933
5 1 .007787 .591277 .435107
6 1 .490949 .484194 .985258
7 1 .520695 .430462 .012602
ITEM: TIMESTEP
1
ITEM: NUMBER OF ATOMS
7
ITEM: BOX BOUNDS ss ss ss
-3.0386 3.1847
-2.9243 3.1546
-2.0943 1.8255
ITEM: ATOMS id type xs ys zs
1 1 .486416 .999403 .429387
2 1 .990572 .646641 .509776
3 1 .831071 .034163 .582964
4 1 .220058 .000806 .540427
5 1 .003885 .583558 .432654
6 1 .488943 .486205 .991539
7 1 .524599 .434158 .009979
ITEM: TIMESTEP
50
ITEM: NUMBER OF ATOMS
7
ITEM: BOX BOUNDS ss ss ss
-3.0458 3.1847
-2.9461 3.1792
-2.0943 1.8255
ITEM: ATOMS id type xs ys zs
1 1 .486090 .994771 .428403
2 1 .991029 .644401 .512718
3 1 .830991 .037496 .583739
4 1 .220196 .001857 .540004
5 1 .004640 .582651 .432166
6 1 .491307 .487611 .989335
7 1 .525604 .434222 .007113
ITEM: TIMESTEP
100
ITEM: NUMBER OF ATOMS
7
ITEM: BOX BOUNDS ss ss ss
-3.0639 3.1847
-2.9579 3.1929
-2.0943 1.8293
ITEM: ATOMS id type xs ys zs
1 1 .486299 .993208 .428316
2 1 .989306 .643150 .513684
3 1 .828251 .040038 .578413
4 1 .225028 .002658 .535527
5 1 .007314 .583420 .428776
6 1 .489969 .484987 .992886
7 1 .526473 .433698 .009121
ITEM: TIMESTEP
150
ITEM: NUMBER OF ATOMS
7
ITEM: BOX BOUNDS ss ss ss
-3.0627 3.1847
-2.9603 3.1982
-2.0954 1.8296
ITEM: ATOMS id type xs ys zs
1 1 .486500 .994332 .429733
2 1 .992777 .642523 .508357
3 1 .829699 .045256 .583232
4 1 .225774 .006317 .538702
5 1 .007245 .581780 .435696
6 1 .491608 .487280 .991739
7 1 .524474 .432744 .012701
ITEM: TIMESTEP
200
ITEM: NUMBER OF ATOMS
7
ITEM: BOX BOUNDS ss ss ss
-3.0580 3.1897
-2.9605 3.1856
-2.1015 1.8318
ITEM: ATOMS id type xs ys zs
1 1 .484702 .991561 .431420
2 1 .995563 .645212 .510212
3 1 .833261 .039508 .580006
4 1 .228475 .009799 .540950
5 1 .009658 .583116 .428035
6 1 .494388 .488205 .989015
7 1 .525371 .432395 .009023
ITEM: TIMESTEP
250
ITEM: NUMBER OF ATOMS
7
ITEM: BOX BOUNDS ss ss ss
-3.0651 3.1996
-2.9612 3.1845
-2.1080 1.8255
ITEM: ATOMS id type xs ys zs
1 1 .485500 .991167 .430195
2 1 .995346 .644575 .513252
3 1 .831784 .038465 .580895
4 1 .227487 .009404 .541203
5 1 .011185 .581798 .428675
6 1 .494913 .487485 .992027
7 1 .525013 .432137 .009746
ITEM: TIMESTEP
300
ITEM: NUMBER OF ATOMS
7
ITEM: BOX BOUNDS ss ss ss
-3.0694 3.2047
-2.9588 3.1766
-2.1109 1.8290
ITEM: ATOMS id type xs ys zs
1 1 .485365 .990035 .433769
2 1 .991760 .640474 .512762
3 1 .833216 .042113 .584624
4 1 .231634 .007139 .544772
5 1 .011744 .587318 .429528
6 1 .492577 .489515 .990220
7 1 .526950 .431747 .013433
ITEM: TIMESTEP
350
ITEM: NUMBER OF ATOMS
7
ITEM: BOX BOUNDS ss ss ss
-3.0530 3.2103
-2.9583 3.1718
-2.1160 1.8362
ITEM: ATOMS id type xs ys zs
1 1 .482840 .990554 .434865
2 1 .992445 .642501 .510098
3 1 .832259 .040506 .575652
4 1 .229015 .006324 .550167
5 1 .006658 .585670 .426475
6 1 .490464 .487499 .990794
7 1 .523332 .430926 .011990
ITEM: TIMESTEP
400
ITEM: NUMBER OF ATOMS
7
ITEM: BOX BOUNDS ss ss ss
-3.0598 3.2140
-2.9561 3.1619
-2.1202 1.8385
ITEM: ATOMS id type xs ys zs
1 1 .485752 .993762 .426859
2 1 .990310 .646049 .515812
3 1 .826421 .042790 .588990
4 1 .223473 .006924 .540600
5 1 .010941 .587256 .430920
6 1 .490207 .488316 .986752
7 1 .525624 .432013 .009474
ITEM: TIMESTEP
1
ITEM: NUMBER OF ATOMS
7
ITEM: BOX BOUNDS ss ss ss
-3.0454 3.2042
-2.9270 3.1544
-2.0964 1.8205
ITEM: ATOMS id type xs ys zs
1 1 .485276 .999116 .430476
2 1 .987334 .646813 .510677
3 1 .828753 .034693 .583980
4 1 .220184 .001304 .540689
5 1 .005283 .583853 .434071
6 1 .487909 .486434 .993135
7 1 .523617 .434430 .010681
ITEM: TIMESTEP
50
ITEM: NUMBER OF ATOMS
7
ITEM: BOX BOUNDS ss ss ss
-3.0454 3.2042
-2.9467 3.1942
-2.0964 1.8207
ITEM: ATOMS id type xs ys zs
1 1 .486123 .991647 .431313
2 1 .985827 .642896 .510167
3 1 .828785 .037598 .585815
4 1 .220495 .004836 .540508
5 1 .004918 .582143 .434866
6 1 .489043 .485045 .994896
7 1 .523542 .433593 .010481
ITEM: TIMESTEP
100
ITEM: NUMBER OF ATOMS
7
ITEM: BOX BOUNDS ss ss ss
-3.0504 3.2042
-2.9583 3.1902
-2.0964 1.8249
ITEM: ATOMS id type xs ys zs
1 1 .484326 .994390 .432571
2 1 .989654 .644804 .507556
3 1 .826721 .041992 .586325
4 1 .220846 .006549 .540306
5 1 .004543 .583635 .438064
6 1 .489019 .487416 .991478
7 1 .521034 .434165 .008154
ITEM: TIMESTEP
150
ITEM: NUMBER OF ATOMS
7
ITEM: BOX BOUNDS ss ss ss
-3.0548 3.2042
-2.9536 3.1903
-2.1001 1.8239
ITEM: ATOMS id type xs ys zs
1 1 .483675 .992209 .431690
2 1 .989912 .645076 .513601
3 1 .828125 .036838 .581407
4 1 .221232 .007399 .538582
5 1 .007966 .583394 .435259
6 1 .489449 .484518 .989134
7 1 .524438 .432365 .008877
ITEM: TIMESTEP
200
ITEM: NUMBER OF ATOMS
7
ITEM: BOX BOUNDS ss ss ss
-3.0572 3.2042
-2.9571 3.1767
-2.1110 1.8281
ITEM: ATOMS id type xs ys zs
1 1 .482100 .989579 .434228
2 1 .987755 .642381 .510468
3 1 .825346 .040546 .585143
4 1 .221861 .005916 .548052
5 1 .006182 .583083 .440726
6 1 .488933 .487382 .988164
7 1 .520060 .432407 .011508
ITEM: TIMESTEP
250
ITEM: NUMBER OF ATOMS
7
ITEM: BOX BOUNDS ss ss ss
-3.0701 3.2042
-2.9577 3.1734
-2.1125 1.8213
ITEM: ATOMS id type xs ys zs
1 1 .483937 .988927 .433417
2 1 .989384 .642616 .513448
3 1 .823587 .041673 .586966
4 1 .222367 .004751 .549447
5 1 .007905 .582330 .440111
6 1 .491291 .488326 .992040
7 1 .520895 .432053 .008257
ITEM: TIMESTEP
300
ITEM: NUMBER OF ATOMS
7
ITEM: BOX BOUNDS ss ss ss
-3.0678 3.2081
-2.9505 3.1737
-2.1143 1.8378
ITEM: ATOMS id type xs ys zs
1 1 .485120 .988868 .430206
2 1 .988407 .640088 .508777
3 1 .822770 .040824 .585058
4 1 .222261 .004269 .548104
5 1 .007393 .579719 .439472
6 1 .490718 .486912 .987423
7 1 .520696 .433898 .006990
ITEM: TIMESTEP
350
ITEM: NUMBER OF ATOMS
7
ITEM: BOX BOUNDS ss ss ss
-3.0575 3.2047
-2.9482 3.1844
-2.1102 1.8310
ITEM: ATOMS id type xs ys zs
1 1 .479176 .989156 .426945
2 1 .990556 .643715 .504340
3 1 .826632 .038140 .591590
4 1 .220907 .008481 .541897
5 1 .004707 .585944 .434346
6 1 .493275 .483572 .992855
7 1 .526632 .430466 .012218
ITEM: TIMESTEP
400
ITEM: NUMBER OF ATOMS
7
ITEM: BOX BOUNDS ss ss ss
-3.0537 3.2129
-2.9457 3.1688
-2.1170 1.8370
ITEM: ATOMS id type xs ys zs
1 1 .481930 .990452 .437796
2 1 .992269 .649107 .516344
3 1 .824945 .038562 .591642
4 1 .222650 .012872 .540377
5 1 .009737 .591074 .434473
6 1 .491119 .485498 .991780
7 1 .525957 .430577 .011216
ITEM: TIMESTEP
1
ITEM: NUMBER OF ATOMS
7
ITEM: BOX BOUNDS ss ss ss
-3.0454 3.2042
-2.9270 3.1547
-2.0964 1.8286
ITEM: ATOMS id type xs ys zs
1 1 .485202 .999217 .429311
2 1 .987180 .647380 .508887
3 1 .829026 .034460 .582619
4 1 .220252 .001322 .539822
5 1 .005143 .583803 .433036
6 1 .487953 .486587 .991418
7 1 .523608 .434144 .010969
ITEM: TIMESTEP
50
ITEM: NUMBER OF ATOMS
7
ITEM: BOX BOUNDS ss ss ss
-3.0454 3.2042
-2.9496 3.1812
-2.0964 1.8286
ITEM: ATOMS id type xs ys zs
1 1 .484456 .994798 .429056
2 1 .987013 .646411 .509364
3 1 .828644 .037829 .582317
4 1 .219713 .005950 .542496
5 1 .006454 .577800 .433062
6 1 .488391 .484573 .992867
7 1 .522055 .433376 .011083
ITEM: TIMESTEP
100
ITEM: NUMBER OF ATOMS
7
ITEM: BOX BOUNDS ss ss ss
-3.0489 3.2042
-2.9530 3.2052
-2.0964 1.8290
ITEM: ATOMS id type xs ys zs
1 1 .485558 .989496 .428199
2 1 .988442 .642428 .507811
3 1 .823803 .040763 .582690
4 1 .221105 .004902 .543624
5 1 .002714 .580125 .433726
6 1 .486161 .484210 .989581
7 1 .522259 .435937 .009480
ITEM: TIMESTEP
150
ITEM: NUMBER OF ATOMS
7
ITEM: BOX BOUNDS ss ss ss
-3.0546 3.2042
-2.9624 3.1895
-2.0964 1.8374
ITEM: ATOMS id type xs ys zs
1 1 .487342 .996284 .423915
2 1 .990090 .648347 .512497
3 1 .826655 .041279 .584201
4 1 .224180 .007538 .537857
5 1 .006516 .584864 .431926
6 1 .487681 .488531 .986671
7 1 .523777 .433940 .009337
ITEM: TIMESTEP
200
ITEM: NUMBER OF ATOMS
7
ITEM: BOX BOUNDS ss ss ss
-3.0653 3.2042
-2.9658 3.1903
-2.1020 1.8341
ITEM: ATOMS id type xs ys zs
1 1 .485261 .988962 .425656
2 1 .992426 .642875 .509869
3 1 .830472 .041546 .580365
4 1 .222654 .010313 .536161
5 1 .007552 .584865 .438048
6 1 .492413 .485033 .984366
7 1 .525810 .430581 .007580
ITEM: TIMESTEP
250
ITEM: NUMBER OF ATOMS
7
ITEM: BOX BOUNDS ss ss ss
-3.0570 3.2042
-2.9710 3.1811
-2.1124 1.8286
ITEM: ATOMS id type xs ys zs
1 1 .483781 .990793 .429587
2 1 .992463 .644011 .511999
3 1 .829861 .041046 .580182
4 1 .218939 .010532 .533880
5 1 .006811 .583494 .437731
6 1 .492781 .486535 .983746
7 1 .524357 .432143 .008748
ITEM: TIMESTEP
300
ITEM: NUMBER OF ATOMS
7
ITEM: BOX BOUNDS ss ss ss
-3.0590 3.2042
-2.9537 3.1714
-2.1060 1.8286
ITEM: ATOMS id type xs ys zs
1 1 .481944 .991175 .426050
2 1 .990629 .642474 .508810
3 1 .830125 .038727 .584881
4 1 .222522 .007829 .533237
5 1 .007021 .587939 .432932
6 1 .491162 .483690 .981745
7 1 .527160 .430192 .010758
ITEM: TIMESTEP
350
ITEM: NUMBER OF ATOMS
7
ITEM: BOX BOUNDS ss ss ss
-3.0613 3.2046
-2.9535 3.1580
-2.1106 1.8318
ITEM: ATOMS id type xs ys zs
1 1 .480570 .989718 .426059
2 1 .990488 .652014 .516971
3 1 .827934 .039072 .580041
4 1 .218281 .007652 .535495
5 1 .007405 .593578 .443856
6 1 .490965 .482503 .989329
7 1 .522104 .431601 .015796
ITEM: TIMESTEP
400
ITEM: NUMBER OF ATOMS
7
ITEM: BOX BOUNDS ss ss ss
-3.0642 3.2173
-2.9451 3.1597
-2.1104 1.8283
ITEM: ATOMS id type xs ys zs
1 1 .480181 .989652 .426291
2 1 .986108 .651433 .516009
3 1 .826053 .039019 .583033
4 1 .218651 .007045 .540713
5 1 .007338 .592528 .446693
6 1 .487866 .480616 .989726
7 1 .521929 .432366 .016982
ITEM: TIMESTEP
1
ITEM: NUMBER OF ATOMS
7
ITEM: BOX BOUNDS ss ss ss
-3.0454 3.2042
-2.9270 3.1546
-2.0964 1.8205
ITEM: ATOMS id type xs ys zs
1 1 .485193 .999434 .430487
2 1 .987561 .646896 .510167
3 1 .828742 .034621 .583959
4 1 .219971 .001257 .541107
5 1 .004961 .583386 .433577
6 1 .487431 .486580 .993527
7 1 .523940 .434617 .011224
ITEM: TIMESTEP
50
ITEM: NUMBER OF ATOMS
7
ITEM: BOX BOUNDS ss ss ss
-3.0454 3.2042
-2.9493 3.1830
-2.0964 1.8205
ITEM: ATOMS id type xs ys zs
1 1 .485320 .996154 .431601
2 1 .986215 .647500 .511160
3 1 .830136 .038255 .583191
4 1 .221563 .003462 .543280
5 1 .003648 .581231 .435066
6 1 .487126 .487336 .994699
7 1 .524449 .435399 .009844
ITEM: TIMESTEP
100
ITEM: NUMBER OF ATOMS
7
ITEM: BOX BOUNDS ss ss ss
-3.0538 3.2042
-2.9611 3.1977
-2.0964 1.8290
ITEM: ATOMS id type xs ys zs
1 1 .487767 .992625 .429639
2 1 .987722 .645018 .512524
3 1 .828300 .042005 .579352
4 1 .220464 .004981 .538370
5 1 .007626 .580841 .430082
6 1 .492054 .486400 .987247
7 1 .524222 .433800 .016864
ITEM: TIMESTEP
150
ITEM: NUMBER OF ATOMS
7
ITEM: BOX BOUNDS ss ss ss
-3.0585 3.2042
-2.9705 3.2013
-2.0964 1.8313
ITEM: ATOMS id type xs ys zs
1 1 .483455 .993837 .422150
2 1 .988045 .646137 .514437
3 1 .828376 .043282 .582853
4 1 .222159 .007770 .538645
5 1 .008822 .585383 .429322
6 1 .487078 .484795 .988199
7 1 .525850 .436457 .009939
ITEM: TIMESTEP
200
ITEM: NUMBER OF ATOMS
7
ITEM: BOX BOUNDS ss ss ss
-3.0607 3.2042
-2.9696 3.2005
-2.0976 1.8395
ITEM: ATOMS id type xs ys zs
1 1 .486634 .990949 .431570
2 1 .993988 .643443 .507900
3 1 .825402 .042308 .580385
4 1 .221165 .007871 .541831
5 1 .007632 .582047 .430103
6 1 .487423 .482790 .984789
7 1 .527377 .432821 .013035
ITEM: TIMESTEP
250
ITEM: NUMBER OF ATOMS
7
ITEM: BOX BOUNDS ss ss ss
-3.0789 3.2042
-2.9672 3.1994
-2.1050 1.8450
ITEM: ATOMS id type xs ys zs
1 1 .490266 .988802 .423992
2 1 .990770 .645049 .517167
3 1 .829400 .045741 .576430
4 1 .228600 .008434 .543328
5 1 .011793 .580716 .430010
6 1 .493913 .483537 .986414
7 1 .526076 .435649 .008991
ITEM: TIMESTEP
300
ITEM: NUMBER OF ATOMS
7
ITEM: BOX BOUNDS ss ss ss
-3.0725 3.2042
-2.9682 3.1982
-2.1060 1.8488
ITEM: ATOMS id type xs ys zs
1 1 .490330 .989455 .422654
2 1 .991333 .644114 .516521
3 1 .830390 .044954 .575743
4 1 .226188 .007724 .541238
5 1 .010085 .580187 .430359
6 1 .494578 .486014 .985964
7 1 .527116 .436091 .008169
ITEM: TIMESTEP
350
ITEM: NUMBER OF ATOMS
7
ITEM: BOX BOUNDS ss ss ss
-3.0722 3.2042
-2.9766 3.1808
-2.1189 1.8536
ITEM: ATOMS id type xs ys zs
1 1 .485726 .994170 .439494
2 1 .989092 .641608 .508727
3 1 .828438 .044488 .584315
4 1 .228128 .009865 .535287
5 1 .006732 .586130 .437570
6 1 .493556 .490579 .981160
7 1 .520146 .439922 .014486
ITEM: TIMESTEP
400
ITEM: NUMBER OF ATOMS
7
ITEM: BOX BOUNDS ss ss ss
-3.0859 3.1995
-2.9706 3.1846
-2.1209 1.8556
ITEM: ATOMS id type xs ys zs
1 1 .486869 .988098 .436414
2 1 .990254 .644743 .507089
3 1 .830252 .044841 .578692
4 1 .231345 .009667 .536368
5 1 .010257 .582877 .436961
6 1 .489294 .487221 .987852
7 1 .521902 .436132 .012599
ITEM: TIMESTEP
1
ITEM: NUMBER OF ATOMS
7
ITEM: BOX BOUNDS ss ss ss
-3.0412 3.1723
-2.9397 3.1546
-2.0928 1.8334
ITEM: ATOMS id type xs ys zs
1 1 .487145 .999547 .428913
2 1 .992379 .647355 .508378
3 1 .832630 .036833 .581309
4 1 .220826 .003492 .538621
5 1 .004334 .584158 .432060
6 1 .490039 .487708 .990168
7 1 .526406 .435842 .009463
ITEM: TIMESTEP
50
ITEM: NUMBER OF ATOMS
7
ITEM: BOX BOUNDS ss ss ss
-3.0429 3.1723
-2.9515 3.1850
-2.0928 1.8334
ITEM: ATOMS id type xs ys zs
1 1 .488094 .998247 .429306
2 1 .992497 .643764 .506638
3 1 .832917 .039570 .580200
4 1 .221650 .005734 .541767
5 1 .004449 .582479 .430016
6 1 .487555 .486095 .990061
7 1 .525283 .434173 .011322
ITEM: TIMESTEP
100
ITEM: NUMBER OF ATOMS
7
ITEM: BOX BOUNDS ss ss ss
-3.0462 3.1761
-2.9554 3.1923
-2.0928 1.8355
ITEM: ATOMS id type xs ys zs
1 1 .484296 .993423 .428288
2 1 .991676 .644733 .511185
3 1 .829610 .039673 .574530
4 1 .219172 .008363 .536057
5 1 .004990 .581657 .428303
6 1 .489917 .485080 .986127
7 1 .527219 .432801 .011773
ITEM: TIMESTEP
150
ITEM: NUMBER OF ATOMS
7
ITEM: BOX BOUNDS ss ss ss
-3.0504 3.1725
-2.9549 3.1928
-2.0982 1.8334
ITEM: ATOMS id type xs ys zs
1 1 .485280 .993702 .431536
2 1 .989482 .645667 .512263
3 1 .828052 .036401 .573499
4 1 .220281 .005734 .536347
5 1 .006399 .582430 .429727
6 1 .487890 .485315 .988140
7 1 .528490 .429883 .012930
ITEM: TIMESTEP
200
ITEM: NUMBER OF ATOMS
7
ITEM: BOX BOUNDS ss ss ss
-3.0485 3.1723
-2.9607 3.1976
-2.1114 1.8334
ITEM: ATOMS id type xs ys zs
1 1 .481507 .989987 .436548
2 1 .993908 .643990 .511603
3 1 .831087 .040964 .583487
4 1 .223497 .002162 .541240
5 1 .008511 .580318 .424229
6 1 .493270 .484101 .991820
7 1 .528183 .430357 .009982
ITEM: TIMESTEP
250
ITEM: NUMBER OF ATOMS
7
ITEM: BOX BOUNDS ss ss ss
-3.0441 3.1832
-2.9582 3.1904
-2.1206 1.8334
ITEM: ATOMS id type xs ys zs
1 1 .478683 .991210 .434912
2 1 .991804 .644913 .511761
3 1 .829393 .040593 .581691
4 1 .221846 .000635 .540216
5 1 .010330 .579318 .425397
6 1 .491406 .485890 .994925
7 1 .527796 .431001 .010923
ITEM: TIMESTEP
300
ITEM: NUMBER OF ATOMS
7
ITEM: BOX BOUNDS ss ss ss
-3.0467 3.1937
-2.9564 3.1898
-2.1190 1.8334
ITEM: ATOMS id type xs ys zs
1 1 .484998 .992094 .437251
2 1 .993976 .645691 .509279
3 1 .829781 .046538 .583399
4 1 .223600 .007567 .544859
5 1 .005928 .588104 .431522
6 1 .488051 .482864 .985385
7 1 .519319 .431862 .015177
ITEM: TIMESTEP
350
ITEM: NUMBER OF ATOMS
7
ITEM: BOX BOUNDS ss ss ss
-3.0511 3.1952
-2.9573 3.1810
-2.1172 1.8334
ITEM: ATOMS id type xs ys zs
1 1 .480313 .992625 .435379
2 1 .992654 .647925 .510330
3 1 .828307 .045067 .584553
4 1 .219215 .008809 .535645
5 1 .007669 .586852 .429603
6 1 .493307 .486915 .989538
7 1 .524430 .433466 .015036
ITEM: TIMESTEP
400
ITEM: NUMBER OF ATOMS
7
ITEM: BOX BOUNDS ss ss ss
-3.0540 3.1965
-2.9601 3.1791
-2.1201 1.8416
ITEM: ATOMS id type xs ys zs
1 1 .482152 .990476 .433661
2 1 .994738 .646933 .514303
3 1 .829012 .045992 .578673
4 1 .221344 .008041 .546679
5 1 .002580 .588098 .431058
6 1 .490902 .486752 .984309
7 1 .526305 .436446 .012912
ITEM: TIMESTEP
1
ITEM: NUMBER OF ATOMS
7
ITEM: BOX BOUNDS ss ss ss
-3.0346 3.1873
-2.9328 3.1544
-2.1004 1.8155
ITEM: ATOMS id type xs ys zs
1 1 .485766 .999398 .431045
2 1 .989821 .647365 .511246
3 1 .830844 .035346 .584921
4 1 .219338 .002324 .542113
5 1 .003132 .584092 .435247
6 1 .488137 .487003 .994483
7 1 .524380 .435035 .011663
ITEM: TIMESTEP
50
ITEM: NUMBER OF ATOMS
7
ITEM: BOX BOUNDS ss ss ss
-3.0419 3.1873
-2.9499 3.1880
-2.1004 1.8203
ITEM: ATOMS id type xs ys zs
1 1 .487455 .993511 .431824
2 1 .990324 .644343 .510228
3 1 .829293 .038747 .585643
4 1 .219150 .001958 .538781
5 1 .002629 .581966 .436290
6 1 .487867 .485645 .995518
7 1 .523801 .435317 .012238
ITEM: TIMESTEP
100
ITEM: NUMBER OF ATOMS
7
ITEM: BOX BOUNDS ss ss ss
-3.0579 3.1873
-2.9563 3.1979
-2.1004 1.8322
ITEM: ATOMS id type xs ys zs
1 1 .486600 .992405 .427466
2 1 .990276 .641811 .513845
3 1 .833151 .039848 .583556
4 1 .222371 .004547 .545020
5 1 .006159 .581491 .431686
6 1 .490819 .483515 .984667
7 1 .525997 .431545 .012451
ITEM: TIMESTEP
150
ITEM: NUMBER OF ATOMS
7
ITEM: BOX BOUNDS ss ss ss
-3.0669 3.1873
-2.9696 3.2112
-2.1009 1.8348
ITEM: ATOMS id type xs ys zs
1 1 .486217 .992239 .428989
2 1 .992439 .645031 .508296
3 1 .831635 .038976 .584766
4 1 .222121 .008007 .544455
5 1 .010476 .581177 .437164
6 1 .492476 .480606 .986686
7 1 .528908 .432290 .013788
ITEM: TIMESTEP
200
ITEM: NUMBER OF ATOMS
7
ITEM: BOX BOUNDS ss ss ss
-3.0632 3.1873
-2.9661 3.2003
-2.1004 1.8346
ITEM: ATOMS id type xs ys zs
1 1 .483182 .989623 .432569
2 1 .993190 .639136 .513153
3 1 .828665 .040402 .586625
4 1 .224544 .005579 .530905
5 1 .007926 .584024 .431047
6 1 .493695 .488317 .989112
7 1 .522945 .434067 .009545
ITEM: TIMESTEP
250
ITEM: NUMBER OF ATOMS
7
ITEM: BOX BOUNDS ss ss ss
-3.0606 3.1980
-2.9670 3.1992
-2.1041 1.8290
ITEM: ATOMS id type xs ys zs
1 1 .483588 .988866 .432364
2 1 .995685 .647097 .511817
3 1 .823756 .040217 .581064
4 1 .220166 .005427 .530165
5 1 .007328 .582968 .431881
6 1 .490290 .482279 .985950
7 1 .527597 .431672 .012658
ITEM: TIMESTEP
300
ITEM: NUMBER OF ATOMS
7
ITEM: BOX BOUNDS ss ss ss
-3.0683 3.2047
-2.9699 3.1921
-2.1030 1.8261
ITEM: ATOMS id type xs ys zs
1 1 .483714 .992793 .435053
2 1 .990486 .641927 .508116
3 1 .826598 .042355 .581422
4 1 .222861 .006411 .540342
5 1 .007534 .581565 .430668
6 1 .489716 .487129 .991338
7 1 .525751 .430410 .012364
ITEM: TIMESTEP
350
ITEM: NUMBER OF ATOMS
7
ITEM: BOX BOUNDS ss ss ss
-3.0646 3.2137
-2.9749 3.1953
-2.1099 1.8247
ITEM: ATOMS id type xs ys zs
1 1 .480205 .990188 .433563
2 1 .994016 .640692 .513789
3 1 .826455 .041235 .584499
4 1 .218052 .007079 .533585
5 1 .008662 .585098 .437209
6 1 .491315 .485267 .992869
7 1 .524381 .431227 .014031
ITEM: TIMESTEP
400
ITEM: NUMBER OF ATOMS
7
ITEM: BOX BOUNDS ss ss ss
-3.0643 3.2155
-2.9766 3.1792
-2.1112 1.8367
ITEM: ATOMS id type xs ys zs
1 1 .480498 .989321 .434017
2 1 .993380 .646533 .512380
3 1 .824105 .038984 .580232
4 1 .220902 .011001 .529580
5 1 .010161 .589239 .436336
6 1 .491690 .488555 .991511
7 1 .524282 .436119 .016223
ITEM: TIMESTEP
1
ITEM: NUMBER OF ATOMS
7
ITEM: BOX BOUNDS ss ss ss
-3.0346 3.1939
-2.9466 3.1546
-2.1004 1.8223
ITEM: ATOMS id type xs ys zs
1 1 .485136 .999388 .430603
2 1 .988652 .648257 .510592
3 1 .829869 .037627 .583954
4 1 .219145 .004394 .541220
5 1 .003099 .584965 .434354
6 1 .487728 .487908 .992738
7 1 .523551 .436127 .012120
ITEM: TIMESTEP
50
ITEM: NUMBER OF ATOMS
7
ITEM: BOX BOUNDS ss ss ss
-3.0423 3.1939
-2.9477 3.1855
-2.1004 1.8223
ITEM: ATOMS id type xs ys zs
1 1 .485487 .995246 .429264
2 1 .989927 .646191 .509746
3 1 .831489 .037643 .582607
4 1 .222153 .005461 .539534
5 1 .005919 .580555 .433699
6 1 .488557 .486461 .993254
7 1 .524634 .435079 .012472
ITEM: TIMESTEP
100
ITEM: NUMBER OF ATOMS
7
ITEM: BOX BOUNDS ss ss ss
-3.0568 3.1939
-2.9644 3.2018
-2.1004 1.8331
ITEM: ATOMS id type xs ys zs
1 1 .487136 .995630 .428083
2 1 .991564 .646547 .507384
3 1 .827383 .037943 .580883
4 1 .225041 .006585 .539768
5 1 .007149 .580218 .432771
6 1 .490802 .486423 .987517
7 1 .524320 .437044 .012150
ITEM: TIMESTEP
150
ITEM: NUMBER OF ATOMS
7
ITEM: BOX BOUNDS ss ss ss
-3.0491 3.1939
-2.9641 3.2067
-2.1004 1.8252
ITEM: ATOMS id type xs ys zs
1 1 .485633 .991450 .430169
2 1 .991921 .641662 .513504
3 1 .828012 .037637 .584968
4 1 .221774 .007377 .536715
5 1 .005113 .583008 .437008
6 1 .487537 .484804 .994690
7 1 .523567 .434568 .011821
ITEM: TIMESTEP
200
ITEM: NUMBER OF ATOMS
7
ITEM: BOX BOUNDS ss ss ss
-3.0607 3.1939
-2.9701 3.2043
-2.1004 1.8333
ITEM: ATOMS id type xs ys zs
1 1 .487484 .991858 .427166
2 1 .994432 .646199 .511137
3 1 .829200 .038981 .579365
4 1 .225765 .006328 .537526
5 1 .007598 .583866 .439944
6 1 .493189 .485985 .988553
7 1 .520847 .433897 .015168
ITEM: TIMESTEP
250
ITEM: NUMBER OF ATOMS
7
ITEM: BOX BOUNDS ss ss ss
-3.0607 3.1939
-2.9637 3.2005
-2.1042 1.8308
ITEM: ATOMS id type xs ys zs
1 1 .483126 .989426 .425789
2 1 .991403 .644418 .511370
3 1 .827582 .041580 .581767
4 1 .223003 .008908 .539436
5 1 .006685 .585653 .436169
6 1 .490787 .488819 .984823
7 1 .521971 .432976 .007295
ITEM: TIMESTEP
300
ITEM: NUMBER OF ATOMS
7
ITEM: BOX BOUNDS ss ss ss
-3.0704 3.1939
-2.9578 3.1983
-2.1045 1.8335
ITEM: ATOMS id type xs ys zs
1 1 .485048 .989420 .428117
2 1 .992180 .645214 .509781
3 1 .827230 .039103 .577978
4 1 .223217 .008369 .537085
5 1 .010002 .584582 .435211
6 1 .492987 .491552 .981345
7 1 .523398 .432535 .004849
ITEM: TIMESTEP
350
ITEM: NUMBER OF ATOMS
7
ITEM: BOX BOUNDS ss ss ss
-3.0662 3.1939
-2.9659 3.1945
-2.1152 1.8258
ITEM: ATOMS id type xs ys zs
1 1 .484883 .991217 .429880
2 1 .991660 .644958 .516030
3 1 .823531 .041554 .583123
4 1 .222222 .007394 .544903
5 1 .006802 .586142 .439150
6 1 .494569 .487186 .989244
7 1 .521928 .432234 .011068
ITEM: TIMESTEP
400
ITEM: NUMBER OF ATOMS
7
ITEM: BOX BOUNDS ss ss ss
-3.0710 3.2055
-2.9585 3.1868
-2.1185 1.8288
ITEM: ATOMS id type xs ys zs
1 1 .484931 .995350 .431209
2 1 .988900 .645978 .517382
3 1 .821422 .038843 .583461
4 1 .221214 .006085 .546759
5 1 .007459 .586759 .437938
6 1 .494741 .487126 .991073
7 1 .521487 .431323 .011474
ITEM: TIMESTEP
1
ITEM: NUMBER OF ATOMS
7
ITEM: BOX BOUNDS ss ss ss
-3.0453 3.1939
-2.9466 3.1705
-2.1004 1.8223
ITEM: ATOMS id type xs ys zs
1 1 .485806 .996550 .431726
2 1 .988838 .646523 .510603
3 1 .830134 .037540 .584146
4 1 .220357 .004210 .540857
5 1 .005007 .583724 .434577
6 1 .488448 .487180 .993326
7 1 .524806 .435241 .011694
ITEM: TIMESTEP
50
ITEM: NUMBER OF ATOMS
7
ITEM: BOX BOUNDS ss ss ss
-3.0453 3.1939
-2.9497 3.1860
-2.1004 1.8228
ITEM: ATOMS id type xs ys zs
1 1 .486928 .996348 .434355
2 1 .986905 .645819 .509322
3 1 .829511 .037111 .582991
4 1 .218756 .005904 .538003
5 1 .005089 .581617 .435139
6 1 .487105 .487419 .993799
7 1 .525933 .433261 .012585
ITEM: TIMESTEP
100
ITEM: NUMBER OF ATOMS
7
ITEM: BOX BOUNDS ss ss ss
-3.0519 3.1939
-2.9569 3.2010
-2.1004 1.8282
ITEM: ATOMS id type xs ys zs
1 1 .486816 .994966 .426835
2 1 .989839 .644882 .508625
3 1 .827992 .039219 .583343
4 1 .221825 .003925 .544124
5 1 .006689 .579889 .433391
6 1 .488881 .485370 .989272
7 1 .522326 .436382 .010545
ITEM: TIMESTEP
150
ITEM: NUMBER OF ATOMS
7
ITEM: BOX BOUNDS ss ss ss
-3.0636 3.1939
-2.9602 3.2034
-2.1004 1.8261
ITEM: ATOMS id type xs ys zs
1 1 .487169 .996430 .430739
2 1 .989311 .645034 .515400
3 1 .826518 .039247 .586806
4 1 .222953 .003923 .548911
5 1 .003374 .578386 .432567
6 1 .490183 .486427 .991667
7 1 .523978 .435948 .019246
ITEM: TIMESTEP
200
ITEM: NUMBER OF ATOMS
7
ITEM: BOX BOUNDS ss ss ss
-3.0735 3.1939
-2.9793 3.2133
-2.1004 1.8223
ITEM: ATOMS id type xs ys zs
1 1 .493533 .990551 .433462
2 1 .993669 .643887 .513934
3 1 .833414 .042573 .584623
4 1 .228616 .009627 .542229
5 1 .005858 .578247 .436404
6 1 .489942 .484390 .984716
7 1 .526336 .431841 .010328
ITEM: TIMESTEP
250
ITEM: NUMBER OF ATOMS
7
ITEM: BOX BOUNDS ss ss ss
-3.0766 3.1950
-2.9787 3.2179
-2.1048 1.8223
ITEM: ATOMS id type xs ys zs
1 1 .489777 .991363 .434957
2 1 .992303 .646883 .507158
3 1 .830890 .043912 .586969
4 1 .221768 .012609 .541804
5 1 .008379 .581153 .429972
6 1 .493620 .487870 .987734
7 1 .526097 .435897 .014162
ITEM: TIMESTEP
300
ITEM: NUMBER OF ATOMS
7
ITEM: BOX BOUNDS ss ss ss
-3.0759 3.1997
-2.9709 3.2107
-2.1004 1.8223
ITEM: ATOMS id type xs ys zs
1 1 .487370 .991479 .424907
2 1 .986247 .642690 .515156
3 1 .834781 .048139 .576701
4 1 .226156 .008313 .545946
5 1 .007103 .584694 .428769
6 1 .489001 .485439 .988332
7 1 .521297 .431112 .010122
ITEM: TIMESTEP
350
ITEM: NUMBER OF ATOMS
7
ITEM: BOX BOUNDS ss ss ss
-3.0763 3.2022
-2.9784 3.2136
-2.1040 1.8223
ITEM: ATOMS id type xs ys zs
1 1 .490816 .992489 .436908
2 1 .990760 .644575 .510499
3 1 .828778 .044078 .579419
4 1 .227505 .011060 .540024
5 1 .014786 .589244 .423432
6 1 .490352 .484480 .989231
7 1 .524971 .433309 .011837
ITEM: TIMESTEP
400
ITEM: NUMBER OF ATOMS
7
ITEM: BOX BOUNDS ss ss ss
-3.0829 3.2071
-2.9816 3.2077
-2.1039 1.8238
ITEM: ATOMS id type xs ys zs
1 1 .490924 .994200 .432567
2 1 .986364 .642085 .516447
3 1 .832512 .046338 .580844
4 1 .228940 .011189 .541174
5 1 .014547 .589317 .427244
6 1 .488738 .487204 .985656
7 1 .529242 .431029 .010772
ITEM: TIMESTEP
1
ITEM: NUMBER OF ATOMS
7
ITEM: BOX BOUNDS ss ss ss
-3.0692 3.1939
-2.9466 3.1849
-2.1004 1.8223
ITEM: ATOMS id type xs ys zs
1 1 .487780 .994271 .430720
2 1 .989015 .644804 .510554
3 1 .830476 .037648 .583809
4 1 .223361 .004487 .541254
5 1 .008769 .582088 .434436
6 1 .490182 .485850 .993035
7 1 .526348 .434054 .011913
ITEM: TIMESTEP
50
ITEM: NUMBER OF ATOMS
7
ITEM: BOX BOUNDS ss ss ss
-3.0692 3.1939
-2.9494 3.1849
-2.1004 1.8223
ITEM: ATOMS id type xs ys zs
1 1 .488049 .996926 .430478
2 1 .988394 .644756 .512035
3 1 .829175 .037416 .583593
4 1 .221004 .006088 .540919
5 1 .006829 .580688 .431977
6 1 .489524 .486030 .994043
7 1 .527512 .433760 .012602
ITEM: TIMESTEP
100
ITEM: NUMBER OF ATOMS
7
ITEM: BOX BOUNDS ss ss ss
-3.0692 3.1939
-2.9608 3.2022
-2.1004 1.8293
ITEM: ATOMS id type xs ys zs
1 1 .485979 .995952 .432379
2 1 .991328 .642462 .510732
3 1 .829361 .036506 .585260
4 1 .223016 .008250 .539856
5 1 .007231 .581754 .437384
6 1 .491354 .483382 .991106
7 1 .527014 .430984 .011131
ITEM: TIMESTEP
150
ITEM: NUMBER OF ATOMS
7
ITEM: BOX BOUNDS ss ss ss
-3.0692 3.1939
-2.9675 3.2040
-2.1004 1.8280
ITEM: ATOMS id type xs ys zs
1 1 .489581 .994737 .431589
2 1 .990923 .643783 .512314
3 1 .828463 .044478 .582080
4 1 .221579 .005890 .542118
5 1 .009423 .578828 .433541
6 1 .491644 .484272 .989638
7 1 .526658 .433332 .011602
ITEM: TIMESTEP
200
ITEM: NUMBER OF ATOMS
7
ITEM: BOX BOUNDS ss ss ss
-3.0692 3.1939
-2.9647 3.2046
-2.1004 1.8318
ITEM: ATOMS id type xs ys zs
1 1 .487150 .991295 .422426
2 1 .990239 .639951 .511146
3 1 .828750 .039596 .584725
4 1 .227755 .007187 .542507
5 1 .010464 .581962 .440197
6 1 .490597 .487419 .992267
7 1 .524134 .432357 .007600
ITEM: TIMESTEP
250
ITEM: NUMBER OF ATOMS
7
ITEM: BOX BOUNDS ss ss ss
-3.0708 3.1939
-2.9580 3.1959
-2.1004 1.8301
ITEM: ATOMS id type xs ys zs
1 1 .488962 .993363 .422717
2 1 .992403 .641506 .517285
3 1 .828350 .040452 .584771
4 1 .226436 .006594 .543067
5 1 .008997 .583088 .438887
6 1 .492442 .487757 .988089
7 1 .523755 .431089 .009973
ITEM: TIMESTEP
300
ITEM: NUMBER OF ATOMS
7
ITEM: BOX BOUNDS ss ss ss
-3.0709 3.1939
-2.9592 3.1998
-2.1042 1.8475
ITEM: ATOMS id type xs ys zs
1 1 .488661 .993117 .421763
2 1 .992327 .642757 .520272
3 1 .826067 .039572 .587664
4 1 .226120 .006048 .538874
5 1 .008754 .581838 .438599
6 1 .492468 .488885 .984370
7 1 .521405 .431695 .009292
ITEM: TIMESTEP
350
ITEM: NUMBER OF ATOMS
7
ITEM: BOX BOUNDS ss ss ss
-3.0692 3.1957
-2.9661 3.1974
-2.1078 1.8319
ITEM: ATOMS id type xs ys zs
1 1 .484720 .990343 .423271