ITEM: TIMESTEP
1
ITEM: NUMBER OF ATOMS
7
ITEM: BOX BOUNDS ss ss ss
-3.0185 3.1286
-2.9227 3.1549
-2.0579 1.7983
ITEM: ATOMS id type xs ys zs
1 1 .488761 .999176 .427216
2 1 .999404 .646623 .508538
3 1 .838114 .033959 .583209
4 1 .219513 .000712 .539467
5 1 .000648 .583518 .430942
6 1 .491558 .486110 .998954
7 1 .528060 .433799 .000853
ITEM: TIMESTEP
50
ITEM: NUMBER OF ATOMS
7
ITEM: BOX BOUNDS ss ss ss
-3.0451 3.1547
-2.9489 3.1804
-2.0795 1.8234
ITEM: ATOMS id type xs ys zs
1 1 .486913 .992691 .427167
2 1 .996512 .644875 .508349
3 1 .835530 .038979 .582657
4 1 .224141 .006482 .536475
5 1 .004088 .582363 .429760
6 1 .492044 .486550 .992664
7 1 .528214 .432855 .005887
ITEM: TIMESTEP
100
ITEM: NUMBER OF ATOMS
7
ITEM: BOX BOUNDS ss ss ss
-3.0478 3.1739
-2.9562 3.1919
-2.0922 1.8288
ITEM: ATOMS id type xs ys zs
1 1 .485138 .989828 .429428
2 1 .994275 .644026 .509314
3 1 .832505 .040454 .579666
4 1 .224914 .006921 .535171
5 1 .005096 .584281 .432658
6 1 .491073 .484533 .991603
7 1 .526232 .432198 .009822
ITEM: TIMESTEP
150
ITEM: NUMBER OF ATOMS
7
ITEM: BOX BOUNDS ss ss ss
-3.0536 3.1825
-2.9573 3.1853
-2.0948 1.8285
ITEM: ATOMS id type xs ys zs
1 1 .485034 .988695 .431818
2 1 .993626 .642038 .511193
3 1 .830741 .040309 .581788
4 1 .224276 .008420 .541738
5 1 .007334 .587756 .434355
6 1 .491600 .483603 .991352
7 1 .526211 .431807 .010402
ITEM: TIMESTEP
200
ITEM: NUMBER OF ATOMS
7
ITEM: BOX BOUNDS ss ss ss
-3.0646 3.1818
-2.9581 3.1821
-2.0986 1.8336
ITEM: ATOMS id type xs ys zs
1 1 .485409 .988423 .433251
2 1 .994389 .644616 .515999
3 1 .833224 .040903 .581270
4 1 .227672 .007453 .539831
5 1 .009099 .587422 .433957
6 1 .493490 .484699 .990990
7 1 .527581 .429574 .008482
ITEM: TIMESTEP
250
ITEM: NUMBER OF ATOMS
7
ITEM: BOX BOUNDS ss ss ss
-3.0527 3.1936
-2.9619 3.1683
-2.1045 1.8282
ITEM: ATOMS id type xs ys zs
1 1 .481332 .988661 .435184
2 1 .992552 .645786 .520089
3 1 .831698 .042413 .584088
4 1 .224779 .010021 .540134
5 1 .007349 .589834 .434497
6 1 .491085 .485612 .992625
7 1 .525160 .430132 .010861
ITEM: TIMESTEP
300
ITEM: NUMBER OF ATOMS
7
ITEM: BOX BOUNDS ss ss ss
-3.0625 3.1944
-2.9610 3.1608
-2.0994 1.8349
ITEM: ATOMS id type xs ys zs
1 1 .484799 .987467 .431233
2 1 .993197 .646380 .514206
3 1 .831239 .044063 .582911
4 1 .225723 .010753 .539144
5 1 .008903 .591223 .434972
6 1 .491249 .485300 .991260
7 1 .525840 .430877 .007724
ITEM: TIMESTEP
350
ITEM: NUMBER OF ATOMS
7
ITEM: BOX BOUNDS ss ss ss
-3.0539 3.1926
-2.9508 3.1506
-2.1041 1.8353
ITEM: ATOMS id type xs ys zs
1 1 .483858 .989951 .431401
2 1 .993136 .648206 .515864
3 1 .833774 .043927 .581035
4 1 .224892 .009557 .540281
5 1 .006861 .591941 .435573
6 1 .490966 .485129 .991479
7 1 .525341 .430096 .008548
ITEM: TIMESTEP
400
ITEM: NUMBER OF ATOMS
7
ITEM: BOX BOUNDS ss ss ss
-3.0566 3.2000
-2.9452 3.1455
-2.1102 1.8478
ITEM: ATOMS id type xs ys zs
1 1 .484159 .989610 .429093
2 1 .992976 .647603 .514784
3 1 .833042 .043811 .581071
4 1 .225274 .009080 .538640
5 1 .007257 .592984 .434568
6 1 .490740 .485679 .987440
7 1 .525216 .429886 .008800
ITEM: TIMESTEP
1
ITEM: NUMBER OF ATOMS
7
ITEM: BOX BOUNDS ss ss ss
-3.0386 3.1847
-2.9243 3.1546
-2.0943 1.8255
ITEM: ATOMS id type xs ys zs
1 1 .485998 .999227 .429559
2 1 .990356 .646762 .509526
3 1 .831087 .034203 .582988
4 1 .220027 .000980 .540002
5 1 .003845 .583634 .433233
6 1 .488726 .486269 .992059
7 1 .524848 .433972 .010162
ITEM: TIMESTEP
50
ITEM: NUMBER OF ATOMS
7
ITEM: BOX BOUNDS ss ss ss
-3.0458 3.1847
-2.9461 3.1792
-2.0943 1.8255
ITEM: ATOMS id type xs ys zs
1 1 .486413 .993626 .430789
2 1 .991275 .644537 .510926
3 1 .831391 .039472 .583212
4 1 .221144 .006208 .537021
5 1 .004525 .583463 .434733
6 1 .488688 .485328 .990360
7 1 .525055 .434252 .008793
ITEM: TIMESTEP
100
ITEM: NUMBER OF ATOMS
7
ITEM: BOX BOUNDS ss ss ss
-3.0639 3.1847
-2.9579 3.1929
-2.0943 1.8293
ITEM: ATOMS id type xs ys zs
1 1 .485500 .989762 .432650
2 1 .993860 .642520 .510314
3 1 .830441 .041848 .582426
4 1 .222322 .007005 .535993
5 1 .005974 .585084 .434405
6 1 .489539 .484321 .989881
7 1 .527491 .433878 .010432
ITEM: TIMESTEP
150
ITEM: NUMBER OF ATOMS
7
ITEM: BOX BOUNDS ss ss ss
-3.0627 3.1847
-2.9603 3.1982
-2.0954 1.8296
ITEM: ATOMS id type xs ys zs
1 1 .486174 .986376 .429503
2 1 .995621 .642616 .510793
3 1 .832233 .042836 .582360
4 1 .228063 .006826 .537498
5 1 .007414 .580178 .432749
6 1 .493585 .483215 .988760
7 1 .526421 .429507 .004444
ITEM: TIMESTEP
200
ITEM: NUMBER OF ATOMS
7
ITEM: BOX BOUNDS ss ss ss
-3.0580 3.1897
-2.9605 3.1856
-2.1015 1.8318
ITEM: ATOMS id type xs ys zs
1 1 .484125 .989744 .429202
2 1 .995777 .643351 .509314
3 1 .831895 .043416 .582419
4 1 .225332 .009022 .540288
5 1 .008640 .585880 .432833
6 1 .492078 .484146 .987402
7 1 .525728 .431922 .008954
ITEM: TIMESTEP
250
ITEM: NUMBER OF ATOMS
7
ITEM: BOX BOUNDS ss ss ss
-3.0651 3.1996
-2.9612 3.1845
-2.1080 1.8255
ITEM: ATOMS id type xs ys zs
1 1 .483988 .988697 .430701
2 1 .993850 .641846 .509180
3 1 .831310 .042184 .583710
4 1 .224360 .007966 .541101
5 1 .009215 .587693 .436803
6 1 .491378 .483220 .987537
7 1 .524793 .430883 .008962
ITEM: TIMESTEP
300
ITEM: NUMBER OF ATOMS
7
ITEM: BOX BOUNDS ss ss ss
-3.0694 3.2047
-2.9588 3.1766
-2.1109 1.8290
ITEM: ATOMS id type xs ys zs
1 1 .486232 .987858 .425223
2 1 .993638 .643241 .516254
3 1 .828528 .044275 .586450
4 1 .222680 .011778 .541363
5 1 .009811 .589475 .436443
6 1 .492439 .487349 .987996
7 1 .524016 .432211 .008922
ITEM: TIMESTEP
350
ITEM: NUMBER OF ATOMS
7
ITEM: BOX BOUNDS ss ss ss
-3.0530 3.2103
-2.9583 3.1718
-2.1160 1.8362
ITEM: ATOMS id type xs ys zs
1 1 .481669 .990762 .429307
2 1 .992488 .646720 .507363
3 1 .829313 .044214 .586901
4 1 .220989 .012825 .535221
5 1 .007222 .593028 .434567
6 1 .488402 .487361 .988555
7 1 .524643 .431913 .010526
ITEM: TIMESTEP
400
ITEM: NUMBER OF ATOMS
7
ITEM: BOX BOUNDS ss ss ss
-3.0598 3.2140
-2.9561 3.1619
-2.1202 1.8385
ITEM: ATOMS id type xs ys zs
1 1 .483402 .990181 .428739
2 1 .992433 .646194 .508675
3 1 .828313 .046108 .589225
4 1 .222483 .013124 .535912
5 1 .008658 .593905 .434575
6 1 .487586 .489763 .987463
7 1 .524398 .431652 .010451
ITEM: TIMESTEP
1
ITEM: NUMBER OF ATOMS
7
ITEM: BOX BOUNDS ss ss ss
-3.0454 3.2042
-2.9270 3.1544
-2.0964 1.8205
ITEM: ATOMS id type xs ys zs
1 1 .485025 .999250 .430423
2 1 .987302 .646934 .510472
3 1 .828646 .034659 .584002
4 1 .220196 .001447 .541004
5 1 .004982 .583870 .434080
6 1 .487767 .486477 .993331
7 1 .523738 .434211 .010655
ITEM: TIMESTEP
50
ITEM: NUMBER OF ATOMS
7
ITEM: BOX BOUNDS ss ss ss
-3.0454 3.2042
-2.9467 3.1942
-2.0964 1.8207
ITEM: ATOMS id type xs ys zs
1 1 .484559 .991181 .428560
2 1 .988987 .642196 .512813
3 1 .827208 .038632 .583800
4 1 .220257 .005136 .540881
5 1 .005556 .581752 .434379
6 1 .489083 .484139 .992893
7 1 .525273 .431389 .009005
ITEM: TIMESTEP
100
ITEM: NUMBER OF ATOMS
7
ITEM: BOX BOUNDS ss ss ss
-3.0504 3.2042
-2.9583 3.1902
-2.0964 1.8249
ITEM: ATOMS id type xs ys zs
1 1 .483251 .990908 .430054
2 1 .991346 .646210 .513751
3 1 .827103 .039946 .583224
4 1 .221423 .008278 .540647
5 1 .005754 .584260 .433822
6 1 .489597 .484943 .989423
7 1 .523304 .432578 .007496
ITEM: TIMESTEP
150
ITEM: NUMBER OF ATOMS
7
ITEM: BOX BOUNDS ss ss ss
-3.0548 3.2042
-2.9536 3.1903
-2.1001 1.8239
ITEM: ATOMS id type xs ys zs
1 1 .481646 .989916 .429947
2 1 .992381 .644843 .511188
3 1 .826754 .040757 .586548
4 1 .221936 .009625 .540358
5 1 .008296 .586634 .435534
6 1 .491874 .485631 .991411
7 1 .524626 .430649 .009693
ITEM: TIMESTEP
200
ITEM: NUMBER OF ATOMS
7
ITEM: BOX BOUNDS ss ss ss
-3.0572 3.2042
-2.9571 3.1767
-2.1110 1.8281
ITEM: ATOMS id type xs ys zs
1 1 .482007 .991269 .434497
2 1 .991712 .646872 .511833
3 1 .826198 .042432 .590178
4 1 .221570 .011978 .540594
5 1 .007981 .590492 .438239
6 1 .493267 .487171 .991002
7 1 .525375 .431063 .013378
ITEM: TIMESTEP
250
ITEM: NUMBER OF ATOMS
7
ITEM: BOX BOUNDS ss ss ss
-3.0701 3.2042
-2.9577 3.1734
-2.1125 1.8213
ITEM: ATOMS id type xs ys zs
1 1 .483727 .989471 .429578
2 1 .991649 .646558 .518383
3 1 .829335 .041416 .581494
4 1 .224378 .008744 .544833
5 1 .010360 .588780 .439645
6 1 .490510 .484555 .992944
7 1 .524709 .430836 .011414
ITEM: TIMESTEP
300
ITEM: NUMBER OF ATOMS
7
ITEM: BOX BOUNDS ss ss ss
-3.0678 3.2081
-2.9505 3.1737
-2.1143 1.8378
ITEM: ATOMS id type xs ys zs
1 1 .484403 .987792 .428449
2 1 .992289 .646805 .517558
3 1 .828660 .041996 .581187
4 1 .223565 .008678 .541010
5 1 .008839 .586649 .437595
6 1 .491998 .485696 .987338
7 1 .525164 .430331 .009859
ITEM: TIMESTEP
350
ITEM: NUMBER OF ATOMS
7
ITEM: BOX BOUNDS ss ss ss
-3.0575 3.2047
-2.9482 3.1844
-2.1102 1.8310
ITEM: ATOMS id type xs ys zs
1 1 .483274 .988073 .436826
2 1 .990825 .646331 .513081
3 1 .826815 .042672 .589759
4 1 .218950 .012291 .540172
5 1 .006326 .591165 .435261
6 1 .489911 .485802 .992690
7 1 .523605 .430121 .012600
ITEM: TIMESTEP
400
ITEM: NUMBER OF ATOMS
7
ITEM: BOX BOUNDS ss ss ss
-3.0537 3.2129
-2.9457 3.1688
-2.1170 1.8370
ITEM: ATOMS id type xs ys zs
1 1 .480880 .989165 .432608
2 1 .989121 .646890 .508946
3 1 .827214 .041811 .590943
4 1 .219840 .011346 .539030
5 1 .008142 .593219 .436636
6 1 .489591 .485171 .992537
7 1 .523394 .428440 .013878
ITEM: TIMESTEP
1
ITEM: NUMBER OF ATOMS
7
ITEM: BOX BOUNDS ss ss ss
-3.0454 3.2042
-2.9270 3.1547
-2.0964 1.8286
ITEM: ATOMS id type xs ys zs
1 1 .485046 .999186 .429552
2 1 .987297 .646902 .509412
3 1 .828682 .034664 .582744
4 1 .220205 .001422 .539754
5 1 .004932 .583827 .433194
6 1 .487774 .486477 .991259
7 1 .523720 .434223 .010660
ITEM: TIMESTEP
50
ITEM: NUMBER OF ATOMS
7
ITEM: BOX BOUNDS ss ss ss
-3.0454 3.2042
-2.9496 3.1812
-2.0964 1.8286
ITEM: ATOMS id type xs ys zs
1 1 .484554 .993637 .430172
2 1 .988285 .645894 .509959
3 1 .827814 .038518 .580368
4 1 .220310 .005885 .539153
5 1 .003553 .584675 .434871
6 1 .486517 .486391 .992688
7 1 .523088 .432488 .012336
ITEM: TIMESTEP
100
ITEM: NUMBER OF ATOMS
7
ITEM: BOX BOUNDS ss ss ss
-3.0489 3.2042
-2.9530 3.2052
-2.0964 1.8290
ITEM: ATOMS id type xs ys zs
1 1 .484932 .989710 .428018
2 1 .990548 .641351 .511950
3 1 .829508 .038565 .580332
4 1 .222476 .009839 .535376
5 1 .004604 .582130 .435332
6 1 .489733 .481286 .989874
7 1 .522628 .431891 .007517
ITEM: TIMESTEP
150
ITEM: NUMBER OF ATOMS
7
ITEM: BOX BOUNDS ss ss ss
-3.0546 3.2042
-2.9624 3.1895
-2.0964 1.8374
ITEM: ATOMS id type xs ys zs
1 1 .482749 .989084 .424821
2 1 .991659 .643898 .509894
3 1 .830971 .040409 .576735
4 1 .222161 .010186 .531694
5 1 .005610 .585728 .436382
6 1 .490777 .484038 .985666
7 1 .524860 .432858 .007944
ITEM: TIMESTEP
200
ITEM: NUMBER OF ATOMS
7
ITEM: BOX BOUNDS ss ss ss
-3.0653 3.2042
-2.9658 3.1903
-2.1020 1.8341
ITEM: ATOMS id type xs ys zs
1 1 .484357 .988237 .423536
2 1 .993558 .643900 .511263
3 1 .829430 .042372 .576688
4 1 .222417 .009706 .534320
5 1 .007304 .589633 .436934
6 1 .491246 .484701 .987284
7 1 .523411 .432869 .008090
ITEM: TIMESTEP
250
ITEM: NUMBER OF ATOMS
7
ITEM: BOX BOUNDS ss ss ss
-3.0570 3.2042
-2.9710 3.1811
-2.1124 1.8286
ITEM: ATOMS id type xs ys zs
1 1 .482065 .988175 .428739
2 1 .994246 .644419 .514245
3 1 .831063 .043401 .579790
4 1 .222175 .010779 .537335
5 1 .006280 .589768 .438097
6 1 .491778 .485273 .988590
7 1 .523516 .431440 .010354
ITEM: TIMESTEP
300
ITEM: NUMBER OF ATOMS
7
ITEM: BOX BOUNDS ss ss ss
-3.0590 3.2042
-2.9537 3.1714
-2.1060 1.8286
ITEM: ATOMS id type xs ys zs
1 1 .482317 .988035 .428990
2 1 .993131 .643818 .516212
3 1 .829573 .041217 .579600
4 1 .224155 .009806 .535552
5 1 .006529 .589605 .438536
6 1 .492503 .484897 .989577
7 1 .523026 .429231 .009773
ITEM: TIMESTEP
350
ITEM: NUMBER OF ATOMS
7
ITEM: BOX BOUNDS ss ss ss
-3.0613 3.2046
-2.9535 3.1580
-2.1106 1.8318
ITEM: ATOMS id type xs ys zs
1 1 .482503 .989843 .428832
2 1 .993219 .645289 .515118
3 1 .830492 .041306 .579849
4 1 .224464 .010311 .535425
5 1 .007936 .591690 .438562
6 1 .492588 .485686 .989798
7 1 .524398 .429922 .010313
ITEM: TIMESTEP
400
ITEM: NUMBER OF ATOMS
7
ITEM: BOX BOUNDS ss ss ss
-3.0642 3.2173
-2.9451 3.1597
-2.1104 1.8283
ITEM: ATOMS id type xs ys zs
1 1 .482211 .987208 .430536
2 1 .991192 .644939 .513296
3 1 .828712 .040078 .579726
4 1 .223669 .010112 .536764
5 1 .008891 .590263 .442952
6 1 .493195 .483080 .989642
7 1 .523399 .429497 .009003
ITEM: TIMESTEP
1
ITEM: NUMBER OF ATOMS
7
ITEM: BOX BOUNDS ss ss ss
-3.0454 3.2042
-2.9270 3.1546
-2.0964 1.8205
ITEM: ATOMS id type xs ys zs
1 1 .485055 .999213 .430424
2 1 .987288 .646930 .510460
3 1 .828672 .034627 .583960
4 1 .220196 .001423 .540933
5 1 .004942 .583801 .434121
6 1 .487787 .486500 .993320
7 1 .523731 .434238 .010678
ITEM: TIMESTEP
50
ITEM: NUMBER OF ATOMS
7
ITEM: BOX BOUNDS ss ss ss
-3.0454 3.2042
-2.9493 3.1830
-2.0964 1.8205
ITEM: ATOMS id type xs ys zs
1 1 .484462 .993263 .427195
2 1 .986781 .645078 .508364
3 1 .829372 .040665 .583016
4 1 .222316 .006904 .539992
5 1 .005593 .582399 .432561
6 1 .487023 .485803 .993311
7 1 .523446 .432027 .011682
ITEM: TIMESTEP
100
ITEM: NUMBER OF ATOMS
7
ITEM: BOX BOUNDS ss ss ss
-3.0538 3.2042
-2.9611 3.1977
-2.0964 1.8290
ITEM: ATOMS id type xs ys zs
1 1 .483170 .991786 .428527
2 1 .989454 .642922 .514217
3 1 .831520 .042231 .578683
4 1 .223313 .008268 .539969
5 1 .007100 .582323 .438973
6 1 .488850 .487787 .993307
7 1 .524304 .431900 .011249
ITEM: TIMESTEP
150
ITEM: NUMBER OF ATOMS
7
ITEM: BOX BOUNDS ss ss ss
-3.0585 3.2042
-2.9705 3.2013
-2.0964 1.8313
ITEM: ATOMS id type xs ys zs
1 1 .483504 .990258 .430787
2 1 .989192 .642024 .512504
3 1 .829438 .043993 .581453
4 1 .223292 .008816 .538920
5 1 .008351 .584846 .436526
6 1 .490471 .486710 .992832
7 1 .524005 .433565 .011213
ITEM: TIMESTEP
200
ITEM: NUMBER OF ATOMS
7
ITEM: BOX BOUNDS ss ss ss
-3.0607 3.2042
-2.9696 3.2005
-2.0976 1.8395
ITEM: ATOMS id type xs ys zs
1 1 .484007 .989423 .434791
2 1 .988778 .641487 .506234
3 1 .827738 .045947 .582263
4 1 .223339 .010888 .537585
5 1 .007882 .584906 .434603
6 1 .490388 .484862 .994216
7 1 .519774 .433384 .008228
ITEM: TIMESTEP
250
ITEM: NUMBER OF ATOMS
7
ITEM: BOX BOUNDS ss ss ss
-3.0789 3.2042
-2.9672 3.1994
-2.1050 1.8450
ITEM: ATOMS id type xs ys zs
1 1 .486423 .988330 .431421
2 1 .990434 .642191 .509898
3 1 .828610 .043969 .581025
4 1 .224535 .009827 .537054
5 1 .010285 .583917 .435487
6 1 .491643 .484661 .989694
7 1 .523441 .432565 .011092
ITEM: TIMESTEP
300
ITEM: NUMBER OF ATOMS
7
ITEM: BOX BOUNDS ss ss ss
-3.0725 3.2042
-2.9682 3.1982
-2.1060 1.8488
ITEM: ATOMS id type xs ys zs
1 1 .487692 .986691 .435445
2 1 .989590 .644415 .508789
3 1 .828769 .045867 .580617
4 1 .224299 .009880 .536542
5 1 .009655 .583747 .436149
6 1 .490285 .484037 .989926
7 1 .522280 .431335 .009395
ITEM: TIMESTEP
350
ITEM: NUMBER OF ATOMS
7
ITEM: BOX BOUNDS ss ss ss
-3.0722 3.2042
-2.9766 3.1808
-2.1189 1.8536
ITEM: ATOMS id type xs ys zs
1 1 .484906 .988753 .433208
2 1 .989432 .646074 .510915
3 1 .829855 .047657 .580173
4 1 .225986 .012605 .539428
5 1 .008318 .585254 .439698
6 1 .490519 .486159 .987845
7 1 .520487 .433712 .011004
ITEM: TIMESTEP
400
ITEM: NUMBER OF ATOMS
7
ITEM: BOX BOUNDS ss ss ss
-3.0859 3.1995
-2.9706 3.1846
-2.1209 1.8556
ITEM: ATOMS id type xs ys zs
1 1 .486599 .987547 .438761
2 1 .991262 .645810 .510974
3 1 .829217 .046807 .581887
4 1 .226098 .011778 .539469
5 1 .011281 .586655 .437669
6 1 .491801 .484242 .988184
7 1 .524260 .433885 .012727
ITEM: TIMESTEP
1
ITEM: NUMBER OF ATOMS
7
ITEM: BOX BOUNDS ss ss ss
-3.0412 3.1723
-2.9397 3.1546
-2.0928 1.8334
ITEM: ATOMS id type xs ys zs
1 1 .487179 .999196 .428492
2 1 .992364 .647659 .508371
3 1 .832809 .036668 .581680
4 1 .220835 .003524 .538709
5 1 .004342 .584707 .432120
6 1 .489949 .487576 .990099
7 1 .526088 .435384 .009726
ITEM: TIMESTEP
50
ITEM: NUMBER OF ATOMS
7
ITEM: BOX BOUNDS ss ss ss
-3.0429 3.1723
-2.9515 3.1850
-2.0928 1.8334
ITEM: ATOMS id type xs ys zs
1 1 .485344 .993536 .428658
2 1 .993235 .646077 .507761
3 1 .834403 .041082 .578497
4 1 .221448 .006617 .537854
5 1 .007215 .583214 .427569
6 1 .492018 .483844 .986800
7 1 .524046 .432389 .007922
ITEM: TIMESTEP
100
ITEM: NUMBER OF ATOMS
7
ITEM: BOX BOUNDS ss ss ss
-3.0462 3.1761
-2.9554 3.1923
-2.0928 1.8355
ITEM: ATOMS id type xs ys zs
1 1 .483499 .991145 .430323
2 1 .992946 .646007 .506981
3 1 .831435 .042001 .579099
4 1 .221861 .007234 .538917
5 1 .006984 .583798 .425478
6 1 .491431 .483729 .987298
7 1 .524864 .431380 .006953
ITEM: TIMESTEP
150
ITEM: NUMBER OF ATOMS
7
ITEM: BOX BOUNDS ss ss ss
-3.0504 3.1725
-2.9549 3.1928
-2.0982 1.8334
ITEM: ATOMS id type xs ys zs
1 1 .484960 .990292 .430165
2 1 .992852 .644871 .508255
3 1 .832223 .041370 .581138
4 1 .224121 .009154 .539794
5 1 .007285 .585765 .430414
6 1 .492273 .483402 .987256
7 1 .524979 .430571 .008750
ITEM: TIMESTEP
200
ITEM: NUMBER OF ATOMS
7
ITEM: BOX BOUNDS ss ss ss
-3.0485 3.1723
-2.9607 3.1976
-2.1114 1.8334
ITEM: ATOMS id type xs ys zs
1 1 .484434 .989113 .430920
2 1 .994520 .643896 .514289
3 1 .830337 .044325 .576791
4 1 .222529 .007925 .535014
5 1 .005942 .586974 .433407
6 1 .492410 .483329 .988555
7 1 .523885 .432081 .011692
ITEM: TIMESTEP
250
ITEM: NUMBER OF ATOMS
7
ITEM: BOX BOUNDS ss ss ss
-3.0441 3.1832
-2.9582 3.1904
-2.1206 1.8334
ITEM: ATOMS id type xs ys zs
1 1 .484358 .989178 .433053
2 1 .994184 .645232 .515219
3 1 .829583 .044710 .578133
4 1 .222025 .007805 .537294
5 1 .006452 .587244 .433024
6 1 .491206 .484405 .988748
7 1 .523926 .431962 .012684
ITEM: TIMESTEP
300
ITEM: NUMBER OF ATOMS
7
ITEM: BOX BOUNDS ss ss ss
-3.0467 3.1937
-2.9564 3.1898
-2.1190 1.8334
ITEM: ATOMS id type xs ys zs
1 1 .483430 .986517 .434408
2 1 .994533 .646916 .514711
3 1 .830094 .045377 .583244
4 1 .220273 .010231 .541125
5 1 .006730 .589602 .433546
6 1 .489132 .485595 .986701
7 1 .524784 .433505 .010968
ITEM: TIMESTEP
350
ITEM: NUMBER OF ATOMS
7
ITEM: BOX BOUNDS ss ss ss
-3.0511 3.1952
-2.9573 3.1810
-2.1172 1.8334
ITEM: ATOMS id type xs ys zs
1 1 .483588 .988107 .434779
2 1 .994161 .647707 .512299
3 1 .829917 .047108 .581844
4 1 .222156 .011553 .539640
5 1 .008263 .590196 .431639
6 1 .489348 .485232 .987199
7 1 .525775 .431759 .009944
ITEM: TIMESTEP
400
ITEM: NUMBER OF ATOMS
7
ITEM: BOX BOUNDS ss ss ss
-3.0540 3.1965
-2.9601 3.1791
-2.1201 1.8416
ITEM: ATOMS id type xs ys zs
1 1 .481684 .986335 .430947
2 1 .992185 .650324 .512503
3 1 .831260 .047973 .584614
4 1 .222848 .009938 .537925
5 1 .006956 .588041 .428088
6 1 .491311 .486470 .986891
7 1 .523996 .431097 .008904
ITEM: TIMESTEP
1
ITEM: NUMBER OF ATOMS
7
ITEM: BOX BOUNDS ss ss ss
-3.0346 3.1873
-2.9328 3.1544
-2.1004 1.8155
ITEM: ATOMS id type xs ys zs
1 1 .485463 .999245 .431547
2 1 .989964 .647275 .511630
3 1 .830655 .035565 .585151
4 1 .219497 .002400 .542108
5 1 .003236 .584233 .435249
6 1 .488231 .486982 .994516
7 1 .524310 .434799 .011672
ITEM: TIMESTEP
50
ITEM: NUMBER OF ATOMS
7
ITEM: BOX BOUNDS ss ss ss
-3.0419 3.1873
-2.9499 3.1880
-2.1004 1.8203
ITEM: ATOMS id type xs ys zs
1 1 .484870 .992485 .430948
2 1 .991676 .644351 .511241
3 1 .830249 .038705 .585191
4 1 .218959 .004796 .537840
5 1 .005376 .583575 .436074
6 1 .488531 .483943 .992705
7 1 .524660 .432729 .012072
ITEM: TIMESTEP
100
ITEM: NUMBER OF ATOMS
7
ITEM: BOX BOUNDS ss ss ss
-3.0579 3.1873
-2.9563 3.1979
-2.1004 1.8322
ITEM: ATOMS id type xs ys zs
1 1 .487876 .991054 .430075
2 1 .992770 .645266 .510171
3 1 .829660 .041484 .583954
4 1 .220373 .007444 .540331
5 1 .007415 .584586 .432969
6 1 .490665 .484605 .989634
7 1 .524695 .432576 .013577
ITEM: TIMESTEP
150
ITEM: NUMBER OF ATOMS
7
ITEM: BOX BOUNDS ss ss ss
-3.0669 3.1873
-2.9696 3.2112
-2.1009 1.8348
ITEM: ATOMS id type xs ys zs
1 1 .487351 .987924 .429850
2 1 .993889 .642291 .511007
3 1 .828001 .041433 .583958
4 1 .221938 .009381 .537370
5 1 .009490 .583722 .432728
6 1 .491535 .485978 .987076
7 1 .525900 .430532 .011143
ITEM: TIMESTEP
200
ITEM: NUMBER OF ATOMS
7
ITEM: BOX BOUNDS ss ss ss
-3.0632 3.1873
-2.9661 3.2003
-2.1004 1.8346
ITEM: ATOMS id type xs ys zs
1 1 .486259 .988629 .429021
2 1 .995739 .641247 .511423
3 1 .828593 .041265 .584771
4 1 .221867 .008139 .534605
5 1 .009152 .584166 .432304
6 1 .490924 .485210 .988180
7 1 .527909 .431678 .007394
ITEM: TIMESTEP
250
ITEM: NUMBER OF ATOMS
7
ITEM: BOX BOUNDS ss ss ss
-3.0606 3.1980
-2.9670 3.1992
-2.1041 1.8290
ITEM: ATOMS id type xs ys zs
1 1 .485409 .988663 .433822
2 1 .994337 .641588 .512045
3 1 .826470 .040342 .583931
4 1 .221248 .009032 .535213
5 1 .008815 .585585 .435369
6 1 .490842 .484353 .988796
7 1 .525112 .431979 .009981
ITEM: TIMESTEP
300
ITEM: NUMBER OF ATOMS
7
ITEM: BOX BOUNDS ss ss ss
-3.0683 3.2047
-2.9699 3.1921
-2.1030 1.8261
ITEM: ATOMS id type xs ys zs
1 1 .484580 .987929 .432423
2 1 .994386 .641717 .511709
3 1 .826258 .040340 .586829
4 1 .222132 .009031 .533289
5 1 .009277 .587340 .437243
6 1 .490859 .485034 .990964
7 1 .524984 .432768 .010305
ITEM: TIMESTEP
350
ITEM: NUMBER OF ATOMS
7
ITEM: BOX BOUNDS ss ss ss
-3.0646 3.2137
-2.9749 3.1953
-2.1099 1.8247
ITEM: ATOMS id type xs ys zs
1 1 .480667 .985208 .436837
2 1 .993256 .641687 .512705
3 1 .824117 .040843 .586191
4 1 .219962 .010695 .532173
5 1 .009741 .588106 .441616
6 1 .491332 .483802 .996357
7 1 .524654 .433625 .012215
ITEM: TIMESTEP
400
ITEM: NUMBER OF ATOMS
7
ITEM: BOX BOUNDS ss ss ss
-3.0643 3.2155
-2.9766 3.1792
-2.1112 1.8367
ITEM: ATOMS id type xs ys zs
1 1 .482348 .987366 .440992
2 1 .992300 .641884 .513678
3 1 .823823 .041536 .585036
4 1 .219799 .011747 .532249
5 1 .008651 .590987 .438008
6 1 .490844 .485791 .990358
7 1 .526452 .433189 .015097
ITEM: TIMESTEP
1
ITEM: NUMBER OF ATOMS
7
ITEM: BOX BOUNDS ss ss ss
-3.0346 3.1939
-2.9466 3.1546
-2.1004 1.8223
ITEM: ATOMS id type xs ys zs
1 1 .484959 .999220 .430809
2 1 .988953 .648101 .510721
3 1 .829761 .037768 .584104
4 1 .219209 .004659 .541152
5 1 .003214 .585163 .434457
6 1 .487694 .488135 .992897
7 1 .523773 .436022 .011696
ITEM: TIMESTEP
50
ITEM: NUMBER OF ATOMS
7
ITEM: BOX BOUNDS ss ss ss
-3.0423 3.1939
-2.9477 3.1855
-2.1004 1.8223
ITEM: ATOMS id type xs ys zs
1 1 .485126 .994425 .431486
2 1 .989926 .644016 .511752
3 1 .829779 .038736 .582410
4 1 .219252 .005915 .543594
5 1 .003964 .582536 .436194
6 1 .488999 .485705 .992786
7 1 .523509 .432325 .010248
ITEM: TIMESTEP
100
ITEM: NUMBER OF ATOMS
7
ITEM: BOX BOUNDS ss ss ss
-3.0568 3.1939
-2.9644 3.2018
-2.1004 1.8331
ITEM: ATOMS id type xs ys zs
1 1 .486632 .989728 .429763
2 1 .989196 .642458 .510067
3 1 .829982 .040696 .579358
4 1 .221402 .008206 .540648
5 1 .006511 .584362 .437205
6 1 .490295 .484908 .991649
7 1 .524374 .431552 .009183
ITEM: TIMESTEP
150
ITEM: NUMBER OF ATOMS
7
ITEM: BOX BOUNDS ss ss ss
-3.0491 3.1939
-2.9641 3.2067
-2.1004 1.8252
ITEM: ATOMS id type xs ys zs
1 1 .485799 .987455 .432369
2 1 .989624 .641348 .513663
3 1 .828755 .039655 .580102
4 1 .222876 .009108 .538946
5 1 .003666 .584032 .439459
6 1 .489472 .486672 .993457
7 1 .522086 .429979 .010970
ITEM: TIMESTEP
200
ITEM: NUMBER OF ATOMS
7
ITEM: BOX BOUNDS ss ss ss
-3.0607 3.1939
-2.9701 3.2043
-2.1004 1.8333
ITEM: ATOMS id type xs ys zs
1 1 .485806 .989781 .426764
2 1 .991569 .643322 .511112
3 1 .829951 .043729 .582525
4 1 .225989 .012195 .537198
5 1 .007480 .584699 .429342
6 1 .491055 .488887 .987001
7 1 .524589 .433007 .008628
ITEM: TIMESTEP
250
ITEM: NUMBER OF ATOMS
7
ITEM: BOX BOUNDS ss ss ss
-3.0607 3.1939
-2.9637 3.2005
-2.1042 1.8308
ITEM: ATOMS id type xs ys zs
1 1 .484099 .987536 .428825
2 1 .991902 .644037 .512091
3 1 .827551 .041658 .582979
4 1 .222006 .009270 .541384
5 1 .007005 .584206 .435773
6 1 .492002 .486271 .986848
7 1 .523052 .431859 .009116
ITEM: TIMESTEP
300
ITEM: NUMBER OF ATOMS
7
ITEM: BOX BOUNDS ss ss ss
-3.0704 3.1939
-2.9578 3.1983
-2.1045 1.8335
ITEM: ATOMS id type xs ys zs
1 1 .485456 .987978 .425021
2 1 .991986 .642989 .510021
3 1 .827506 .042470 .580142
4 1 .223072 .008475 .539684
5 1 .008747 .583546 .437310
6 1 .492109 .487165 .985616
7 1 .521876 .431727 .005255
ITEM: TIMESTEP
350
ITEM: NUMBER OF ATOMS
7
ITEM: BOX BOUNDS ss ss ss
-3.0662 3.1939
-2.9659 3.1945
-2.1152 1.8258
ITEM: ATOMS id type xs ys zs
1 1 .485488 .990021 .427867
2 1 .992915 .645473 .516115
3 1 .828312 .045203 .581866
4 1 .225481 .012483 .542584
5 1 .008965 .587587 .433245
6 1 .490321 .488995 .988845
7 1 .523828 .433420 .010193
ITEM: TIMESTEP
400
ITEM: NUMBER OF ATOMS
7
ITEM: BOX BOUNDS ss ss ss
-3.0710 3.2055
-2.9585 3.1868
-2.1185 1.8288
ITEM: ATOMS id type xs ys zs
1 1 .483855 .989941 .428121
2 1 .991849 .647014 .515175
3 1 .826943 .043982 .580658
4 1 .223354 .009414 .541132
5 1 .008293 .586692 .437316
6 1 .490594 .488459 .990165
7 1 .520815 .431162 .010263
ITEM: TIMESTEP
1
ITEM: NUMBER OF ATOMS
7
ITEM: BOX BOUNDS ss ss ss
-3.0453 3.1939
-2.9466 3.1705
-2.1004 1.8223
ITEM: ATOMS id type xs ys zs
1 1 .485795 .996620 .430832
2 1 .988967 .646374 .510732
3 1 .830042 .037643 .584103
4 1 .220557 .004630 .541156
5 1 .004937 .583630 .434512
6 1 .488558 .486881 .992876
7 1 .524580 .434914 .011664
ITEM: TIMESTEP
50
ITEM: NUMBER OF ATOMS
7
ITEM: BOX BOUNDS ss ss ss
-3.0453 3.1939
-2.9497 3.1860
-2.1004 1.8228
ITEM: ATOMS id type xs ys zs
1 1 .485378 .994061 .432869
2 1 .990167 .645249 .512336
3 1 .829339 .039981 .583680
4 1 .220090 .005435 .540546
5 1 .003176 .583434 .434197
6 1 .488620 .485721 .990833
7 1 .523169 .433510 .011849
ITEM: TIMESTEP
100
ITEM: NUMBER OF ATOMS
7
ITEM: BOX BOUNDS ss ss ss
-3.0519 3.1939
-2.9569 3.2010
-2.1004 1.8282
ITEM: ATOMS id type xs ys zs
1 1 .484828 .990996 .430985
2 1 .989536 .643565 .510808
3 1 .829360 .040165 .583760
4 1 .220999 .006082 .537907
5 1 .004548 .584892 .433857
6 1 .490291 .485854 .990218
7 1 .524968 .432323 .012190
ITEM: TIMESTEP
150
ITEM: NUMBER OF ATOMS
7
ITEM: BOX BOUNDS ss ss ss
-3.0636 3.1939
-2.9602 3.2034
-2.1004 1.8261
ITEM: ATOMS id type xs ys zs
1 1 .487254 .992756 .432551
2 1 .992065 .645298 .509436
3 1 .829093 .042102 .579965
4 1 .223003 .009845 .539861
5 1 .006632 .585772 .428168
6 1 .490956 .487097 .986785
7 1 .525097 .434413 .010174
ITEM: TIMESTEP
200
ITEM: NUMBER OF ATOMS
7
ITEM: BOX BOUNDS ss ss ss
-3.0735 3.1939
-2.9793 3.2133
-2.1004 1.8223
ITEM: ATOMS id type xs ys zs
1 1 .486482 .989050 .434450
2 1 .991253 .645950 .511935
3 1 .829844 .047149 .579954
4 1 .224016 .010741 .543101
5 1 .008257 .584464 .430111
6 1 .491308 .485016 .988897
7 1 .525764 .434225 .011516
ITEM: TIMESTEP
250
ITEM: NUMBER OF ATOMS
7
ITEM: BOX BOUNDS ss ss ss
-3.0766 3.1950
-2.9787 3.2179
-2.1048 1.8223
ITEM: ATOMS id type xs ys zs
1 1 .485027 .987674 .434876
2 1 .991785 .645602 .511892
3 1 .829956 .046635 .580185
4 1 .224993 .009969 .543588
5 1 .009656 .585417 .429306
6 1 .491743 .485415 .989419
7 1 .525369 .434078 .013554
ITEM: TIMESTEP
300
ITEM: NUMBER OF ATOMS
7
ITEM: BOX BOUNDS ss ss ss
-3.0759 3.1997
-2.9709 3.2107
-2.1004 1.8223
ITEM: ATOMS id type xs ys zs
1 1 .490181 .990340 .433554
2 1 .991521 .642922 .513863
3 1 .830256 .045639 .581584
4 1 .223688 .011636 .539197
5 1 .011624 .588425 .421734
6 1 .489731 .485279 .989973
7 1 .527039 .433554 .010101
ITEM: TIMESTEP
350
ITEM: NUMBER OF ATOMS
7
ITEM: BOX BOUNDS ss ss ss
-3.0763 3.2022
-2.9784 3.2136
-2.1040 1.8223
ITEM: ATOMS id type xs ys zs
1 1 .489972 .991160 .434703
2 1 .993387 .642099 .514853
3 1 .831105 .047311 .581957
4 1 .223101 .012976 .538280
5 1 .012295 .589875 .426724
6 1 .490389 .485841 .988373
7 1 .526251 .432388 .008593
ITEM: TIMESTEP
400
ITEM: NUMBER OF ATOMS
7
ITEM: BOX BOUNDS ss ss ss
-3.0829 3.2071
-2.9816 3.2077
-2.1039 1.8238
ITEM: ATOMS id type xs ys zs
1 1 .488261 .991185 .432257
2 1 .992579 .643690 .516756
3 1 .830748 .049559 .582921
4 1 .223337 .013781 .539175
5 1 .013060 .590443 .428768
6 1 .489258 .486621 .989542
7 1 .524438 .433014 .010120
ITEM: TIMESTEP
1
ITEM: NUMBER OF ATOMS
7
ITEM: BOX BOUNDS ss ss ss
-3.0692 3.1939
-2.9466 3.1849
-2.1004 1.8223
ITEM: ATOMS id type xs ys zs
1 1 .487797 .994294 .430814
2 1 .988969 .644859 .510714
3 1 .830704 .037575 .584099
4 1 .223538 .004625 .541119
5 1 .008733 .582277 .434478
6 1 .490525 .485722 .992892
7 1 .526411 .433890 .011728
ITEM: TIMESTEP
50
ITEM: NUMBER OF ATOMS
7
ITEM: BOX BOUNDS ss ss ss
-3.0692 3.1939
-2.9494 3.1849
-2.1004 1.8223
ITEM: ATOMS id type xs ys zs
1 1 .487572 .993994 .430095
2 1 .990732 .644937 .512129
3 1 .830675 .039023 .587109
4 1 .222387 .005773 .540842
5 1 .007956 .582300 .436562
6 1 .490981 .486269 .992060
7 1 .524813 .432830 .010561
ITEM: TIMESTEP
100
ITEM: NUMBER OF ATOMS
7
ITEM: BOX BOUNDS ss ss ss
-3.0692 3.1939
-2.9608 3.2022
-2.1004 1.8293
ITEM: ATOMS id type xs ys zs
1 1 .487330 .990502 .429241
2 1 .991047 .644000 .511936
3 1 .829983 .040524 .582059
4 1 .222901 .008978 .538100
5 1 .007774 .581372 .434787
6 1 .491017 .484851 .991483
7 1 .525257 .431581 .009779
ITEM: TIMESTEP
150
ITEM: NUMBER OF ATOMS
7
ITEM: BOX BOUNDS ss ss ss
-3.0692 3.1939
-2.9675 3.2040
-2.1004 1.8280
ITEM: ATOMS id type xs ys zs
1 1 .487863 .990119 .425501
2 1 .988682 .644496 .512167
3 1 .830993 .042432 .583161
4 1 .223607 .011497 .540421
5 1 .007743 .583960 .436698
6 1 .489654 .482882 .989032
7 1 .522381 .431261 .007730
ITEM: TIMESTEP
200
ITEM: NUMBER OF ATOMS
7
ITEM: BOX BOUNDS ss ss ss
-3.0692 3.1939
-2.9647 3.2046
-2.1004 1.8318
ITEM: ATOMS id type xs ys zs
1 1 .486677 .989609 .423928
2 1 .991993 .641375 .512894
3 1 .828121 .042891 .583033
4 1 .225859 .009425 .540027
5 1 .007504 .583800 .438703
6 1 .491064 .486819 .987983
7 1 .524720 .432781 .009967
ITEM: TIMESTEP
250
ITEM: NUMBER OF ATOMS
7
ITEM: BOX BOUNDS ss ss ss
-3.0708 3.1939
-2.9580 3.1959
-2.1004 1.8301
ITEM: ATOMS id type xs ys zs
1 1 .486550 .989366 .423825
2 1 .993173 .641197 .507625
3 1 .826130 .041633 .578687
4 1 .225551 .009914 .541221
5 1 .010780 .585620 .442046
6 1 .492483 .486620 .991802
7 1 .523701 .429689 .010807
ITEM: TIMESTEP
300
ITEM: NUMBER OF ATOMS
7
ITEM: BOX BOUNDS ss ss ss
-3.0709 3.1939
-2.9592 3.1998
-2.1042 1.8475
ITEM: ATOMS id type xs ys zs
1 1 .483366 .987962 .426671
2 1 .993992 .641076 .512469
3 1 .829265 .043692 .581134
4 1 .226048 .009338 .538213
5 1 .006637 .581593 .439498
6 1 .491663 .485509 .987396
7 1 .524918 .433833 .011403
ITEM: TIMESTEP
350
ITEM: NUMBER OF ATOMS
7
ITEM: BOX BOUNDS ss ss ss
-3.0692 3.1957
-2.9661 3.1974
-2.1078 1.8319
ITEM: ATOMS id type xs ys zs
1 1 .480696 .989562 .433015