ITEM: TIMESTEP
1
ITEM: NUMBER OF ATOMS
7
ITEM: BOX BOUNDS ss ss ss
-2.9587 3.2160
-2.6288 3.3269
-1.9986 1.8531
ITEM: ATOMS id type xs ys zs
1 1 .493123 .999344 .452130
2 1 .999408 .626272 .497907
3 1 .831984 .012569 .561274
4 1 .198933 .000591 .534494
5 1 .000608 .622922 .472384
6 1 .497465 .463750 .998920
7 1 .502914 .433056 .000964
ITEM: TIMESTEP
50
ITEM: NUMBER OF ATOMS
7
ITEM: BOX BOUNDS ss ss ss
-2.9831 3.2396
-2.6510 3.3488
-2.0224 1.8775
ITEM: ATOMS id type xs ys zs
1 1 .493401 .995967 .452720
2 1 .995506 .625450 .497762
3 1 .829687 .016122 .560584
4 1 .201415 .004302 .533939
5 1 .004187 .622270 .472740
6 1 .497501 .463844 .992452
7 1 .503028 .433306 .007126
ITEM: TIMESTEP
100
ITEM: NUMBER OF ATOMS
7
ITEM: BOX BOUNDS ss ss ss
-2.9949 3.2458
-2.6659 3.3609
-2.0309 1.8854
ITEM: ATOMS id type xs ys zs
1 1 .494491 .994056 .453604
2 1 .994242 .625631 .497593
3 1 .828212 .018761 .559749
4 1 .202905 .007272 .533152
5 1 .005310 .621798 .473624
6 1 .497531 .464655 .990320
7 1 .504265 .432560 .009374
ITEM: TIMESTEP
150
ITEM: NUMBER OF ATOMS
7
ITEM: BOX BOUNDS ss ss ss
-3.0049 3.2462
-2.6633 3.3710
-2.0314 1.8903
ITEM: ATOMS id type xs ys zs
1 1 .495743 .992025 .454084
2 1 .993968 .624783 .497088
3 1 .827005 .018779 .558137
4 1 .204073 .007312 .532437
5 1 .006392 .619980 .473900
6 1 .497688 .464384 .989422
7 1 .505635 .430558 .009234
ITEM: TIMESTEP
200
ITEM: NUMBER OF ATOMS
7
ITEM: BOX BOUNDS ss ss ss
-3.0088 3.2459
-2.6614 3.3636
-2.0397 1.8923
ITEM: ATOMS id type xs ys zs
1 1 .496338 .992737 .454858
2 1 .993845 .625643 .497717
3 1 .826106 .018712 .557667
4 1 .204950 .007227 .532815
5 1 .006716 .619676 .475158
6 1 .497700 .465231 .989866
7 1 .506329 .430404 .010817
ITEM: TIMESTEP
250
ITEM: NUMBER OF ATOMS
7
ITEM: BOX BOUNDS ss ss ss
-3.0062 3.2534
-2.6647 3.3606
-2.0478 1.8974
ITEM: ATOMS id type xs ys zs
1 1 .495703 .992628 .454502
2 1 .992761 .626023 .497764
3 1 .824063 .019395 .556968
4 1 .204896 .007952 .532260
5 1 .006238 .619245 .475829
6 1 .496770 .466017 .989569
7 1 .505843 .430614 .012415
ITEM: TIMESTEP
300
ITEM: NUMBER OF ATOMS
7
ITEM: BOX BOUNDS ss ss ss
-3.0116 3.2582
-2.6681 3.3600
-2.0481 1.9085
ITEM: ATOMS id type xs ys zs
1 1 .496252 .992066 .452421
2 1 .992299 .626464 .495976
3 1 .822497 .020159 .554584
4 1 .205755 .008486 .530747
5 1 .007148 .618329 .474743
6 1 .496828 .466877 .987544
7 1 .505979 .430707 .012324
ITEM: TIMESTEP
350
ITEM: NUMBER OF ATOMS
7
ITEM: BOX BOUNDS ss ss ss
-3.0124 3.2548
-2.6626 3.3651
-2.0483 1.9149
ITEM: ATOMS id type xs ys zs
1 1 .497216 .990662 .450774
2 1 .992930 .625503 .494049
3 1 .821850 .019432 .553154
4 1 .206158 .007568 .530463
5 1 .007400 .616137 .473809
6 1 .497089 .466867 .986840
7 1 .506367 .429361 .012148
ITEM: TIMESTEP
400
ITEM: NUMBER OF ATOMS
7
ITEM: BOX BOUNDS ss ss ss
-3.0128 3.2542
-2.6660 3.3612
-2.0589 1.9096
ITEM: ATOMS id type xs ys zs
1 1 .498037 .990990 .452580
2 1 .993334 .625867 .494885
3 1 .820843 .020214 .554795
4 1 .206075 .008229 .532895
5 1 .007711 .615703 .475432
6 1 .497269 .468288 .989063
7 1 .506635 .429634 .014391
ITEM: TIMESTEP
1
ITEM: NUMBER OF ATOMS
7
ITEM: BOX BOUNDS ss ss ss
-2.9934 3.2414
-2.6457 3.3326
-2.0393 1.8960
ITEM: ATOMS id type xs ys zs
1 1 .493928 .998398 .452879
2 1 .995338 .626740 .497680
3 1 .829529 .015354 .559705
4 1 .202574 .003423 .533495
5 1 .006161 .623401 .472696
6 1 .498227 .464828 .988042
7 1 .503627 .434257 .011300
ITEM: TIMESTEP
50
ITEM: NUMBER OF ATOMS
7
ITEM: BOX BOUNDS ss ss ss
-2.9934 3.2414
-2.6525 3.3512
-2.0393 1.8960
ITEM: ATOMS id type xs ys zs
1 1 .494033 .995613 .452912
2 1 .995176 .625220 .497661
3 1 .829846 .016312 .559880
4 1 .202641 .004513 .533518
5 1 .005851 .622226 .472842
6 1 .498180 .463775 .987829
7 1 .503616 .433321 .011281
ITEM: TIMESTEP
100
ITEM: NUMBER OF ATOMS
7
ITEM: BOX BOUNDS ss ss ss
-2.9980 3.2414
-2.6649 3.3642
-2.0393 1.8960
ITEM: ATOMS id type xs ys zs
1 1 .495211 .993751 .453463
2 1 .994873 .625118 .497591
3 1 .829292 .018428 .559454
4 1 .203850 .006893 .533540
5 1 .005735 .621573 .473424
6 1 .498088 .464302 .988307
7 1 .504515 .432658 .012008
ITEM: TIMESTEP
150
ITEM: NUMBER OF ATOMS
7
ITEM: BOX BOUNDS ss ss ss
-3.0075 3.2466
-2.6600 3.3673
-2.0393 1.9008
ITEM: ATOMS id type xs ys zs
1 1 .496370 .993368 .453904
2 1 .993904 .625176 .496222
3 1 .827403 .017692 .558530
4 1 .205479 .005889 .532921
5 1 .006997 .620841 .473686
6 1 .497993 .464107 .987916
7 1 .505728 .431168 .013217
ITEM: TIMESTEP
200
ITEM: NUMBER OF ATOMS
7
ITEM: BOX BOUNDS ss ss ss
-3.0038 3.2500
-2.6714 3.3700
-2.0393 1.8977
ITEM: ATOMS id type xs ys zs
1 1 .496664 .992893 .455777
2 1 .993500 .626467 .497389
3 1 .824682 .019423 .558560
4 1 .205400 .007219 .531920
5 1 .006154 .620747 .473763
6 1 .496829 .465060 .989128
7 1 .505843 .431625 .013457
ITEM: TIMESTEP
250
ITEM: NUMBER OF ATOMS
7
ITEM: BOX BOUNDS ss ss ss
-3.0053 3.2491
-2.6665 3.3670
-2.0393 1.9006
ITEM: ATOMS id type xs ys zs
1 1 .497506 .993130 .456720
2 1 .993884 .626860 .497593
3 1 .823466 .019176 .557514
4 1 .205794 .006323 .530476
5 1 .006420 .620395 .472608
6 1 .496469 .465430 .988681
7 1 .506613 .431049 .012908
ITEM: TIMESTEP
300
ITEM: NUMBER OF ATOMS
7
ITEM: BOX BOUNDS ss ss ss
-3.0113 3.2519
-2.6866 3.3646
-2.0397 1.9073
ITEM: ATOMS id type xs ys zs
1 1 .498341 .993095 .456710
2 1 .993659 .628204 .496402
3 1 .822245 .023003 .555639
4 1 .206098 .010080 .528549
5 1 .007700 .621407 .471325
6 1 .496600 .468005 .987363
7 1 .507197 .432876 .012175
ITEM: TIMESTEP
350
ITEM: NUMBER OF ATOMS
7
ITEM: BOX BOUNDS ss ss ss
-3.0057 3.2637
-2.6760 3.3651
-2.0422 1.9004
ITEM: ATOMS id type xs ys zs
1 1 .497398 .992739 .457961
2 1 .992289 .627292 .496765
3 1 .819606 .021602 .556174
4 1 .204566 .009077 .529329
5 1 .007174 .620067 .472162
6 1 .495239 .467667 .989715
7 1 .506118 .431841 .012282
ITEM: TIMESTEP
400
ITEM: NUMBER OF ATOMS
7
ITEM: BOX BOUNDS ss ss ss
-3.0066 3.2575
-2.6680 3.3716
-2.0468 1.9048
ITEM: ATOMS id type xs ys zs
1 1 .498293 .991765 .457806
2 1 .993618 .625924 .496036
3 1 .819842 .020558 .555889
4 1 .204658 .008636 .529464
5 1 .007471 .618142 .472024
6 1 .495874 .467262 .989317
7 1 .506957 .431033 .013266
ITEM: TIMESTEP
1
ITEM: NUMBER OF ATOMS
7
ITEM: BOX BOUNDS ss ss ss
-3.0017 3.2580
-2.6483 3.3480
-2.0393 1.8960
ITEM: ATOMS id type xs ys zs
1 1 .493291 .995841 .452882
2 1 .992708 .625291 .497682
3 1 .827555 .015738 .559706
4 1 .203095 .003842 .533490
5 1 .007467 .621968 .472700
6 1 .497577 .463866 .988046
7 1 .502953 .433385 .011299
ITEM: TIMESTEP
50
ITEM: NUMBER OF ATOMS
7
ITEM: BOX BOUNDS ss ss ss
-3.0017 3.2580
-2.6547 3.3529
-2.0393 1.8960
ITEM: ATOMS id type xs ys zs
1 1 .493364 .995372 .452880
2 1 .992605 .625127 .497603
3 1 .828006 .016694 .560028
4 1 .203125 .004846 .533480
5 1 .007167 .622283 .472730
6 1 .497509 .463693 .987714
7 1 .502848 .433504 .011319
ITEM: TIMESTEP
100
ITEM: NUMBER OF ATOMS
7
ITEM: BOX BOUNDS ss ss ss
-3.0063 3.2580
-2.6662 3.3621
-2.0393 1.8960
ITEM: ATOMS id type xs ys zs
1 1 .494404 .994125 .453197
2 1 .992743 .625391 .497959
3 1 .827515 .018927 .559480
4 1 .204408 .006699 .533127
5 1 .007282 .622006 .473075
6 1 .497313 .464172 .987938
7 1 .504249 .432554 .011678
ITEM: TIMESTEP
150
ITEM: NUMBER OF ATOMS
7
ITEM: BOX BOUNDS ss ss ss
-3.0082 3.2580
-2.6669 3.3656
-2.0393 1.8960
ITEM: ATOMS id type xs ys zs
1 1 .495815 .992984 .452272
2 1 .992475 .626263 .498546
3 1 .826348 .019911 .557559
4 1 .205996 .006009 .532922
5 1 .007463 .621770 .473259
6 1 .496526 .464302 .988080
7 1 .505508 .430330 .012122
ITEM: TIMESTEP
200
ITEM: NUMBER OF ATOMS
7
ITEM: BOX BOUNDS ss ss ss
-3.0163 3.2591
-2.6734 3.3672
-2.0393 1.8960
ITEM: ATOMS id type xs ys zs
1 1 .497312 .992069 .451869
2 1 .992113 .627140 .498451
3 1 .825734 .021349 .556713
4 1 .207662 .006562 .532719
5 1 .008358 .621708 .473520
6 1 .496529 .465448 .988561
7 1 .506113 .429801 .012257
ITEM: TIMESTEP
250
ITEM: NUMBER OF ATOMS
7
ITEM: BOX BOUNDS ss ss ss
-3.0119 3.2676
-2.6811 3.3717
-2.0395 1.8997
ITEM: ATOMS id type xs ys zs
1 1 .496740 .990633 .451681
2 1 .990940 .627321 .497881
3 1 .824035 .022979 .555766
4 1 .207460 .007655 .531739
5 1 .007162 .621102 .472924
6 1 .495037 .466387 .988432
7 1 .505168 .429893 .012200
ITEM: TIMESTEP
300
ITEM: NUMBER OF ATOMS
7
ITEM: BOX BOUNDS ss ss ss
-3.0164 3.2697
-2.6830 3.3739
-2.0393 1.9002
ITEM: ATOMS id type xs ys zs
1 1 .496957 .989764 .451894
2 1 .990826 .627206 .497309
3 1 .823396 .023539 .555194
4 1 .208326 .007903 .531478
5 1 .007390 .619976 .472715
6 1 .494820 .466912 .988872
7 1 .505466 .429827 .012040
ITEM: TIMESTEP
350
ITEM: NUMBER OF ATOMS
7
ITEM: BOX BOUNDS ss ss ss
-3.0193 3.2697
-2.6845 3.3761
-2.0426 1.9066
ITEM: ATOMS id type xs ys zs
1 1 .497085 .989188 .451652
2 1 .991099 .627019 .496359
3 1 .823106 .023812 .554624
4 1 .208746 .008303 .530800
5 1 .007428 .618711 .472546
6 1 .495149 .467438 .987503
7 1 .505816 .429913 .012841
ITEM: TIMESTEP
400
ITEM: NUMBER OF ATOMS
7
ITEM: BOX BOUNDS ss ss ss
-3.0233 3.2668
-2.6816 3.3689
-2.0456 1.9151
ITEM: ATOMS id type xs ys zs
1 1 .497531 .990205 .450789
2 1 .991884 .627577 .495136
3 1 .823243 .023643 .554334
4 1 .209354 .008093 .529990
5 1 .008048 .618126 .472271
6 1 .495903 .468232 .985863
7 1 .506562 .430203 .013636
ITEM: TIMESTEP
1
ITEM: NUMBER OF ATOMS
7
ITEM: BOX BOUNDS ss ss ss
-3.0017 3.2476
-2.6719 3.3421
-2.0311 1.8957
ITEM: ATOMS id type xs ys zs
1 1 .494116 .996835 .451765
2 1 .994360 .627374 .496665
3 1 .828941 .019618 .558827
4 1 .203435 .007753 .532553
5 1 .007486 .624064 .471630
6 1 .498409 .466427 .988100
7 1 .503791 .436036 .009222
ITEM: TIMESTEP
50
ITEM: NUMBER OF ATOMS
7
ITEM: BOX BOUNDS ss ss ss
-3.0017 3.2476
-2.6719 3.3548
-2.0311 1.8957
ITEM: ATOMS id type xs ys zs
1 1 .494127 .995072 .451731
2 1 .994252 .625965 .496599
3 1 .829462 .019430 .559195
4 1 .203420 .007632 .532587
5 1 .007191 .623239 .471633
6 1 .498433 .465049 .987734
7 1 .503619 .435006 .009296
ITEM: TIMESTEP
100
ITEM: NUMBER OF ATOMS
7
ITEM: BOX BOUNDS ss ss ss
-3.0017 3.2476
-2.6719 3.3592
-2.0311 1.8957
ITEM: ATOMS id type xs ys zs
1 1 .494535 .994795 .452077
2 1 .993897 .625903 .495795
3 1 .829040 .019524 .558757
4 1 .203872 .007701 .532140
5 1 .006171 .622868 .472224
6 1 .498218 .465141 .987876
7 1 .503748 .433327 .009611
ITEM: TIMESTEP
150
ITEM: NUMBER OF ATOMS
7
ITEM: BOX BOUNDS ss ss ss
-3.0061 3.2476
-2.6719 3.3657
-2.0342 1.8957
ITEM: ATOMS id type xs ys zs
1 1 .495222 .993642 .453789
2 1 .993496 .625530 .495055
3 1 .828312 .019594 .559322
4 1 .205137 .007572 .532367
5 1 .006397 .621965 .473080
6 1 .498217 .465351 .988153
7 1 .504073 .431658 .010442
ITEM: TIMESTEP
200
ITEM: NUMBER OF ATOMS
7
ITEM: BOX BOUNDS ss ss ss
-3.0084 3.2476
-2.6755 3.3722
-2.0378 1.8979
ITEM: ATOMS id type xs ys zs
1 1 .496027 .992363 .455174
2 1 .992693 .625132 .495006
3 1 .827490 .020448 .559091
4 1 .205769 .008353 .532578
5 1 .006689 .620727 .473257
6 1 .497772 .465677 .988642
7 1 .504513 .430749 .011090
ITEM: TIMESTEP
250
ITEM: NUMBER OF ATOMS
7
ITEM: BOX BOUNDS ss ss ss
-3.0146 3.2476
-2.6778 3.3718
-2.0390 1.9084
ITEM: ATOMS id type xs ys zs
1 1 .497261 .992578 .455887
2 1 .991242 .625164 .495698
3 1 .826676 .021408 .554438
4 1 .206838 .008894 .532561
5 1 .008613 .618352 .473489
6 1 .497764 .466348 .988847
7 1 .505260 .430533 .010465
ITEM: TIMESTEP
300
ITEM: NUMBER OF ATOMS
7
ITEM: BOX BOUNDS ss ss ss
-3.0065 3.2476
-2.6777 3.3727
-2.0408 1.9169
ITEM: ATOMS id type xs ys zs
1 1 .496812 .992055 .455748
2 1 .990886 .625389 .495774
3 1 .825454 .021508 .551768
4 1 .206185 .008926 .532657
5 1 .007901 .617097 .473140
6 1 .496895 .466285 .988173
7 1 .505132 .430157 .010657
ITEM: TIMESTEP
350
ITEM: NUMBER OF ATOMS
7
ITEM: BOX BOUNDS ss ss ss
-3.0102 3.2476
-2.6846 3.3685
-2.0506 1.9147
ITEM: ATOMS id type xs ys zs
1 1 .497152 .992345 .457763
2 1 .991307 .626778 .497638
3 1 .824604 .022644 .552454
4 1 .207151 .009871 .534745
5 1 .008709 .617408 .474263
6 1 .497414 .467509 .988986
7 1 .506165 .430847 .013080
ITEM: TIMESTEP
400
ITEM: NUMBER OF ATOMS
7
ITEM: BOX BOUNDS ss ss ss
-3.0108 3.2476
-2.6859 3.3727
-2.0553 1.9184
ITEM: ATOMS id type xs ys zs
1 1 .497052 .991230 .458206
2 1 .991926 .626746 .497679
3 1 .824120 .022879 .551575
4 1 .207539 .010238 .534920
5 1 .008826 .616296 .474193
6 1 .497670 .467473 .988557
7 1 .506868 .430643 .014451
ITEM: TIMESTEP
1
ITEM: NUMBER OF ATOMS
7
ITEM: BOX BOUNDS ss ss ss
-2.9801 3.2351
-2.6462 3.3357
-2.0316 1.9149
ITEM: ATOMS id type xs ys zs
1 1 .493346 .997876 .449637
2 1 .996343 .626441 .494314
3 1 .830017 .015429 .556168
4 1 .201072 .003505 .530021
5 1 .004043 .623112 .469403
6 1 .497664 .464629 .983280
7 1 .503070 .434077 .009319
ITEM: TIMESTEP
50
ITEM: NUMBER OF ATOMS
7
ITEM: BOX BOUNDS ss ss ss
-2.9880 3.2395
-2.6556 3.3589
-2.0316 1.9149
ITEM: ATOMS id type xs ys zs
1 1 .493590 .994401 .449629
2 1 .995502 .624499 .494284
3 1 .830354 .016684 .556597
4 1 .201949 .004908 .529963
5 1 .005080 .621877 .469407
6 1 .497983 .463226 .982830
7 1 .503123 .433224 .009410
ITEM: TIMESTEP
100
ITEM: NUMBER OF ATOMS
7
ITEM: BOX BOUNDS ss ss ss
-2.9956 3.2486
-2.6626 3.3602
-2.0388 1.9149
ITEM: ATOMS id type xs ys zs
1 1 .493925 .994634 .451001
2 1 .993753 .624996 .495030
3 1 .829192 .017589 .557071
4 1 .203143 .006270 .530210
5 1 .005594 .622152 .471072
6 1 .497664 .463772 .982911
7 1 .503469 .432996 .011231
ITEM: TIMESTEP
150
ITEM: NUMBER OF ATOMS
7
ITEM: BOX BOUNDS ss ss ss
-3.0052 3.2599
-2.6673 3.3749
-2.0422 1.9149
ITEM: ATOMS id type xs ys zs
1 1 .494448 .992919 .452495
2 1 .991923 .623868 .495029
3 1 .826743 .018878 .557468
4 1 .204164 .007829 .530558
5 1 .006543 .620364 .472808
6 1 .497406 .463996 .982935
7 1 .503513 .431783 .011175
ITEM: TIMESTEP
200
ITEM: NUMBER OF ATOMS
7
ITEM: BOX BOUNDS ss ss ss
-3.0088 3.2460
-2.6655 3.3775
-2.0392 1.9149
ITEM: ATOMS id type xs ys zs
1 1 .496485 .992958 .454232
2 1 .994410 .624076 .493957
3 1 .826777 .019818 .557133
4 1 .204782 .009012 .531111
5 1 .006874 .620107 .473726
6 1 .498695 .465535 .982864
7 1 .505082 .431508 .009920
ITEM: TIMESTEP
250
ITEM: NUMBER OF ATOMS
7
ITEM: BOX BOUNDS ss ss ss
-3.0036 3.2545
-2.6627 3.3804
-2.0381 1.9149
ITEM: ATOMS id type xs ys zs
1 1 .495662 .992494 .454701
2 1 .992809 .624036 .493019
3 1 .824673 .019442 .557035
4 1 .204043 .009079 .531058
5 1 .005726 .619823 .473364
6 1 .497408 .465990 .983341
7 1 .504360 .430763 .009998
ITEM: TIMESTEP
300
ITEM: NUMBER OF ATOMS
7
ITEM: BOX BOUNDS ss ss ss
-3.0156 3.2572
-2.6625 3.3799
-2.0450 1.9149
ITEM: ATOMS id type xs ys zs
1 1 .496601 .992430 .455925
2 1 .992196 .624252 .492529
3 1 .823688 .019430 .557983
4 1 .205887 .009295 .532087
5 1 .007509 .619340 .474451
6 1 .497660 .467117 .984161
7 1 .505642 .430292 .011708
ITEM: TIMESTEP
350
ITEM: NUMBER OF ATOMS
7
ITEM: BOX BOUNDS ss ss ss
-3.0134 3.2712
-2.6625 3.3746
-2.0534 1.9149
ITEM: ATOMS id type xs ys zs
1 1 .495631 .993157 .457398
2 1 .989666 .624580 .492155
3 1 .820095 .019563 .558903
4 1 .205285 .009701 .533512
5 1 .007186 .619109 .475764
6 1 .496038 .468368 .985206
7 1 .504385 .430514 .013434
ITEM: TIMESTEP
400
ITEM: NUMBER OF ATOMS
7
ITEM: BOX BOUNDS ss ss ss
-3.0155 3.2679
-2.6710 3.3754
-2.0483 1.9149
ITEM: ATOMS id type xs ys zs
1 1 .496046 .992216 .458429
2 1 .989938 .624459 .491080
3 1 .818980 .021114 .557799
4 1 .204922 .012431 .533015
5 1 .007166 .618778 .475257
6 1 .496282 .469128 .987138
7 1 .504233 .431563 .011702
ITEM: TIMESTEP
1
ITEM: NUMBER OF ATOMS
7
ITEM: BOX BOUNDS ss ss ss
-3.0018 3.2344
-2.6361 3.3586
-2.0209 1.9077
ITEM: ATOMS id type xs ys zs
1 1 .495165 .994062 .448966
2 1 .996469 .623415 .493843
3 1 .830703 .013706 .555980
4 1 .203876 .001804 .529718
5 1 .007513 .620097 .468817
6 1 .499472 .461946 .985042
7 1 .504861 .431464 .006634
ITEM: TIMESTEP
50
ITEM: NUMBER OF ATOMS
7
ITEM: BOX BOUNDS ss ss ss
-3.0018 3.2372
-2.6550 3.3586
-2.0216 1.9077
ITEM: ATOMS id type xs ys zs
1 1 .494878 .994465 .448999
2 1 .995910 .624445 .493916
3 1 .831107 .016625 .556521
4 1 .203729 .004758 .529872
5 1 .007300 .621866 .468814
6 1 .499284 .463172 .984586
7 1 .504334 .433240 .006843
ITEM: TIMESTEP
100
ITEM: NUMBER OF ATOMS
7
ITEM: BOX BOUNDS ss ss ss
-3.0018 3.2506
-2.6608 3.3674
-2.0301 1.9077
ITEM: ATOMS id type xs ys zs
1 1 .494692 .993350 .450536
2 1 .993712 .624155 .494513
3 1 .829219 .017773 .557438
4 1 .203247 .006492 .530484
5 1 .006175 .621728 .470895
6 1 .497716 .463419 .984222
7 1 .503577 .432214 .009085
ITEM: TIMESTEP
150
ITEM: NUMBER OF ATOMS
7
ITEM: BOX BOUNDS ss ss ss
-3.0107 3.2530
-2.6691 3.3777
-2.0389 1.9077
ITEM: ATOMS id type xs ys zs
1 1 .496400 .991164 .452479
2 1 .993217 .624199 .494859
3 1 .828733 .019875 .558573
4 1 .203878 .009070 .531250
5 1 .006827 .621684 .472902
6 1 .497569 .464168 .984255
7 1 .504285 .431533 .010870
ITEM: TIMESTEP
200
ITEM: NUMBER OF ATOMS
7
ITEM: BOX BOUNDS ss ss ss
-3.0234 3.2527
-2.6711 3.3679
-2.0443 1.9077
ITEM: ATOMS id type xs ys zs
1 1 .498336 .992694 .454098
2 1 .993237 .625588 .494706
3 1 .828539 .020631 .558960
4 1 .205436 .010396 .531257
5 1 .008530 .622954 .473884
6 1 .498310 .465789 .984003
7 1 .505823 .431782 .011398
ITEM: TIMESTEP
250
ITEM: NUMBER OF ATOMS
7
ITEM: BOX BOUNDS ss ss ss
-3.0149 3.2574
-2.6648 3.3712
-2.0470 1.9077
ITEM: ATOMS id type xs ys zs
1 1 .499109 .992895 .456518
2 1 .993630 .625156 .493890
3 1 .826587 .020667 .556929
4 1 .204812 .009459 .528388
5 1 .007613 .621571 .472247
6 1 .496970 .465514 .981557
7 1 .506561 .431297 .010269
ITEM: TIMESTEP
300
ITEM: NUMBER OF ATOMS
7
ITEM: BOX BOUNDS ss ss ss
-3.0158 3.2656
-2.6534 3.3733
-2.0528 1.9077
ITEM: ATOMS id type xs ys zs
1 1 .499434 .992432 .458750
2 1 .993297 .624448 .494344
3 1 .824517 .019711 .556275
4 1 .204937 .007325 .526048
5 1 .008191 .620416 .471917
6 1 .495810 .464627 .981106
7 1 .506936 .430469 .010605
ITEM: TIMESTEP
350
ITEM: NUMBER OF ATOMS
7
ITEM: BOX BOUNDS ss ss ss
-3.0048 3.2687
-2.6551 3.3704
-2.0604 1.9077
ITEM: ATOMS id type xs ys zs
1 1 .498937 .992406 .460296
2 1 .993249 .624774 .495440
3 1 .822701 .020311 .556798
4 1 .203302 .007746 .524822
5 1 .006505 .620616 .472325
6 1 .494147 .465554 .982732
7 1 .506099 .431226 .012800
ITEM: TIMESTEP
400
ITEM: NUMBER OF ATOMS
7
ITEM: BOX BOUNDS ss ss ss
-3.0084 3.2767
-2.6585 3.3710
-2.0569 1.9077
ITEM: ATOMS id type xs ys zs
1 1 .499441 .992082 .459620
2 1 .992075 .624640 .495428
3 1 .820558 .021183 .555496
4 1 .202606 .008893 .522659
5 1 .006975 .619941 .470674
6 1 .493278 .466116 .983581
7 1 .505727 .431582 .011709
ITEM: TIMESTEP
1
ITEM: NUMBER OF ATOMS
7
ITEM: BOX BOUNDS ss ss ss
-3.0018 3.2556
-2.6361 3.3586
-2.0372 1.9077
ITEM: ATOMS id type xs ys zs
1 1 .493486 .994064 .451235
2 1 .993086 .623413 .495933
3 1 .827881 .013703 .557811
4 1 .203182 .001805 .531654
5 1 .007487 .620096 .471011
6 1 .497776 .461947 .985100
7 1 .503142 .431464 .010731
ITEM: TIMESTEP
50
ITEM: NUMBER OF ATOMS
7
ITEM: BOX BOUNDS ss ss ss
-3.0018 3.2556
-2.6541 3.3586
-2.0372 1.9077
ITEM: ATOMS id type xs ys zs
1 1 .493335 .994507 .451112
2 1 .992937 .624406 .495958
3 1 .828687 .016412 .558432
4 1 .203095 .004574 .531731
5 1 .007283 .621909 .470975
6 1 .497741 .463014 .984534
7 1 .502841 .433230 .010804
ITEM: TIMESTEP
100
ITEM: NUMBER OF ATOMS
7
ITEM: BOX BOUNDS ss ss ss
-3.0018 3.2556
-2.6693 3.3702
-2.0372 1.9077
ITEM: ATOMS id type xs ys zs
1 1 .494032 .993300 .451404
2 1 .992523 .624253 .496159
3 1 .828834 .018831 .558162
4 1 .203497 .007493 .531714
5 1 .006280 .621653 .471674
6 1 .497407 .463784 .984267
7 1 .503323 .432881 .010754
ITEM: TIMESTEP
150
ITEM: NUMBER OF ATOMS
7
ITEM: BOX BOUNDS ss ss ss
-3.0213 3.2556
-2.6656 3.3738
-2.0372 1.9077
ITEM: ATOMS id type xs ys zs
1 1 .496514 .993209 .451502
2 1 .992420 .623831 .496742
3 1 .829263 .018178 .557650
4 1 .206704 .007239 .531588
5 1 .008701 .620897 .472147
6 1 .498446 .463914 .983940
7 1 .505422 .431600 .010587
ITEM: TIMESTEP
200
ITEM: NUMBER OF ATOMS
7
ITEM: BOX BOUNDS ss ss ss
-3.0281 3.2556
-2.6720 3.3801
-2.0393 1.9077
ITEM: ATOMS id type xs ys zs
1 1 .497442 .992130 .452779
2 1 .992327 .624367 .497373
3 1 .828946 .019609 .557321
4 1 .208277 .008528 .531548
5 1 .009191 .620632 .471998
6 1 .498776 .464258 .984227
7 1 .506359 .431413 .011392
ITEM: TIMESTEP
250
ITEM: NUMBER OF ATOMS
7
ITEM: BOX BOUNDS ss ss ss
-3.0227 3.2556
-2.6782 3.3819
-2.0382 1.9077
ITEM: ATOMS id type xs ys zs
1 1 .497339 .991185 .453490
2 1 .992536 .625123 .497551
3 1 .827935 .021025 .556348
4 1 .208081 .009795 .531235
5 1 .007894 .620682 .471635
6 1 .498284 .465055 .984762
7 1 .506146 .431698 .011329
ITEM: TIMESTEP
300
ITEM: NUMBER OF ATOMS
7
ITEM: BOX BOUNDS ss ss ss
-3.0193 3.2631
-2.6870 3.3825
-2.0403 1.9115
ITEM: ATOMS id type xs ys zs
1 1 .497021 .990965 .454036
2 1 .991463 .626969 .498302
3 1 .826316 .023027 .554947
4 1 .207169 .011837 .531757
5 1 .006752 .620493 .471906
6 1 .496993 .466719 .984426
7 1 .505416 .432256 .012831
ITEM: TIMESTEP
350
ITEM: NUMBER OF ATOMS
7
ITEM: BOX BOUNDS ss ss ss
-3.0229 3.2706
-2.6810 3.3784
-2.0480 1.9077
ITEM: ATOMS id type xs ys zs
1 1 .497452 .992065 .455632
2 1 .990459 .628018 .500497
3 1 .824870 .022993 .555476
4 1 .207316 .011427 .533255
5 1 .007367 .620241 .474424
6 1 .496284 .467771 .985943
7 1 .505704 .431397 .015008
ITEM: TIMESTEP
400
ITEM: NUMBER OF ATOMS
7
ITEM: BOX BOUNDS ss ss ss
-3.0274 3.2781
-2.6769 3.3769
-2.0378 1.9077
ITEM: ATOMS id type xs ys zs
1 1 .497726 .992469 .453842
2 1 .988896 .628461 .499588
3 1 .823220 .023101 .553978
4 1 .207999 .011143 .531797
5 1 .008802 .620390 .473795
6 1 .495895 .468258 .986590
7 1 .505877 .430619 .012148
ITEM: TIMESTEP
1
ITEM: NUMBER OF ATOMS
7
ITEM: BOX BOUNDS ss ss ss
-3.0018 3.2556
-2.6431 3.3586
-2.0372 1.9077
ITEM: ATOMS id type xs ys zs
1 1 .493481 .994068 .451235
2 1 .993083 .623852 .495937
3 1 .827883 .014847 .557813
4 1 .203182 .002964 .531656
5 1 .007489 .620541 .471009
6 1 .497775 .462572 .985099
7 1 .503144 .432129 .010730
ITEM: TIMESTEP
50
ITEM: NUMBER OF ATOMS
7
ITEM: BOX BOUNDS ss ss ss
-3.0018 3.2556
-2.6528 3.3586
-2.0372 1.9077
ITEM: ATOMS id type xs ys zs
1 1 .493318 .994478 .451150
2 1 .992909 .624247 .496025
3 1 .828803 .016146 .558455
4 1 .203082 .004305 .531714
5 1 .007309 .621938 .470914
6 1 .497834 .462891 .984531
7 1 .502843 .433171 .010771
ITEM: TIMESTEP
100
ITEM: NUMBER OF ATOMS
7
ITEM: BOX BOUNDS ss ss ss
-3.0018 3.2556
-2.6665 3.3713
-2.0372 1.9077
ITEM: ATOMS id type xs ys zs
1 1 .493694 .992829 .451879
2 1 .992481 .623623 .496045
3 1 .828652 .017845 .558898
4 1 .203630 .007063 .531045
5 1 .006248 .621369 .470890
6 1 .497404 .463306 .984385
7 1 .503226 .432354 .010465
ITEM: TIMESTEP
150
ITEM: NUMBER OF ATOMS
7
ITEM: BOX BOUNDS ss ss ss
-3.0067 3.2556
-2.6652 3.3642
-2.0464 1.9077
ITEM: ATOMS id type xs ys zs
1 1 .494220 .993889 .454172
2 1 .991925 .623695 .496706
3 1 .828061 .016876 .560435
4 1 .204516 .007740 .531370
5 1 .006525 .621694 .470560
6 1 .497277 .464373 .984415
7 1 .504124 .430906 .011429
ITEM: TIMESTEP
200
ITEM: NUMBER OF ATOMS
7
ITEM: BOX BOUNDS ss ss ss
-3.0167 3.2643
-2.6666 3.3736
-2.0518 1.9077
ITEM: ATOMS id type xs ys zs
1 1 .494713 .992240 .455165
2 1 .989959 .623026 .496712
3 1 .826753 .016718 .561400
4 1 .205233 .008668 .531084
5 1 .007779 .621055 .471047
6 1 .497135 .464195 .984241
7 1 .504754 .429231 .012493
ITEM: TIMESTEP
250
ITEM: NUMBER OF ATOMS
7
ITEM: BOX BOUNDS ss ss ss
-3.0140 3.2556
-2.6618 3.3746
-2.0517 1.9077
ITEM: ATOMS id type xs ys zs
1 1 .495810 .992420 .454964
2 1 .991098 .623309 .495597
3 1 .827062 .016457 .561277
4 1 .204338 .008418 .530200
5 1 .007323 .621060 .471850
6 1 .497227 .464319 .984144
7 1 .505887 .427980 .013123
ITEM: TIMESTEP
300
ITEM: NUMBER OF ATOMS
7
ITEM: BOX BOUNDS ss ss ss
-3.0110 3.2556
-2.6629 3.3820
-2.0493 1.9077
ITEM: ATOMS id type xs ys zs
1 1 .496308 .991252 .454553
2 1 .991405 .622984 .494389
3 1 .826106 .017245 .560446
4 1 .203782 .008331 .530129
5 1 .006647 .620364 .473162
6 1 .496895 .464497 .983782
7 1 .505417 .427479 .013040
ITEM: TIMESTEP
350
ITEM: NUMBER OF ATOMS
7
ITEM: BOX BOUNDS ss ss ss
-3.0183 3.2556
-2.6770 3.3830
-2.0504 1.9077
ITEM: ATOMS id type xs ys zs
1 1 .497544 .990301 .454894
2 1 .991928 .623071 .494517
3 1 .825472 .019528 .559251
4 1 .205416 .009288 .530841
5 1 .007550 .620882 .473087
6 1 .496837 .465742 .983381
7 1 .505631 .428250 .013139
ITEM: TIMESTEP
400
ITEM: NUMBER OF ATOMS
7
ITEM: BOX BOUNDS ss ss ss
-3.0209 3.2584
-2.6908 3.3766
-2.0472 1.9077
ITEM: ATOMS id type xs ys zs
1 1 .498167 .990672 .454612
2 1 .991588 .623751 .493560
3 1 .824586 .021739 .556572
4 1 .206501 .009791 .530959
5 1 .007946 .621377 .471117
6 1 .496138 .467149 .983252
7 1 .505282 .429453 .012660
ITEM: TIMESTEP
1
ITEM: NUMBER OF ATOMS
7
ITEM: BOX BOUNDS ss ss ss
-2.9969 3.2437
-2.6637 3.3428
-2.0252 1.8689
ITEM: ATOMS id type xs ys zs
1 1 .494023 .996703 .454041
2 1 .994970 .626782 .499320
3 1 .829328 .018270 .562006
4 1 .202944 .006391 .535510
5 1 .006728 .623473 .474071
6 1 .498330 .465632 .994867
7 1 .503711 .435212 .007794
ITEM: TIMESTEP
50
ITEM: NUMBER OF ATOMS
7
ITEM: BOX BOUNDS ss ss ss
-2.9969 3.2437
-2.6637 3.3559
-2.0252 1.8779
ITEM: ATOMS id type xs ys zs
1 1 .493836 .994922 .452928
2 1 .994824 .625256 .498230
3 1 .830307 .017964 .561417
4 1 .202796 .006081 .534386
5 1 .006640 .622945 .472807
6 1 .498405 .463969 .991970
7 1 .503316 .434420 .007755
ITEM: TIMESTEP
100
ITEM: NUMBER OF ATOMS
7
ITEM: BOX BOUNDS ss ss ss
-3.0031 3.2535
-2.6684 3.3711
-2.0311 1.8844
ITEM: ATOMS id type xs ys zs
1 1 .494085 .992843 .453581
2 1 .993024 .624312 .497559
3 1 .829484 .018597 .561210
4 1 .203408 .006929 .534096
5 1 .006719 .621994 .473075
6 1 .497863 .462641 .990037
7 1 .503137 .432906 .009237
ITEM: TIMESTEP
150
ITEM: NUMBER OF ATOMS
7
ITEM: BOX BOUNDS ss ss ss
-3.0124 3.2587
-2.6702 3.3759
-2.0376 1.8847
ITEM: ATOMS id type xs ys zs
1 1 .494607 .991834 .456195
2 1 .991664 .624535 .496878
3 1 .828960 .019402 .561479
4 1 .204710 .006945 .534436
5 1 .007340 .622204 .474372
6 1 .497092 .462502 .990151
7 1 .503166 .431434 .010360
ITEM: TIMESTEP
200
ITEM: NUMBER OF ATOMS
7
ITEM: BOX BOUNDS ss ss ss
-3.0228 3.2509
-2.6788 3.3690
-2.0399 1.8926
ITEM: ATOMS id type xs ys zs
1 1 .495389 .992119 .458054
2 1 .991424 .627306 .494709
3 1 .829375 .022252 .560658
4 1 .207820 .006437 .533291
5 1 .008286 .623623 .475790
6 1 .496866 .463705 .988802
7 1 .503794 .431545 .010292
ITEM: TIMESTEP
250
ITEM: NUMBER OF ATOMS
7
ITEM: BOX BOUNDS ss ss ss
-3.0240 3.2437
-2.6927 3.3711
-2.0404 1.8864
ITEM: ATOMS id type xs ys zs
1 1 .496429 .991510 .458901
2 1 .992006 .628565 .494797
3 1 .829523 .024685 .560956
4 1 .208956 .007855 .533484
5 1 .008224 .624296 .477408
6 1 .496556 .464567 .990359
7 1 .504896 .431462 .010892
ITEM: TIMESTEP
300
ITEM: NUMBER OF ATOMS
7
ITEM: BOX BOUNDS ss ss ss
-3.0186 3.2437
-2.6991 3.3685
-2.0460 1.8974
ITEM: ATOMS id type xs ys zs
1 1 .496605 .991534 .458813
2 1 .992128 .629730 .493869
3 1 .828529 .025871 .558729
4 1 .208329 .008235 .531672
5 1 .007304 .624896 .476244
6 1 .495435 .464924 .987899
7 1 .505055 .431447 .013327
ITEM: TIMESTEP
350
ITEM: NUMBER OF ATOMS
7
ITEM: BOX BOUNDS ss ss ss
-3.0183 3.2437
-2.7040 3.3666
-2.0415 1.8908
ITEM: ATOMS id type xs ys zs
1 1 .496958 .992489 .460272
2 1 .992337 .630910 .494559
3 1 .827436 .026392 .557432
4 1 .207695 .008708 .531531
5 1 .006589 .624094 .476793
6 1 .494820 .465782 .989661
7 1 .505367 .431951 .014144
ITEM: TIMESTEP
400
ITEM: NUMBER OF ATOMS
7
ITEM: BOX BOUNDS ss ss ss
-3.0271 3.2474
-2.7085 3.3759
-2.0380 1.8976
ITEM: ATOMS id type xs ys zs
1 1 .497465 .991455 .460134
2 1 .991796 .630713 .493103
3 1 .826450 .027339 .555882
4 1 .208057 .009137 .529381
5 1 .007326 .622719 .475897
6 1 .494921 .466244 .988086
7 1 .505517 .431829 .014404
ITEM: TIMESTEP
1
ITEM: NUMBER OF ATOMS
7
ITEM: BOX BOUNDS ss ss ss
-3.0109 3.2235
-2.6920 3.3618
-2.0159 1.8852
ITEM: ATOMS id type xs ys zs
1 1 .496763 .993589 .450849
2 1 .998206 .626557 .496046
3 1 .832399 .022803 .558622
4 1 .205389 .011016 .532179
5 1 .008975 .623276 .470840
6 1 .501072 .466665 .990715
7 1 .506457 .436490 .005387
ITEM: TIMESTEP
50
ITEM: NUMBER OF ATOMS
7
ITEM: BOX BOUNDS ss ss ss
-3.0109 3.2421
-2.6920 3.3618
-2.0215 1.8852
ITEM: ATOMS id type xs ys zs
1 1 .495101 .993972 .451537
2 1 .995049 .626317 .496792
3 1 .830994 .022504 .559938
4 1 .204612 .010695 .532983
5 1 .008811 .624098 .471470
6 1 .499634 .466033 .990071
7 1 .504514 .436640 .006871
ITEM: TIMESTEP
100
ITEM: NUMBER OF ATOMS
7
ITEM: BOX BOUNDS ss ss ss
-3.0109 3.2460
-2.6920 3.3732
-2.0318 1.8866
ITEM: ATOMS id type xs ys zs
1 1 .495482 .992611 .453207
2 1 .993880 .625448 .497604
3 1 .830721 .022200 .560719
4 1 .204691 .010893 .533849
5 1 .008056 .623413 .473261
6 1 .498762 .464869 .989545
7 1 .504798 .435020 .009752
ITEM: TIMESTEP
150
ITEM: NUMBER OF ATOMS
7
ITEM: BOX BOUNDS ss ss ss
-3.0109 3.2524
-2.6920 3.3782
-2.0396 1.8852
ITEM: ATOMS id type xs ys zs
1 1 .496473 .991126 .455909
2 1 .993251 .625028 .496896
3 1 .828735 .021775 .562631
4 1 .205766 .011831 .534785
5 1 .007452 .622505 .474096
6 1 .497353 .465201 .989252
7 1 .505985 .434187 .011072
ITEM: TIMESTEP
200
ITEM: NUMBER OF ATOMS
7
ITEM: BOX BOUNDS ss ss ss
-3.0131 3.2483
-2.6920 3.3685
-2.0394 1.8890
ITEM: ATOMS id type xs ys zs
1 1 .497977 .992373 .457162
2 1 .994069 .625735 .494065
3 1 .829117 .021704 .563595
4 1 .207298 .012659 .533546
5 1 .006880 .623113 .473320
6 1 .497594 .466823 .987703
7 1 .506909 .434667 .009906
ITEM: TIMESTEP
250
ITEM: NUMBER OF ATOMS
7
ITEM: BOX BOUNDS ss ss ss
-3.0292 3.2552
-2.6920 3.3704
-2.0409 1.8905
ITEM: ATOMS id type xs ys zs
1 1 .499465 .992516 .457312
2 1 .992546 .625635 .493165
3 1 .827709 .021893 .563224
4 1 .209948 .012248 .533566
5 1 .009573 .622933 .473789
6 1 .498618 .467011 .988406
7 1 .507589 .433394 .011143
ITEM: TIMESTEP
300
ITEM: NUMBER OF ATOMS
7
ITEM: BOX BOUNDS ss ss ss
-3.0207 3.2559
-2.6920 3.3732
-2.0370 1.8946
ITEM: ATOMS id type xs ys zs
1 1 .500077 .992631 .456636
2 1 .992141 .625025 .491224
3 1 .826084 .021425 .562015
4 1 .209533 .011735 .533689
5 1 .009789 .622370 .472682
6 1 .498393 .467136 .989319
7 1 .506953 .432206 .011473
ITEM: TIMESTEP
350
ITEM: NUMBER OF ATOMS
7
ITEM: BOX BOUNDS ss ss ss
-3.0171 3.2592
-2.6920 3.3765
-2.0415 1.8975
ITEM: ATOMS id type xs ys zs
1 1 .499741 .992227 .457277