ITEM: TIMESTEP
1
ITEM: NUMBER OF ATOMS
7
ITEM: BOX BOUNDS ss ss ss
-2.9587 3.2160
-2.6288 3.3269
-1.9986 1.8531
ITEM: ATOMS id type xs ys zs
1 1 .493212 .999316 .452169
2 1 .999426 .626315 .497886
3 1 .831809 .012615 .561141
4 1 .198985 .000670 .534465
5 1 .000555 .622790 .472426
6 1 .497452 .463828 .999017
7 1 .503000 .432982 .000969
ITEM: TIMESTEP
50
ITEM: NUMBER OF ATOMS
7
ITEM: BOX BOUNDS ss ss ss
-2.9831 3.2396
-2.6510 3.3488
-2.0224 1.8775
ITEM: ATOMS id type xs ys zs
1 1 .493317 .994301 .453660
2 1 .994317 .625312 .499174
3 1 .826345 .017240 .559131
4 1 .200851 .005186 .533368
5 1 .003125 .620931 .472342
6 1 .495662 .464357 .992774
7 1 .504887 .430860 .005172
ITEM: TIMESTEP
100
ITEM: NUMBER OF ATOMS
7
ITEM: BOX BOUNDS ss ss ss
-2.9949 3.2458
-2.6659 3.3609
-2.0309 1.8854
ITEM: ATOMS id type xs ys zs
1 1 .495344 .993696 .452324
2 1 .993680 .625485 .496212
3 1 .825225 .018214 .555663
4 1 .202056 .009450 .530763
5 1 .004389 .619241 .472632
6 1 .499041 .467497 .993409
7 1 .505260 .433727 .007768
ITEM: TIMESTEP
150
ITEM: NUMBER OF ATOMS
7
ITEM: BOX BOUNDS ss ss ss
-3.0049 3.2462
-2.6633 3.3710
-2.0314 1.8903
ITEM: ATOMS id type xs ys zs
1 1 .495647 .991665 .448601
2 1 .993347 .625574 .495841
3 1 .824243 .019324 .554001
4 1 .204243 .010638 .531213
5 1 .005867 .616115 .473400
6 1 .499850 .466903 .991665
7 1 .504963 .431460 .006181
ITEM: TIMESTEP
200
ITEM: NUMBER OF ATOMS
7
ITEM: BOX BOUNDS ss ss ss
-3.0088 3.2459
-2.6614 3.3636
-2.0397 1.8923
ITEM: ATOMS id type xs ys zs
1 1 .498791 .992352 .450117
2 1 .994923 .626329 .495906
3 1 .823051 .018929 .549696
4 1 .204232 .009490 .534201
5 1 .008200 .616440 .471839
6 1 .500773 .466708 .990274
7 1 .505862 .432305 .005858
ITEM: TIMESTEP
250
ITEM: NUMBER OF ATOMS
7
ITEM: BOX BOUNDS ss ss ss
-3.0062 3.2534
-2.6647 3.3606
-2.0478 1.8974
ITEM: ATOMS id type xs ys zs
1 1 .497962 .992182 .448530
2 1 .994202 .627161 .497326
3 1 .820900 .019425 .548157
4 1 .204585 .009165 .536540
5 1 .008319 .616032 .473258
6 1 .499065 .467896 .989680
7 1 .506127 .433567 .007186
ITEM: TIMESTEP
300
ITEM: NUMBER OF ATOMS
7
ITEM: BOX BOUNDS ss ss ss
-3.0116 3.2582
-2.6681 3.3600
-2.0481 1.9085
ITEM: ATOMS id type xs ys zs
1 1 .498360 .991811 .446276
2 1 .993770 .626507 .496478
3 1 .819485 .020177 .550827
4 1 .206782 .009520 .538011
5 1 .009975 .614510 .470380
6 1 .499007 .468824 .990426
7 1 .508922 .433424 .007341
ITEM: TIMESTEP
350
ITEM: NUMBER OF ATOMS
7
ITEM: BOX BOUNDS ss ss ss
-3.0124 3.2548
-2.6626 3.3651
-2.0483 1.9149
ITEM: ATOMS id type xs ys zs
1 1 .499507 .990733 .447204
2 1 .994119 .625175 .495179
3 1 .818793 .019763 .549408
4 1 .205730 .009081 .532469
5 1 .009659 .614233 .471251
6 1 .498681 .468616 .988820
7 1 .507995 .430758 .008478
ITEM: TIMESTEP
400
ITEM: NUMBER OF ATOMS
7
ITEM: BOX BOUNDS ss ss ss
-3.0128 3.2542
-2.6660 3.3612
-2.0589 1.9096
ITEM: ATOMS id type xs ys zs
1 1 .497773 .991034 .452148
2 1 .993750 .626391 .497641
3 1 .818119 .020728 .549352
4 1 .206793 .009838 .532689
5 1 .008696 .613645 .473622
6 1 .498150 .468580 .989430
7 1 .508322 .432095 .010098
ITEM: TIMESTEP
1
ITEM: NUMBER OF ATOMS
7
ITEM: BOX BOUNDS ss ss ss
-2.9934 3.2414
-2.6457 3.3326
-2.0393 1.8960
ITEM: ATOMS id type xs ys zs
1 1 .494010 .998380 .452935
2 1 .995334 .626809 .497653
3 1 .829356 .015402 .559559
4 1 .202631 .003509 .533461
5 1 .006118 .623253 .472777
6 1 .498201 .464894 .988128
7 1 .503727 .434160 .011303
ITEM: TIMESTEP
50
ITEM: NUMBER OF ATOMS
7
ITEM: BOX BOUNDS ss ss ss
-2.9934 3.2414
-2.6525 3.3512
-2.0393 1.8960
ITEM: ATOMS id type xs ys zs
1 1 .494610 .995030 .453855
2 1 .995636 .626081 .496951
3 1 .826849 .016556 .559728
4 1 .203963 .005276 .532413
5 1 .004855 .620013 .471293
6 1 .498772 .466419 .988810
7 1 .503187 .432530 .011073
ITEM: TIMESTEP
100
ITEM: NUMBER OF ATOMS
7
ITEM: BOX BOUNDS ss ss ss
-2.9980 3.2414
-2.6649 3.3642
-2.0393 1.8960
ITEM: ATOMS id type xs ys zs
1 1 .496708 .992762 .456561
2 1 .995119 .626303 .498206
3 1 .825073 .018568 .557445
4 1 .205028 .006027 .532921
5 1 .005565 .620198 .472510
6 1 .498300 .465337 .989416
7 1 .505857 .432858 .013960
ITEM: TIMESTEP
150
ITEM: NUMBER OF ATOMS
7
ITEM: BOX BOUNDS ss ss ss
-3.0075 3.2466
-2.6600 3.3673
-2.0393 1.9008
ITEM: ATOMS id type xs ys zs
1 1 .497874 .991797 .458680
2 1 .992945 .626477 .497131
3 1 .821917 .020233 .554593
4 1 .205343 .006186 .530898
5 1 .006610 .619311 .473187
6 1 .498141 .463112 .989555
7 1 .507670 .431834 .012381
ITEM: TIMESTEP
200
ITEM: NUMBER OF ATOMS
7
ITEM: BOX BOUNDS ss ss ss
-3.0038 3.2500
-2.6714 3.3700
-2.0393 1.8977
ITEM: ATOMS id type xs ys zs
1 1 .497892 .991340 .455489
2 1 .995078 .625782 .495118
3 1 .821086 .021384 .556025
4 1 .204733 .008577 .528429
5 1 .007174 .619271 .470734
6 1 .497268 .467518 .988685
7 1 .506402 .431484 .011181
ITEM: TIMESTEP
250
ITEM: NUMBER OF ATOMS
7
ITEM: BOX BOUNDS ss ss ss
-3.0053 3.2491
-2.6665 3.3670
-2.0393 1.9006
ITEM: ATOMS id type xs ys zs
1 1 .497942 .990693 .456185
2 1 .994339 .626553 .498514
3 1 .820984 .019563 .553801
4 1 .203040 .007544 .528614
5 1 .007229 .619029 .473288
6 1 .496809 .465445 .991609
7 1 .507617 .430167 .011390
ITEM: TIMESTEP
300
ITEM: NUMBER OF ATOMS
7
ITEM: BOX BOUNDS ss ss ss
-3.0113 3.2519
-2.6866 3.3646
-2.0397 1.9073
ITEM: ATOMS id type xs ys zs
1 1 .498172 .992987 .455923
2 1 .994981 .627797 .492874
3 1 .820212 .024011 .553056
4 1 .204871 .012483 .528683
5 1 .007589 .619364 .471724
6 1 .497179 .470259 .988560
7 1 .507815 .434556 .010091
ITEM: TIMESTEP
350
ITEM: NUMBER OF ATOMS
7
ITEM: BOX BOUNDS ss ss ss
-3.0057 3.2637
-2.6760 3.3651
-2.0422 1.9004
ITEM: ATOMS id type xs ys zs
1 1 .497179 .991505 .455741
2 1 .994523 .626606 .503269
3 1 .818907 .021511 .555412
4 1 .207691 .009924 .528987
5 1 .007631 .616341 .472037
6 1 .496081 .468630 .992045
7 1 .508639 .435178 .012302
ITEM: TIMESTEP
400
ITEM: NUMBER OF ATOMS
7
ITEM: BOX BOUNDS ss ss ss
-3.0066 3.2575
-2.6680 3.3716
-2.0468 1.9048
ITEM: ATOMS id type xs ys zs
1 1 .499168 .991438 .457473
2 1 .995532 .624305 .499179
3 1 .816804 .021864 .557050
4 1 .204887 .008965 .528603
5 1 .007515 .615299 .470383
6 1 .495927 .468565 .992360
7 1 .508600 .433366 .012734
ITEM: TIMESTEP
1
ITEM: NUMBER OF ATOMS
7
ITEM: BOX BOUNDS ss ss ss
-3.0017 3.2580
-2.6483 3.3480
-2.0393 1.8960
ITEM: ATOMS id type xs ys zs
1 1 .493387 .995835 .452911
2 1 .992730 .625334 .497613
3 1 .827375 .015802 .559581
4 1 .203146 .003905 .533413
5 1 .007391 .621802 .472752
6 1 .497559 .463935 .988186
7 1 .503072 .433243 .011310
ITEM: TIMESTEP
50
ITEM: NUMBER OF ATOMS
7
ITEM: BOX BOUNDS ss ss ss
-3.0017 3.2580
-2.6547 3.3529
-2.0393 1.8960
ITEM: ATOMS id type xs ys zs
1 1 .492605 .996136 .452341
2 1 .993633 .626440 .497980
3 1 .825265 .017789 .557843
4 1 .202492 .005354 .532557
5 1 .007116 .621864 .472620
6 1 .496590 .466146 .989494
7 1 .505368 .432173 .013561
ITEM: TIMESTEP
100
ITEM: NUMBER OF ATOMS
7
ITEM: BOX BOUNDS ss ss ss
-3.0063 3.2580
-2.6662 3.3621
-2.0393 1.8960
ITEM: ATOMS id type xs ys zs
1 1 .495499 .992928 .451604
2 1 .993677 .625795 .497647
3 1 .825414 .019585 .559458
4 1 .205975 .006005 .532256
5 1 .005737 .619032 .477304
6 1 .497359 .465982 .988395
7 1 .505474 .431705 .014189
ITEM: TIMESTEP
150
ITEM: NUMBER OF ATOMS
7
ITEM: BOX BOUNDS ss ss ss
-3.0082 3.2580
-2.6669 3.3656
-2.0393 1.8960
ITEM: ATOMS id type xs ys zs
1 1 .494527 .993459 .451849
2 1 .992828 .626659 .498430
3 1 .824234 .020050 .555835
4 1 .206681 .007113 .534615
5 1 .006854 .618148 .474374
6 1 .497437 .468239 .988634
7 1 .505730 .430675 .013409
ITEM: TIMESTEP
200
ITEM: NUMBER OF ATOMS
7
ITEM: BOX BOUNDS ss ss ss
-3.0163 3.2591
-2.6734 3.3672
-2.0393 1.8960
ITEM: ATOMS id type xs ys zs
1 1 .494337 .991240 .450284
2 1 .993376 .626059 .495977
3 1 .823380 .019127 .559448
4 1 .207519 .007570 .532589
5 1 .005815 .613451 .482819
6 1 .497211 .468257 .988233
7 1 .504395 .430336 .013335
ITEM: TIMESTEP
250
ITEM: NUMBER OF ATOMS
7
ITEM: BOX BOUNDS ss ss ss
-3.0119 3.2676
-2.6811 3.3717
-2.0395 1.8997
ITEM: ATOMS id type xs ys zs
1 1 .494644 .991408 .455225
2 1 .992456 .626859 .494663
3 1 .820277 .023703 .558244
4 1 .206349 .008966 .532395
5 1 .005979 .616371 .473930
6 1 .496035 .468554 .988424
7 1 .504691 .434461 .013166
ITEM: TIMESTEP
300
ITEM: NUMBER OF ATOMS
7
ITEM: BOX BOUNDS ss ss ss
-3.0164 3.2697
-2.6830 3.3739
-2.0393 1.9002
ITEM: ATOMS id type xs ys zs
1 1 .497038 .988889 .449735
2 1 .992577 .628662 .499682
3 1 .821186 .025038 .552896
4 1 .207625 .011038 .531841
5 1 .007007 .617964 .470196
6 1 .494953 .468818 .989377
7 1 .506545 .430678 .009452
ITEM: TIMESTEP
350
ITEM: NUMBER OF ATOMS
7
ITEM: BOX BOUNDS ss ss ss
-3.0193 3.2697
-2.6845 3.3761
-2.0426 1.9066
ITEM: ATOMS id type xs ys zs
1 1 .494689 .987247 .446484
2 1 .991937 .626981 .495654
3 1 .821791 .022922 .555365
4 1 .208530 .008935 .531824
5 1 .009918 .612090 .469362
6 1 .495235 .466511 .988148
7 1 .509892 .428192 .007879
ITEM: TIMESTEP
400
ITEM: NUMBER OF ATOMS
7
ITEM: BOX BOUNDS ss ss ss
-3.0233 3.2668
-2.6816 3.3689
-2.0456 1.9151
ITEM: ATOMS id type xs ys zs
1 1 .495078 .988026 .445523
2 1 .991634 .627435 .494947
3 1 .821505 .021291 .553021
4 1 .210067 .007788 .529955
5 1 .010538 .611606 .468118
6 1 .497169 .467158 .986644
7 1 .510820 .429129 .008080
ITEM: TIMESTEP
1
ITEM: NUMBER OF ATOMS
7
ITEM: BOX BOUNDS ss ss ss
-3.0017 3.2476
-2.6719 3.3421
-2.0311 1.8957
ITEM: ATOMS id type xs ys zs
1 1 .494188 .996819 .451820
2 1 .994366 .627416 .496636
3 1 .828758 .019662 .558697
4 1 .203472 .007833 .532502
5 1 .007436 .623912 .471678
6 1 .498392 .466499 .988193
7 1 .503917 .435928 .009199
ITEM: TIMESTEP
50
ITEM: NUMBER OF ATOMS
7
ITEM: BOX BOUNDS ss ss ss
-3.0017 3.2476
-2.6719 3.3548
-2.0311 1.8957
ITEM: ATOMS id type xs ys zs
1 1 .494533 .994325 .451777
2 1 .994324 .626599 .497880
3 1 .826982 .019732 .558207
4 1 .203363 .008896 .532092
5 1 .007182 .621274 .471803
6 1 .498380 .465669 .990316
7 1 .504555 .435010 .009204
ITEM: TIMESTEP
100
ITEM: NUMBER OF ATOMS
7
ITEM: BOX BOUNDS ss ss ss
-3.0017 3.2476
-2.6719 3.3592
-2.0311 1.8957
ITEM: ATOMS id type xs ys zs
1 1 .494826 .995199 .455598
2 1 .992514 .623636 .497081
3 1 .825905 .020254 .558107
4 1 .203469 .009165 .533505
5 1 .007581 .618878 .472326
6 1 .497210 .467163 .990754
7 1 .505121 .432497 .005353
ITEM: TIMESTEP
150
ITEM: NUMBER OF ATOMS
7
ITEM: BOX BOUNDS ss ss ss
-3.0061 3.2476
-2.6719 3.3657
-2.0342 1.8957
ITEM: ATOMS id type xs ys zs
1 1 .493332 .990373 .454604
2 1 .993900 .622874 .496422
3 1 .824968 .020258 .556396
4 1 .205603 .009467 .532622
5 1 .008580 .616594 .471738
6 1 .500453 .465721 .991386
7 1 .505547 .431276 .008294
ITEM: TIMESTEP
200
ITEM: NUMBER OF ATOMS
7
ITEM: BOX BOUNDS ss ss ss
-3.0084 3.2476
-2.6755 3.3722
-2.0378 1.8979
ITEM: ATOMS id type xs ys zs
1 1 .496397 .991600 .457320
2 1 .991737 .623927 .497571
3 1 .824609 .021372 .554767
4 1 .205640 .009240 .534857
5 1 .009330 .615424 .475055
6 1 .497111 .467123 .994876
7 1 .504991 .431251 .009124
ITEM: TIMESTEP
250
ITEM: NUMBER OF ATOMS
7
ITEM: BOX BOUNDS ss ss ss
-3.0146 3.2476
-2.6778 3.3718
-2.0390 1.9084
ITEM: ATOMS id type xs ys zs
1 1 .497916 .991576 .458038
2 1 .992918 .627050 .498460
3 1 .824277 .022024 .550793
4 1 .208977 .008594 .536158
5 1 .009837 .615166 .471706
6 1 .499033 .467342 .991172
7 1 .507925 .430456 .009776
ITEM: TIMESTEP
300
ITEM: NUMBER OF ATOMS
7
ITEM: BOX BOUNDS ss ss ss
-3.0065 3.2476
-2.6777 3.3727
-2.0408 1.9169
ITEM: ATOMS id type xs ys zs
1 1 .497675 .990026 .457107
2 1 .993046 .625927 .496039
3 1 .823274 .022618 .550112
4 1 .204885 .009202 .532057
5 1 .008989 .614057 .471570
6 1 .496260 .466555 .989280
7 1 .506689 .428823 .007574
ITEM: TIMESTEP
350
ITEM: NUMBER OF ATOMS
7
ITEM: BOX BOUNDS ss ss ss
-3.0102 3.2476
-2.6846 3.3685
-2.0506 1.9147
ITEM: ATOMS id type xs ys zs
1 1 .496420 .989810 .460484
2 1 .992685 .626816 .496409
3 1 .823075 .023183 .549240
4 1 .207056 .012027 .532176
5 1 .008111 .613050 .472441
6 1 .497458 .466598 .992595
7 1 .507354 .432162 .012103
ITEM: TIMESTEP
400
ITEM: NUMBER OF ATOMS
7
ITEM: BOX BOUNDS ss ss ss
-3.0108 3.2476
-2.6859 3.3727
-2.0553 1.9184
ITEM: ATOMS id type xs ys zs
1 1 .499355 .990577 .461994
2 1 .994901 .623884 .497930
3 1 .820647 .024222 .554047
4 1 .205788 .014045 .534113
5 1 .008828 .615013 .478194
6 1 .498309 .468279 .994065
7 1 .508936 .433450 .014398
ITEM: TIMESTEP
1
ITEM: NUMBER OF ATOMS
7
ITEM: BOX BOUNDS ss ss ss
-2.9801 3.2351
-2.6462 3.3357
-2.0316 1.9149
ITEM: ATOMS id type xs ys zs
1 1 .493427 .997852 .449697
2 1 .996356 .626494 .494282
3 1 .829844 .015481 .556025
4 1 .201135 .003581 .529977
5 1 .003984 .622948 .469427
6 1 .497645 .464723 .983328
7 1 .503186 .433977 .009296
ITEM: TIMESTEP
50
ITEM: NUMBER OF ATOMS
7
ITEM: BOX BOUNDS ss ss ss
-2.9880 3.2395
-2.6556 3.3589
-2.0316 1.9149
ITEM: ATOMS id type xs ys zs
1 1 .494629 .994464 .448758
2 1 .995288 .625072 .496105
3 1 .828324 .017327 .554016
4 1 .202561 .004096 .528195
5 1 .005885 .619861 .469163
6 1 .496863 .463422 .983388
7 1 .504894 .430580 .005633
ITEM: TIMESTEP
100
ITEM: NUMBER OF ATOMS
7
ITEM: BOX BOUNDS ss ss ss
-2.9956 3.2486
-2.6626 3.3602
-2.0388 1.9149
ITEM: ATOMS id type xs ys zs
1 1 .494752 .996060 .454644
2 1 .994473 .625383 .494174
3 1 .825239 .019418 .557339
4 1 .202490 .008874 .531193
5 1 .005014 .621110 .473650
6 1 .497685 .467052 .983549
7 1 .503803 .432430 .007881
ITEM: TIMESTEP
150
ITEM: NUMBER OF ATOMS
7
ITEM: BOX BOUNDS ss ss ss
-3.0052 3.2599
-2.6673 3.3749
-2.0422 1.9149
ITEM: ATOMS id type xs ys zs
1 1 .495190 .993097 .454668
2 1 .991399 .623933 .493863
3 1 .822832 .021021 .557410
4 1 .204365 .011622 .532461
5 1 .006155 .618940 .473220
6 1 .496640 .467031 .985261
7 1 .504682 .431248 .009997
ITEM: TIMESTEP
200
ITEM: NUMBER OF ATOMS
7
ITEM: BOX BOUNDS ss ss ss
-3.0088 3.2460
-2.6655 3.3775
-2.0392 1.9149
ITEM: ATOMS id type xs ys zs
1 1 .495584 .992742 .455863
2 1 .993383 .623018 .490673
3 1 .823022 .021007 .558871
4 1 .205445 .010624 .531583
5 1 .006325 .617528 .474107
6 1 .497480 .469566 .986263
7 1 .507585 .429977 .008372
ITEM: TIMESTEP
250
ITEM: NUMBER OF ATOMS
7
ITEM: BOX BOUNDS ss ss ss
-3.0036 3.2545
-2.6627 3.3804
-2.0381 1.9149
ITEM: ATOMS id type xs ys zs
1 1 .494300 .991489 .454022
2 1 .992693 .620697 .488851
3 1 .821724 .018346 .560122
4 1 .204722 .011601 .532460
5 1 .005110 .614276 .473707
6 1 .495088 .468224 .989771
7 1 .507690 .430186 .009609
ITEM: TIMESTEP
300
ITEM: NUMBER OF ATOMS
7
ITEM: BOX BOUNDS ss ss ss
-3.0156 3.2572
-2.6625 3.3799
-2.0450 1.9149
ITEM: ATOMS id type xs ys zs
1 1 .498000 .990354 .457761
2 1 .992177 .623156 .494590
3 1 .819699 .020038 .554591
4 1 .204077 .012605 .532642
5 1 .007765 .618216 .474441
6 1 .497704 .466816 .988452
7 1 .504635 .431114 .010795
ITEM: TIMESTEP
350
ITEM: NUMBER OF ATOMS
7
ITEM: BOX BOUNDS ss ss ss
-3.0134 3.2712
-2.6625 3.3746
-2.0534 1.9149
ITEM: ATOMS id type xs ys zs
1 1 .497855 .991743 .459967
2 1 .991384 .622979 .495063
3 1 .816128 .019746 .554791
4 1 .202193 .013660 .531431
5 1 .008560 .619106 .475537
6 1 .497020 .467804 .988213
7 1 .503238 .432799 .014168
ITEM: TIMESTEP
400
ITEM: NUMBER OF ATOMS
7
ITEM: BOX BOUNDS ss ss ss
-3.0155 3.2679
-2.6710 3.3754
-2.0483 1.9149
ITEM: ATOMS id type xs ys zs
1 1 .494452 .991567 .451740
2 1 .990113 .626439 .490887
3 1 .819396 .022036 .557287
4 1 .205341 .010905 .531682
5 1 .008374 .611490 .477342
6 1 .499034 .469425 .989240
7 1 .506443 .430981 .009631
ITEM: TIMESTEP
1
ITEM: NUMBER OF ATOMS
7
ITEM: BOX BOUNDS ss ss ss
-3.0018 3.2344
-2.6361 3.3586
-2.0209 1.9077
ITEM: ATOMS id type xs ys zs
1 1 .495256 .994050 .449010
2 1 .996496 .623455 .493806
3 1 .830544 .013776 .555834
4 1 .203931 .001896 .529658
5 1 .007453 .619940 .468863
6 1 .499471 .462033 .985170
7 1 .504971 .431359 .006588
ITEM: TIMESTEP
50
ITEM: NUMBER OF ATOMS
7
ITEM: BOX BOUNDS ss ss ss
-3.0018 3.2372
-2.6550 3.3586
-2.0216 1.9077
ITEM: ATOMS id type xs ys zs
1 1 .496528 .994642 .447479
2 1 .996498 .624225 .491990
3 1 .828833 .016846 .557152
4 1 .202491 .006826 .529467
5 1 .005880 .620973 .469450
6 1 .497445 .465628 .986134
7 1 .505917 .432064 .007493
ITEM: TIMESTEP
100
ITEM: NUMBER OF ATOMS
7
ITEM: BOX BOUNDS ss ss ss
-3.0018 3.2506
-2.6608 3.3674
-2.0301 1.9077
ITEM: ATOMS id type xs ys zs
1 1 .499054 .992759 .453532
2 1 .994820 .626171 .494391
3 1 .826745 .020225 .553599
4 1 .202723 .008268 .529941
5 1 .004365 .620278 .468488
6 1 .498528 .464246 .984133
7 1 .504940 .432555 .004885
ITEM: TIMESTEP
150
ITEM: NUMBER OF ATOMS
7
ITEM: BOX BOUNDS ss ss ss
-3.0107 3.2530
-2.6691 3.3777
-2.0389 1.9077
ITEM: ATOMS id type xs ys zs
1 1 .499258 .992081 .455366
2 1 .995095 .625234 .493194
3 1 .825873 .022661 .553215
4 1 .206398 .009905 .527338
5 1 .006813 .619373 .469762
6 1 .498322 .464978 .981636
7 1 .507323 .433186 .006202
ITEM: TIMESTEP
200
ITEM: NUMBER OF ATOMS
7
ITEM: BOX BOUNDS ss ss ss
-3.0234 3.2527
-2.6711 3.3679
-2.0443 1.9077
ITEM: ATOMS id type xs ys zs
1 1 .500755 .992660 .456646
2 1 .996238 .625612 .490672
3 1 .825377 .022421 .552757
4 1 .207463 .012419 .528617
5 1 .009774 .621889 .469089
6 1 .499183 .467863 .982111
7 1 .508195 .432671 .007387
ITEM: TIMESTEP
250
ITEM: NUMBER OF ATOMS
7
ITEM: BOX BOUNDS ss ss ss
-3.0149 3.2574
-2.6648 3.3712
-2.0470 1.9077
ITEM: ATOMS id type xs ys zs
1 1 .500449 .992244 .457038
2 1 .995508 .624890 .494531
3 1 .823481 .021967 .553242
4 1 .204005 .009394 .523273
5 1 .008382 .619109 .469961
6 1 .496695 .466050 .982753
7 1 .507829 .432007 .006878
ITEM: TIMESTEP
300
ITEM: NUMBER OF ATOMS
7
ITEM: BOX BOUNDS ss ss ss
-3.0158 3.2656
-2.6534 3.3733
-2.0528 1.9077
ITEM: ATOMS id type xs ys zs
1 1 .501563 .990344 .456797
2 1 .995051 .624239 .496294
3 1 .820862 .020694 .551372
4 1 .203475 .008826 .520555
5 1 .009293 .616810 .468660
6 1 .495070 .466936 .985160
7 1 .506902 .431184 .007002
ITEM: TIMESTEP
350
ITEM: NUMBER OF ATOMS
7
ITEM: BOX BOUNDS ss ss ss
-3.0048 3.2687
-2.6551 3.3704
-2.0604 1.9077
ITEM: ATOMS id type xs ys zs
1 1 .501438 .991451 .458158
2 1 .994622 .624137 .497690
3 1 .819727 .021201 .552984
4 1 .203054 .011233 .522380
5 1 .007872 .617327 .467010
6 1 .494307 .467905 .983950
7 1 .506626 .431456 .011168
ITEM: TIMESTEP
400
ITEM: NUMBER OF ATOMS
7
ITEM: BOX BOUNDS ss ss ss
-3.0084 3.2767
-2.6585 3.3710
-2.0569 1.9077
ITEM: ATOMS id type xs ys zs
1 1 .500536 .992261 .457835
2 1 .993195 .624231 .497665
3 1 .818254 .021290 .550365
4 1 .204126 .010330 .521284
5 1 .008263 .617720 .466997
6 1 .493893 .468372 .985512
7 1 .506957 .431766 .012000
ITEM: TIMESTEP
1
ITEM: NUMBER OF ATOMS
7
ITEM: BOX BOUNDS ss ss ss
-3.0018 3.2556
-2.6361 3.3586
-2.0372 1.9077
ITEM: ATOMS id type xs ys zs
1 1 .493568 .994042 .451281
2 1 .993100 .623462 .495924
3 1 .827707 .013760 .557694
4 1 .203238 .001884 .531595
5 1 .007420 .619955 .471087
6 1 .497752 .462057 .985220
7 1 .503243 .431365 .010725
ITEM: TIMESTEP
50
ITEM: NUMBER OF ATOMS
7
ITEM: BOX BOUNDS ss ss ss
-3.0018 3.2556
-2.6541 3.3586
-2.0372 1.9077
ITEM: ATOMS id type xs ys zs
1 1 .494409 .994714 .451232
2 1 .993057 .624247 .495840
3 1 .827113 .017892 .556334
4 1 .204307 .005207 .531032
5 1 .006736 .620581 .472007
6 1 .497271 .463548 .986558
7 1 .504901 .432597 .011011
ITEM: TIMESTEP
100
ITEM: NUMBER OF ATOMS
7
ITEM: BOX BOUNDS ss ss ss
-3.0018 3.2556
-2.6693 3.3702
-2.0372 1.9077
ITEM: ATOMS id type xs ys zs
1 1 .493315 .992727 .451312
2 1 .991251 .625969 .496273
3 1 .826426 .021115 .555189
4 1 .202677 .008758 .527683
5 1 .006230 .618554 .472153
6 1 .496701 .463270 .988203
7 1 .504510 .434189 .011700
ITEM: TIMESTEP
150
ITEM: NUMBER OF ATOMS
7
ITEM: BOX BOUNDS ss ss ss
-3.0213 3.2556
-2.6656 3.3738
-2.0372 1.9077
ITEM: ATOMS id type xs ys zs
1 1 .496210 .990727 .449593
2 1 .993749 .627707 .494560
3 1 .825716 .021074 .554311
4 1 .204306 .008074 .529387
5 1 .009826 .617321 .470480
6 1 .497515 .463807 .987782
7 1 .505012 .433363 .012232
ITEM: TIMESTEP
200
ITEM: NUMBER OF ATOMS
7
ITEM: BOX BOUNDS ss ss ss
-3.0281 3.2556
-2.6720 3.3801
-2.0393 1.9077
ITEM: ATOMS id type xs ys zs
1 1 .497555 .991488 .456149
2 1 .992864 .627844 .501261
3 1 .827167 .020660 .554426
4 1 .207530 .011229 .533176
5 1 .007911 .617719 .472838
6 1 .498061 .466715 .985028
7 1 .508501 .431416 .012347
ITEM: TIMESTEP
250
ITEM: NUMBER OF ATOMS
7
ITEM: BOX BOUNDS ss ss ss
-3.0227 3.2556
-2.6782 3.3819
-2.0382 1.9077
ITEM: ATOMS id type xs ys zs
1 1 .498384 .992382 .452891
2 1 .992374 .628748 .501677
3 1 .824519 .023211 .554549
4 1 .206937 .012482 .532127
5 1 .007393 .619255 .474159
6 1 .498113 .468264 .986990
7 1 .507361 .429770 .010599
ITEM: TIMESTEP
300
ITEM: NUMBER OF ATOMS
7
ITEM: BOX BOUNDS ss ss ss
-3.0193 3.2631
-2.6870 3.3825
-2.0403 1.9115
ITEM: ATOMS id type xs ys zs
1 1 .497819 .991949 .451251
2 1 .991928 .629489 .500173
3 1 .824292 .024303 .552834
4 1 .207145 .014428 .531038
5 1 .007704 .617924 .474051
6 1 .497475 .468992 .986191
7 1 .508356 .430396 .010558
ITEM: TIMESTEP
350
ITEM: NUMBER OF ATOMS
7
ITEM: BOX BOUNDS ss ss ss
-3.0229 3.2706
-2.6810 3.3784
-2.0480 1.9077
ITEM: ATOMS id type xs ys zs
1 1 .498043 .992772 .452029
2 1 .990902 .629837 .503733
3 1 .820665 .023610 .553458
4 1 .206548 .013957 .532837
5 1 .007743 .618825 .476042
6 1 .496914 .470941 .986195
7 1 .508774 .432918 .012523
ITEM: TIMESTEP
400
ITEM: NUMBER OF ATOMS
7
ITEM: BOX BOUNDS ss ss ss
-3.0274 3.2781
-2.6769 3.3769
-2.0378 1.9077
ITEM: ATOMS id type xs ys zs
1 1 .496141 .993233 .449383
2 1 .988502 .629280 .501188
3 1 .819952 .024284 .551610
4 1 .207871 .013534 .531270
5 1 .010691 .617876 .471746
6 1 .495436 .469566 .988129
7 1 .508188 .430918 .008571
ITEM: TIMESTEP
1
ITEM: NUMBER OF ATOMS
7
ITEM: BOX BOUNDS ss ss ss
-3.0018 3.2556
-2.6431 3.3586
-2.0372 1.9077
ITEM: ATOMS id type xs ys zs
1 1 .493558 .994066 .451276
2 1 .993082 .623891 .495898
3 1 .827715 .014902 .557705
4 1 .203240 .003069 .531606
5 1 .007441 .620385 .471081
6 1 .497735 .462672 .985214
7 1 .503247 .432040 .010739
ITEM: TIMESTEP
50
ITEM: NUMBER OF ATOMS
7
ITEM: BOX BOUNDS ss ss ss
-3.0018 3.2556
-2.6528 3.3586
-2.0372 1.9077
ITEM: ATOMS id type xs ys zs
1 1 .493904 .993735 .452032
2 1 .991839 .622623 .496757
3 1 .825564 .014708 .559096
4 1 .203951 .006530 .532033
5 1 .006294 .620077 .468995
6 1 .497424 .465056 .985428
7 1 .503798 .430027 .006563
ITEM: TIMESTEP
100
ITEM: NUMBER OF ATOMS
7
ITEM: BOX BOUNDS ss ss ss
-3.0018 3.2556
-2.6665 3.3713
-2.0372 1.9077
ITEM: ATOMS id type xs ys zs
1 1 .495570 .992750 .453054
2 1 .992963 .623684 .496109
3 1 .824293 .017305 .559737
4 1 .204975 .007589 .533556
5 1 .005038 .618695 .467050
6 1 .496177 .466611 .985220
7 1 .504501 .431465 .006487
ITEM: TIMESTEP
150
ITEM: NUMBER OF ATOMS
7
ITEM: BOX BOUNDS ss ss ss
-3.0067 3.2556
-2.6652 3.3642
-2.0464 1.9077
ITEM: ATOMS id type xs ys zs
1 1 .494000 .994759 .453266
2 1 .991838 .620729 .497264
3 1 .823283 .017230 .558457
4 1 .206001 .009958 .530393
5 1 .009309 .619214 .470027
6 1 .496231 .463902 .991484
7 1 .506182 .428375 .010959
ITEM: TIMESTEP
200
ITEM: NUMBER OF ATOMS
7
ITEM: BOX BOUNDS ss ss ss
-3.0167 3.2643
-2.6666 3.3736
-2.0518 1.9077
ITEM: ATOMS id type xs ys zs
1 1 .495038 .991534 .456085
2 1 .989089 .619806 .498321
3 1 .822038 .017900 .559742
4 1 .207872 .010011 .529371
5 1 .011907 .617223 .472012
6 1 .497464 .464916 .988767
7 1 .506715 .428079 .012810
ITEM: TIMESTEP
250
ITEM: NUMBER OF ATOMS
7
ITEM: BOX BOUNDS ss ss ss
-3.0140 3.2556
-2.6618 3.3746
-2.0517 1.9077
ITEM: ATOMS id type xs ys zs
1 1 .497109 .990728 .454860
2 1 .992818 .619937 .497221
3 1 .822155 .017614 .556687
4 1 .206055 .007079 .531744
5 1 .008526 .619057 .473103
6 1 .498630 .464902 .987018
7 1 .505154 .426788 .012547
ITEM: TIMESTEP
300
ITEM: NUMBER OF ATOMS
7
ITEM: BOX BOUNDS ss ss ss
-3.0110 3.2556
-2.6629 3.3820
-2.0493 1.9077
ITEM: ATOMS id type xs ys zs
1 1 .497860 .987610 .454723
2 1 .992835 .620738 .497589
3 1 .821851 .016704 .555941
4 1 .206128 .005253 .533963
5 1 .007693 .617266 .470394
6 1 .495446 .465533 .983836
7 1 .504908 .426585 .009034
ITEM: TIMESTEP
350
ITEM: NUMBER OF ATOMS
7
ITEM: BOX BOUNDS ss ss ss
-3.0183 3.2556
-2.6770 3.3830
-2.0504 1.9077
ITEM: ATOMS id type xs ys zs
1 1 .498769 .986174 .456612
2 1 .991595 .621387 .494128
3 1 .822754 .018964 .551356
4 1 .205639 .006821 .531565
5 1 .007912 .617343 .469578
6 1 .496783 .465565 .985265
7 1 .505552 .428472 .014463
ITEM: TIMESTEP
400
ITEM: NUMBER OF ATOMS
7
ITEM: BOX BOUNDS ss ss ss
-3.0209 3.2584
-2.6908 3.3766
-2.0472 1.9077
ITEM: ATOMS id type xs ys zs
1 1 .500132 .988404 .449003
2 1 .992750 .622349 .498581
3 1 .820751 .022023 .555745
4 1 .206323 .012098 .533936
5 1 .008754 .619166 .472345
6 1 .496152 .466762 .983305
7 1 .506233 .430742 .010329
ITEM: TIMESTEP
1
ITEM: NUMBER OF ATOMS
7
ITEM: BOX BOUNDS ss ss ss
-2.9969 3.2437
-2.6637 3.3428
-2.0252 1.8689
ITEM: ATOMS id type xs ys zs
1 1 .494108 .996706 .454089
2 1 .994982 .626831 .499287
3 1 .829146 .018324 .561889
4 1 .203011 .006480 .535421
5 1 .006662 .623335 .474099
6 1 .498292 .465726 .994974
7 1 .503823 .435107 .007776
ITEM: TIMESTEP
50
ITEM: NUMBER OF ATOMS
7
ITEM: BOX BOUNDS ss ss ss
-2.9969 3.2437
-2.6637 3.3559
-2.0252 1.8779
ITEM: ATOMS id type xs ys zs
1 1 .495903 .994074 .453042
2 1 .994410 .627995 .497384
3 1 .827672 .017529 .561139
4 1 .203136 .007678 .531873
5 1 .006887 .621002 .471614
6 1 .498046 .465302 .990052
7 1 .504492 .434498 .006393
ITEM: TIMESTEP
100
ITEM: NUMBER OF ATOMS
7
ITEM: BOX BOUNDS ss ss ss
-3.0031 3.2535
-2.6684 3.3711
-2.0311 1.8844
ITEM: ATOMS id type xs ys zs
1 1 .496511 .990151 .453444
2 1 .992857 .625191 .495704
3 1 .825536 .017534 .559243
4 1 .203819 .007541 .528338
5 1 .010014 .618541 .472161
6 1 .497303 .464113 .986413
7 1 .505192 .434685 .006588
ITEM: TIMESTEP
150
ITEM: NUMBER OF ATOMS
7
ITEM: BOX BOUNDS ss ss ss
-3.0124 3.2587
-2.6702 3.3759
-2.0376 1.8847
ITEM: ATOMS id type xs ys zs
1 1 .493585 .990161 .457948
2 1 .990445 .627237 .495970
3 1 .825737 .020187 .559417
4 1 .206654 .006325 .533653
5 1 .006546 .619755 .478652
6 1 .494101 .462669 .991583
7 1 .503061 .429254 .010196
ITEM: TIMESTEP
200
ITEM: NUMBER OF ATOMS
7
ITEM: BOX BOUNDS ss ss ss
-3.0228 3.2509
-2.6788 3.3690
-2.0399 1.8926
ITEM: ATOMS id type xs ys zs
1 1 .495137 .992066 .459319
2 1 .991191 .629025 .493648
3 1 .824725 .022756 .556318
4 1 .208501 .006011 .532478
5 1 .007683 .620536 .474125
6 1 .493756 .463405 .989690
7 1 .505912 .430152 .013127
ITEM: TIMESTEP
250
ITEM: NUMBER OF ATOMS
7
ITEM: BOX BOUNDS ss ss ss
-3.0240 3.2437
-2.6927 3.3711
-2.0404 1.8864
ITEM: ATOMS id type xs ys zs
1 1 .495776 .992718 .463118
2 1 .992669 .630881 .494261
3 1 .825635 .024320 .557579
4 1 .208331 .007801 .532364
5 1 .007338 .619846 .478890
6 1 .495030 .465456 .993733
7 1 .505915 .431699 .014801
ITEM: TIMESTEP
300
ITEM: NUMBER OF ATOMS
7
ITEM: BOX BOUNDS ss ss ss
-3.0186 3.2437
-2.6991 3.3685
-2.0460 1.8974
ITEM: ATOMS id type xs ys zs
1 1 .496372 .994492 .461208
2 1 .993251 .631181 .493981
3 1 .825152 .026021 .555398
4 1 .206829 .009763 .531411
5 1 .006692 .621032 .477897
6 1 .494917 .467715 .989375
7 1 .505738 .433356 .017910
ITEM: TIMESTEP
350
ITEM: NUMBER OF ATOMS
7
ITEM: BOX BOUNDS ss ss ss
-3.0183 3.2437
-2.7040 3.3666
-2.0415 1.8908
ITEM: ATOMS id type xs ys zs
1 1 .493972 .993289 .461097
2 1 .994523 .633866 .489880
3 1 .823022 .026769 .557153
4 1 .206592 .008549 .531463
5 1 .007111 .618554 .479130
6 1 .495115 .469683 .992543
7 1 .505599 .432069 .017415
ITEM: TIMESTEP
400
ITEM: NUMBER OF ATOMS
7
ITEM: BOX BOUNDS ss ss ss
-3.0271 3.2474
-2.7085 3.3759
-2.0380 1.8976
ITEM: ATOMS id type xs ys zs
1 1 .494019 .990894 .459207
2 1 .993692 .634761 .489114
3 1 .823439 .029267 .555455
4 1 .206908 .008229 .530291
5 1 .008510 .617789 .476762
6 1 .496960 .470326 .993183
7 1 .505315 .432671 .016428
ITEM: TIMESTEP
1
ITEM: NUMBER OF ATOMS
7
ITEM: BOX BOUNDS ss ss ss
-3.0109 3.2235
-2.6920 3.3618
-2.0159 1.8852
ITEM: ATOMS id type xs ys zs
1 1 .496874 .993586 .450893
2 1 .998209 .626603 .495981
3 1 .832176 .022811 .558503
4 1 .205456 .011083 .532104
5 1 .008931 .623072 .470933
6 1 .501093 .466789 .990851
7 1 .506593 .436368 .005373
ITEM: TIMESTEP
50
ITEM: NUMBER OF ATOMS
7
ITEM: BOX BOUNDS ss ss ss
-3.0109 3.2421
-2.6920 3.3618
-2.0215 1.8852
ITEM: ATOMS id type xs ys zs
1 1 .496772 .993378 .449803
2 1 .994978 .627903 .498032
3 1 .829201 .023320 .557329
4 1 .205099 .011033 .533544
5 1 .008618 .623367 .471413
6 1 .497127 .467394 .991858
7 1 .506881 .435658 .005865
ITEM: TIMESTEP
100
ITEM: NUMBER OF ATOMS
7
ITEM: BOX BOUNDS ss ss ss
-3.0109 3.2460
-2.6920 3.3732
-2.0318 1.8866
ITEM: ATOMS id type xs ys zs
1 1 .498644 .990933 .457372
2 1 .994417 .625992 .494957
3 1 .827326 .021321 .560609
4 1 .206367 .013680 .532801
5 1 .007903 .620025 .472098
6 1 .496387 .466205 .989076
7 1 .508014 .434342 .007057
ITEM: TIMESTEP
150
ITEM: NUMBER OF ATOMS
7
ITEM: BOX BOUNDS ss ss ss
-3.0109 3.2524
-2.6920 3.3782
-2.0396 1.8852
ITEM: ATOMS id type xs ys zs
1 1 .497801 .990973 .456332
2 1 .993143 .624606 .494388
3 1 .826022 .022722 .561775
4 1 .207758 .011614 .536777
5 1 .007541 .619826 .474020
6 1 .497478 .466293 .991346
7 1 .505896 .433490 .010972
ITEM: TIMESTEP
200
ITEM: NUMBER OF ATOMS
7
ITEM: BOX BOUNDS ss ss ss
-3.0131 3.2483
-2.6920 3.3685
-2.0394 1.8890
ITEM: ATOMS id type xs ys zs
1 1 .499754 .993039 .455183
2 1 .992977 .625714 .492941
3 1 .825671 .021586 .561794
4 1 .208669 .011414 .534756
5 1 .010480 .620974 .474513
6 1 .498678 .469148 .992866
7 1 .507464 .434467 .009921
ITEM: TIMESTEP
250
ITEM: NUMBER OF ATOMS
7
ITEM: BOX BOUNDS ss ss ss
-3.0292 3.2552
-2.6920 3.3704
-2.0409 1.8905
ITEM: ATOMS id type xs ys zs
1 1 .499443 .992910 .456936
2 1 .991537 .625451 .491619
3 1 .824396 .021929 .558556
4 1 .209692 .012702 .534842
5 1 .013741 .619536 .473512
6 1 .499118 .468720 .992082
7 1 .508434 .432113 .010693
ITEM: TIMESTEP
300
ITEM: NUMBER OF ATOMS
7
ITEM: BOX BOUNDS ss ss ss
-3.0207 3.2559
-2.6920 3.3732
-2.0370 1.8946
ITEM: ATOMS id type xs ys zs
1 1 .498764 .990605 .451673
2 1 .993690 .624779 .495363
3 1 .822464 .023804 .559416
4 1 .209358 .012271 .534296
5 1 .009997 .618899 .471368
6 1 .500652 .466664 .989487
7 1 .508777 .432140 .008659
ITEM: TIMESTEP
350
ITEM: NUMBER OF ATOMS
7
ITEM: BOX BOUNDS ss ss ss
-3.0171 3.2592
-2.6920 3.3765
-2.0415 1.8975
ITEM: ATOMS id type xs ys zs
1 1 .498662 .989805 .454227