ITEM: TIMESTEP
1
ITEM: NUMBER OF ATOMS
7
ITEM: BOX BOUNDS ss ss ss
-2.9587 3.2160
-2.6288 3.3269
-1.9986 1.8531
ITEM: ATOMS id type xs ys zs
1 1 .493187 .999185 .452494
2 1 .999611 .626181 .498032
3 1 .831921 .012377 .561402
4 1 .199020 .000906 .533959
5 1 .000617 .622788 .472771
6 1 .497320 .463719 .999237
7 1 .503286 .433189 .000702
ITEM: TIMESTEP
50
ITEM: NUMBER OF ATOMS
7
ITEM: BOX BOUNDS ss ss ss
-2.9831 3.2396
-2.6510 3.3488
-2.0224 1.8775
ITEM: ATOMS id type xs ys zs
1 1 .493451 .996223 .450072
2 1 .996176 .627015 .495874
3 1 .828860 .015926 .558071
4 1 .202802 .002890 .534773
5 1 .005337 .621671 .472692
6 1 .496460 .465630 .992000
7 1 .502680 .433445 .008537
ITEM: TIMESTEP
100
ITEM: NUMBER OF ATOMS
7
ITEM: BOX BOUNDS ss ss ss
-2.9949 3.2458
-2.6659 3.3609
-2.0309 1.8854
ITEM: ATOMS id type xs ys zs
1 1 .493451 .993322 .452603
2 1 .995398 .626142 .494299
3 1 .829143 .016683 .556760
4 1 .202304 .005600 .536981
5 1 .007589 .618815 .473541
6 1 .496539 .465375 .991635
7 1 .501568 .434264 .010362
ITEM: TIMESTEP
150
ITEM: NUMBER OF ATOMS
7
ITEM: BOX BOUNDS ss ss ss
-3.0049 3.2462
-2.6633 3.3710
-2.0314 1.8903
ITEM: ATOMS id type xs ys zs
1 1 .497641 .990261 .456475
2 1 .990523 .622854 .493890
3 1 .824272 .020336 .564711
4 1 .205034 .008650 .530835
5 1 .008322 .618514 .475533
6 1 .496179 .463528 .991025
7 1 .502926 .431703 .007742
ITEM: TIMESTEP
200
ITEM: NUMBER OF ATOMS
7
ITEM: BOX BOUNDS ss ss ss
-3.0088 3.2459
-2.6614 3.3636
-2.0397 1.8923
ITEM: ATOMS id type xs ys zs
1 1 .499738 .995180 .454271
2 1 .994615 .624980 .494488
3 1 .826736 .018658 .555830
4 1 .203881 .007545 .536212
5 1 .007959 .619269 .478202
6 1 .497997 .466492 .988891
7 1 .504212 .431826 .013873
ITEM: TIMESTEP
250
ITEM: NUMBER OF ATOMS
7
ITEM: BOX BOUNDS ss ss ss
-3.0062 3.2534
-2.6647 3.3606
-2.0478 1.8974
ITEM: ATOMS id type xs ys zs
1 1 .501111 .994828 .455395
2 1 .993345 .626571 .494237
3 1 .826295 .017751 .555258
4 1 .205223 .006250 .536281
5 1 .007151 .617944 .479868
6 1 .496312 .467743 .985773
7 1 .503539 .432385 .019557
ITEM: TIMESTEP
300
ITEM: NUMBER OF ATOMS
7
ITEM: BOX BOUNDS ss ss ss
-3.0116 3.2582
-2.6681 3.3600
-2.0481 1.9085
ITEM: ATOMS id type xs ys zs
1 1 .495012 .992506 .453278
2 1 .989824 .625483 .496421
3 1 .826582 .021724 .556249
4 1 .207310 .008144 .529160
5 1 .006426 .615422 .474910
6 1 .498805 .467002 .992290
7 1 .506605 .427116 .010206
ITEM: TIMESTEP
350
ITEM: NUMBER OF ATOMS
7
ITEM: BOX BOUNDS ss ss ss
-3.0124 3.2548
-2.6626 3.3651
-2.0483 1.9149
ITEM: ATOMS id type xs ys zs
1 1 .492919 .991676 .448580
2 1 .992085 .626294 .492803
3 1 .820740 .016095 .549111
4 1 .207668 .008441 .530175
5 1 .004787 .615440 .470268
6 1 .495799 .467317 .988746
7 1 .507210 .431158 .016049
ITEM: TIMESTEP
400
ITEM: NUMBER OF ATOMS
7
ITEM: BOX BOUNDS ss ss ss
-3.0128 3.2542
-2.6660 3.3612
-2.0589 1.9096
ITEM: ATOMS id type xs ys zs
1 1 .490472 .994286 .450171
2 1 .991685 .627224 .496136
3 1 .823075 .017717 .550496
4 1 .208775 .008999 .530405
5 1 .005607 .615063 .472181
6 1 .495685 .466601 .990001
7 1 .507775 .430090 .018558
ITEM: TIMESTEP
1
ITEM: NUMBER OF ATOMS
7
ITEM: BOX BOUNDS ss ss ss
-2.9934 3.2414
-2.6457 3.3326
-2.0393 1.8960
ITEM: ATOMS id type xs ys zs
1 1 .493966 .998344 .453133
2 1 .995511 .626907 .498186
3 1 .829589 .015011 .559965
4 1 .202663 .003526 .533327
5 1 .006343 .623411 .472637
6 1 .498237 .464688 .988410
7 1 .503639 .434098 .011312
ITEM: TIMESTEP
50
ITEM: NUMBER OF ATOMS
7
ITEM: BOX BOUNDS ss ss ss
-2.9934 3.2414
-2.6525 3.3512
-2.0393 1.8960
ITEM: ATOMS id type xs ys zs
1 1 .493028 .997515 .453982
2 1 .995041 .627259 .497051
3 1 .830307 .014391 .561055
4 1 .200144 .005316 .530444
5 1 .006581 .621633 .470803
6 1 .496476 .464044 .988137
7 1 .503753 .432886 .009545
ITEM: TIMESTEP
100
ITEM: NUMBER OF ATOMS
7
ITEM: BOX BOUNDS ss ss ss
-2.9980 3.2414
-2.6649 3.3642
-2.0393 1.8960
ITEM: ATOMS id type xs ys zs
1 1 .494189 .996183 .453054
2 1 .996130 .624858 .501336
3 1 .829802 .017925 .562526
4 1 .203422 .006534 .531659
5 1 .004953 .620731 .472634
6 1 .499312 .464736 .991634
7 1 .505169 .431690 .011662
ITEM: TIMESTEP
150
ITEM: NUMBER OF ATOMS
7
ITEM: BOX BOUNDS ss ss ss
-3.0075 3.2466
-2.6600 3.3673
-2.0393 1.9008
ITEM: ATOMS id type xs ys zs
1 1 .496807 .994944 .454912
2 1 .995143 .626445 .496824
3 1 .823420 .016684 .558816
4 1 .204482 .004960 .531849
5 1 .007007 .618551 .472234
6 1 .495624 .464548 .984553
7 1 .504588 .432490 .013358
ITEM: TIMESTEP
200
ITEM: NUMBER OF ATOMS
7
ITEM: BOX BOUNDS ss ss ss
-3.0038 3.2500
-2.6714 3.3700
-2.0393 1.8977
ITEM: ATOMS id type xs ys zs
1 1 .495001 .995400 .457624
2 1 .993822 .626814 .497954
3 1 .821688 .018249 .558355
4 1 .202488 .006306 .530096
5 1 .006838 .618739 .472201
6 1 .495621 .463984 .983156
7 1 .503809 .434355 .012477
ITEM: TIMESTEP
250
ITEM: NUMBER OF ATOMS
7
ITEM: BOX BOUNDS ss ss ss
-3.0053 3.2491
-2.6665 3.3670
-2.0393 1.9006
ITEM: ATOMS id type xs ys zs
1 1 .499839 .996746 .452575
2 1 .991983 .623541 .495242
3 1 .825364 .020743 .556367
4 1 .201604 .011124 .530669
5 1 .004533 .622057 .469476
6 1 .495591 .467398 .989818
7 1 .504395 .429767 .012108
ITEM: TIMESTEP
300
ITEM: NUMBER OF ATOMS
7
ITEM: BOX BOUNDS ss ss ss
-3.0113 3.2519
-2.6866 3.3646
-2.0397 1.9073
ITEM: ATOMS id type xs ys zs
1 1 .499743 .991756 .458542
2 1 .993881 .627309 .495824
3 1 .822392 .021670 .555970
4 1 .209592 .008037 .527190
5 1 .009174 .622996 .474581
6 1 .497687 .464951 .984652
7 1 .507040 .429682 .007202
ITEM: TIMESTEP
350
ITEM: NUMBER OF ATOMS
7
ITEM: BOX BOUNDS ss ss ss
-3.0057 3.2637
-2.6760 3.3651
-2.0422 1.9004
ITEM: ATOMS id type xs ys zs
1 1 .499540 .993958 .457572
2 1 .992803 .625440 .492209
3 1 .820841 .022389 .559756
4 1 .202559 .013546 .528736
5 1 .006024 .620913 .470425
6 1 .497398 .471532 .991592
7 1 .506801 .436507 .011941
ITEM: TIMESTEP
400
ITEM: NUMBER OF ATOMS
7
ITEM: BOX BOUNDS ss ss ss
-3.0066 3.2575
-2.6680 3.3716
-2.0468 1.9048
ITEM: ATOMS id type xs ys zs
1 1 .501400 .995439 .457657
2 1 .997315 .623083 .487718
3 1 .817712 .023577 .558105
4 1 .204227 .011791 .527032
5 1 .004934 .619083 .473262
6 1 .495527 .472195 .988339
7 1 .505209 .435035 .015637
ITEM: TIMESTEP
1
ITEM: NUMBER OF ATOMS
7
ITEM: BOX BOUNDS ss ss ss
-3.0017 3.2580
-2.6483 3.3480
-2.0393 1.8960
ITEM: ATOMS id type xs ys zs
1 1 .493402 .995823 .452937
2 1 .992370 .625235 .497588
3 1 .827896 .015773 .559331
4 1 .203299 .004174 .533553
5 1 .007591 .621945 .472176
6 1 .497621 .463953 .987922
7 1 .502807 .433252 .011339
ITEM: TIMESTEP
50
ITEM: NUMBER OF ATOMS
7
ITEM: BOX BOUNDS ss ss ss
-3.0017 3.2580
-2.6547 3.3529
-2.0393 1.8960
ITEM: ATOMS id type xs ys zs
1 1 .492271 .997461 .451369
2 1 .992772 .624967 .496345
3 1 .827230 .016847 .557204
4 1 .203612 .005573 .535418
5 1 .007235 .620204 .474216
6 1 .498241 .462958 .984780
7 1 .503518 .433288 .011866
ITEM: TIMESTEP
100
ITEM: NUMBER OF ATOMS
7
ITEM: BOX BOUNDS ss ss ss
-3.0063 3.2580
-2.6662 3.3621
-2.0393 1.8960
ITEM: ATOMS id type xs ys zs
1 1 .495425 .994147 .448927
2 1 .997323 .625380 .498750
3 1 .829673 .021266 .560434
4 1 .203594 .006927 .532469
5 1 .006714 .622034 .466728
6 1 .496850 .463511 .985648
7 1 .504235 .433549 .013282
ITEM: TIMESTEP
150
ITEM: NUMBER OF ATOMS
7
ITEM: BOX BOUNDS ss ss ss
-3.0082 3.2580
-2.6669 3.3656
-2.0393 1.8960
ITEM: ATOMS id type xs ys zs
1 1 .497277 .994135 .450070
2 1 .991565 .627034 .499274
3 1 .828154 .018243 .563627
4 1 .202031 .008889 .533860
5 1 .008925 .620996 .474772
6 1 .498699 .462295 .987207
7 1 .506625 .431721 .012549
ITEM: TIMESTEP
200
ITEM: NUMBER OF ATOMS
7
ITEM: BOX BOUNDS ss ss ss
-3.0163 3.2591
-2.6734 3.3672
-2.0393 1.8960
ITEM: ATOMS id type xs ys zs
1 1 .497934 .993625 .452691
2 1 .990610 .628751 .497084
3 1 .824644 .021681 .556155
4 1 .206587 .006700 .528728
5 1 .007622 .624420 .474640
6 1 .493980 .464465 .990510
7 1 .508483 .429470 .012727
ITEM: TIMESTEP
250
ITEM: NUMBER OF ATOMS
7
ITEM: BOX BOUNDS ss ss ss
-3.0119 3.2676
-2.6811 3.3717
-2.0395 1.8997
ITEM: ATOMS id type xs ys zs
1 1 .498375 .989628 .449441
2 1 .990915 .625430 .500676
3 1 .828479 .023840 .552728
4 1 .209695 .011322 .527770
5 1 .008199 .621565 .472066
6 1 .494845 .466766 .994194
7 1 .505709 .429551 .010054
ITEM: TIMESTEP
300
ITEM: NUMBER OF ATOMS
7
ITEM: BOX BOUNDS ss ss ss
-3.0164 3.2697
-2.6830 3.3739
-2.0393 1.9002
ITEM: ATOMS id type xs ys zs
1 1 .497501 .987173 .445983
2 1 .988833 .626977 .495761
3 1 .820949 .026672 .554631
4 1 .206322 .008234 .537370
5 1 .010250 .621303 .465701
6 1 .492707 .467883 .992283
7 1 .506720 .431460 .012216
ITEM: TIMESTEP
350
ITEM: NUMBER OF ATOMS
7
ITEM: BOX BOUNDS ss ss ss
-3.0193 3.2697
-2.6845 3.3761
-2.0426 1.9066
ITEM: ATOMS id type xs ys zs
1 1 .497617 .989472 .449563
2 1 .989380 .627560 .494483
3 1 .827400 .025929 .551056
4 1 .211421 .007389 .527535
5 1 .006153 .618358 .467965
6 1 .492011 .468485 .984015
7 1 .506082 .426846 .009197
ITEM: TIMESTEP
400
ITEM: NUMBER OF ATOMS
7
ITEM: BOX BOUNDS ss ss ss
-3.0233 3.2668
-2.6816 3.3689
-2.0456 1.9151
ITEM: ATOMS id type xs ys zs
1 1 .493488 .990479 .445874
2 1 .991571 .626311 .489213
3 1 .821280 .023227 .556486
4 1 .212347 .009265 .525305
5 1 .004606 .610386 .483897
6 1 .496567 .470393 .983995
7 1 .505543 .432639 .014006
ITEM: TIMESTEP
1
ITEM: NUMBER OF ATOMS
7
ITEM: BOX BOUNDS ss ss ss
-3.0017 3.2476
-2.6719 3.3421
-2.0311 1.8957
ITEM: ATOMS id type xs ys zs
1 1 .494038 .996781 .451202
2 1 .994293 .627288 .496783
3 1 .828878 .019485 .558515
4 1 .203450 .007721 .532992
5 1 .007586 .624229 .471566
6 1 .498111 .466316 .988266
7 1 .503932 .436133 .009597
ITEM: TIMESTEP
50
ITEM: NUMBER OF ATOMS
7
ITEM: BOX BOUNDS ss ss ss
-3.0017 3.2476
-2.6719 3.3548
-2.0311 1.8957
ITEM: ATOMS id type xs ys zs
1 1 .494857 .996355 .454183
2 1 .995054 .627174 .498023
3 1 .826896 .018025 .558843
4 1 .202597 .004795 .535961
5 1 .007192 .623868 .470226
6 1 .497704 .466212 .986958
7 1 .504516 .434538 .004931
ITEM: TIMESTEP
100
ITEM: NUMBER OF ATOMS
7
ITEM: BOX BOUNDS ss ss ss
-3.0017 3.2476
-2.6719 3.3592
-2.0311 1.8957
ITEM: ATOMS id type xs ys zs
1 1 .495560 .993016 .451475
2 1 .996852 .626091 .495733
3 1 .830831 .017738 .556468
4 1 .204385 .006008 .531694
5 1 .005196 .624142 .470709
6 1 .499695 .466516 .990086
7 1 .502341 .434353 .011709
ITEM: TIMESTEP
150
ITEM: NUMBER OF ATOMS
7
ITEM: BOX BOUNDS ss ss ss
-3.0061 3.2476
-2.6719 3.3657
-2.0342 1.8957
ITEM: ATOMS id type xs ys zs
1 1 .493891 .990444 .453413
2 1 .993235 .622516 .492464
3 1 .825476 .021330 .558929
4 1 .206296 .003868 .529935
5 1 .002580 .623144 .468844
6 1 .498862 .467761 .985325
7 1 .500725 .430960 .009774
ITEM: TIMESTEP
200
ITEM: NUMBER OF ATOMS
7
ITEM: BOX BOUNDS ss ss ss
-3.0084 3.2476
-2.6755 3.3722
-2.0378 1.8979
ITEM: ATOMS id type xs ys zs
1 1 .493794 .993677 .455501
2 1 .991077 .629626 .494314
3 1 .828835 .018524 .558026
4 1 .205411 .009374 .531342
5 1 .010372 .622114 .472195
6 1 .498899 .464692 .986650
7 1 .509911 .429389 .013956
ITEM: TIMESTEP
250
ITEM: NUMBER OF ATOMS
7
ITEM: BOX BOUNDS ss ss ss
-3.0146 3.2476
-2.6778 3.3718
-2.0390 1.9084
ITEM: ATOMS id type xs ys zs
1 1 .496769 .993681 .455123
2 1 .994564 .627349 .489929
3 1 .823188 .022938 .558940
4 1 .205780 .009893 .524945
5 1 .007464 .620375 .473376
6 1 .498287 .468283 .983739
7 1 .504664 .433880 .010012
ITEM: TIMESTEP
300
ITEM: NUMBER OF ATOMS
7
ITEM: BOX BOUNDS ss ss ss
-3.0065 3.2476
-2.6777 3.3727
-2.0408 1.9169
ITEM: ATOMS id type xs ys zs
1 1 .495458 .990375 .458362
2 1 .993936 .624293 .499906
3 1 .824472 .023342 .550023
4 1 .207504 .010201 .531943
5 1 .003704 .619053 .473673
6 1 .496706 .468810 .985416
7 1 .503428 .432240 .009474
ITEM: TIMESTEP
350
ITEM: NUMBER OF ATOMS
7
ITEM: BOX BOUNDS ss ss ss
-3.0102 3.2476
-2.6846 3.3685
-2.0506 1.9147
ITEM: ATOMS id type xs ys zs
1 1 .498199 .992136 .458350
2 1 .992789 .627971 .503809
3 1 .822645 .022373 .552440
4 1 .210377 .009566 .538672
5 1 .009503 .617625 .470198
6 1 .499884 .470433 .988454
7 1 .507590 .433729 .013131
ITEM: TIMESTEP
400
ITEM: NUMBER OF ATOMS
7
ITEM: BOX BOUNDS ss ss ss
-3.0108 3.2476
-2.6859 3.3727
-2.0553 1.9184
ITEM: ATOMS id type xs ys zs
1 1 .495955 .990393 .459246
2 1 .992039 .623295 .491913
3 1 .823893 .026075 .556555
4 1 .208065 .010050 .532279
5 1 .010112 .615870 .475279
6 1 .499977 .469862 .986470
7 1 .507552 .429470 .015531
ITEM: TIMESTEP
1
ITEM: NUMBER OF ATOMS
7
ITEM: BOX BOUNDS ss ss ss
-2.9801 3.2351
-2.6462 3.3357
-2.0316 1.9149
ITEM: ATOMS id type xs ys zs
1 1 .493209 .997833 .449957
2 1 .996425 .626362 .494746
3 1 .829852 .015464 .556348
4 1 .200809 .003644 .530087
5 1 .004322 .623176 .469190
6 1 .497612 .464438 .983385
7 1 .503184 .434205 .009230
ITEM: TIMESTEP
50
ITEM: NUMBER OF ATOMS
7
ITEM: BOX BOUNDS ss ss ss
-2.9880 3.2395
-2.6556 3.3589
-2.0316 1.9149
ITEM: ATOMS id type xs ys zs
1 1 .493282 .996037 .449627
2 1 .995228 .624447 .494617
3 1 .833843 .018374 .554821
4 1 .202319 .007287 .528090
5 1 .005444 .620717 .467081
6 1 .497584 .463233 .981976
7 1 .503382 .435075 .008388
ITEM: TIMESTEP
100
ITEM: NUMBER OF ATOMS
7
ITEM: BOX BOUNDS ss ss ss
-2.9956 3.2486
-2.6626 3.3602
-2.0388 1.9149
ITEM: ATOMS id type xs ys zs
1 1 .495656 .993137 .451931
2 1 .995545 .625506 .494295
3 1 .829101 .018483 .560557
4 1 .206586 .004272 .528624
5 1 .007415 .618690 .471305
6 1 .498788 .464643 .984769
7 1 .501538 .431012 .012275
ITEM: TIMESTEP
150
ITEM: NUMBER OF ATOMS
7
ITEM: BOX BOUNDS ss ss ss
-3.0052 3.2599
-2.6673 3.3749
-2.0422 1.9149
ITEM: ATOMS id type xs ys zs
1 1 .497002 .990469 .455200
2 1 .994474 .625085 .496601
3 1 .827289 .016301 .564518
4 1 .207131 .001960 .528027
5 1 .009699 .621880 .471327
6 1 .499545 .462457 .982845
7 1 .497912 .431482 .012388
ITEM: TIMESTEP
200
ITEM: NUMBER OF ATOMS
7
ITEM: BOX BOUNDS ss ss ss
-3.0088 3.2460
-2.6655 3.3775
-2.0392 1.9149
ITEM: ATOMS id type xs ys zs
1 1 .493212 .992343 .458264
2 1 .998341 .624415 .488894
3 1 .827852 .019686 .557029
4 1 .206222 .006733 .532632
5 1 .005705 .621545 .480258
6 1 .500388 .464101 .980100
7 1 .508533 .433077 .008251
ITEM: TIMESTEP
250
ITEM: NUMBER OF ATOMS
7
ITEM: BOX BOUNDS ss ss ss
-3.0036 3.2545
-2.6627 3.3804
-2.0381 1.9149
ITEM: ATOMS id type xs ys zs
1 1 .495408 .992433 .455480
2 1 .998069 .626726 .497816
3 1 .825006 .021646 .559234
4 1 .202422 .008699 .532044
5 1 .004225 .617598 .475396
6 1 .495036 .466224 .980343
7 1 .504823 .432559 .008734
ITEM: TIMESTEP
300
ITEM: NUMBER OF ATOMS
7
ITEM: BOX BOUNDS ss ss ss
-3.0156 3.2572
-2.6625 3.3799
-2.0450 1.9149
ITEM: ATOMS id type xs ys zs
1 1 .501332 .989186 .459145
2 1 .993452 .623771 .491657
3 1 .824026 .018329 .556389
4 1 .202918 .011625 .532082
5 1 .010600 .616837 .472483
6 1 .498143 .466441 .982348
7 1 .503007 .430996 .010196
ITEM: TIMESTEP
350
ITEM: NUMBER OF ATOMS
7
ITEM: BOX BOUNDS ss ss ss
-3.0134 3.2712
-2.6625 3.3746
-2.0534 1.9149
ITEM: ATOMS id type xs ys zs
1 1 .497957 .992223 .459973
2 1 .989401 .626598 .495515
3 1 .818997 .019970 .552976
4 1 .201197 .013555 .536219
5 1 .006008 .618024 .477438
6 1 .497873 .467161 .985933
7 1 .502841 .429645 .011487
ITEM: TIMESTEP
400
ITEM: NUMBER OF ATOMS
7
ITEM: BOX BOUNDS ss ss ss
-3.0155 3.2679
-2.6710 3.3754
-2.0483 1.9149
ITEM: ATOMS id type xs ys zs
1 1 .496482 .992980 .457917
2 1 .990201 .627048 .498264
3 1 .817400 .022196 .551140
4 1 .201770 .015705 .532395
5 1 .007289 .617698 .475808
6 1 .499688 .465726 .987525
7 1 .503485 .429721 .010517
ITEM: TIMESTEP
1
ITEM: NUMBER OF ATOMS
7
ITEM: BOX BOUNDS ss ss ss
-3.0018 3.2344
-2.6361 3.3586
-2.0209 1.9077
ITEM: ATOMS id type xs ys zs
1 1 .495426 .993995 .449385
2 1 .996498 .623383 .494072
3 1 .830779 .013877 .556045
4 1 .204106 .001935 .529750
5 1 .007652 .620119 .468794
6 1 .499394 .462185 .985061
7 1 .504949 .431216 .007059
ITEM: TIMESTEP
50
ITEM: NUMBER OF ATOMS
7
ITEM: BOX BOUNDS ss ss ss
-3.0018 3.2372
-2.6550 3.3586
-2.0216 1.9077
ITEM: ATOMS id type xs ys zs
1 1 .496652 .995520 .451994
2 1 .992127 .623087 .495506
3 1 .833072 .018504 .554658
4 1 .202827 .004850 .532681
5 1 .006540 .621495 .469395
6 1 .498900 .464524 .986970
7 1 .504151 .435229 .006042
ITEM: TIMESTEP
100
ITEM: NUMBER OF ATOMS
7
ITEM: BOX BOUNDS ss ss ss
-3.0018 3.2506
-2.6608 3.3674
-2.0301 1.9077
ITEM: ATOMS id type xs ys zs
1 1 .494187 .994391 .451093
2 1 .996405 .622689 .494110
3 1 .829169 .017097 .558476
4 1 .202523 .007409 .524625
5 1 .004719 .621174 .471658
6 1 .496856 .462874 .984111
7 1 .504074 .433998 .006814
ITEM: TIMESTEP
150
ITEM: NUMBER OF ATOMS
7
ITEM: BOX BOUNDS ss ss ss
-3.0107 3.2530
-2.6691 3.3777
-2.0389 1.9077
ITEM: ATOMS id type xs ys zs
1 1 .497842 .992712 .453860
2 1 .991932 .627428 .494612
3 1 .829965 .019378 .559651
4 1 .204071 .006092 .529590
5 1 .005549 .619601 .467183
6 1 .497244 .463559 .988565
7 1 .505172 .433741 .012191
ITEM: TIMESTEP
200
ITEM: NUMBER OF ATOMS
7
ITEM: BOX BOUNDS ss ss ss
-3.0234 3.2527
-2.6711 3.3679
-2.0443 1.9077
ITEM: ATOMS id type xs ys zs
1 1 .497896 .993552 .456024
2 1 .994663 .625086 .493058
3 1 .825840 .022150 .562448
4 1 .205005 .012518 .534135
5 1 .007893 .625992 .475883
6 1 .496963 .467016 .982474
7 1 .505151 .430455 .011275
ITEM: TIMESTEP
250
ITEM: NUMBER OF ATOMS
7
ITEM: BOX BOUNDS ss ss ss
-3.0149 3.2574
-2.6648 3.3712
-2.0470 1.9077
ITEM: ATOMS id type xs ys zs
1 1 .498208 .992035 .456279
2 1 .994640 .626261 .496574
3 1 .825996 .021293 .557291
4 1 .208356 .009756 .524724
5 1 .009246 .620491 .470709
6 1 .495583 .467950 .980743
7 1 .508537 .429180 .011804
ITEM: TIMESTEP
300
ITEM: NUMBER OF ATOMS
7
ITEM: BOX BOUNDS ss ss ss
-3.0158 3.2656
-2.6534 3.3733
-2.0528 1.9077
ITEM: ATOMS id type xs ys zs
1 1 .497194 .994231 .457843
2 1 .993052 .624887 .492308
3 1 .824824 .023423 .556704
4 1 .203492 .007400 .525743
5 1 .006537 .617780 .467333
6 1 .495369 .464086 .982671
7 1 .507526 .428488 .009804
ITEM: TIMESTEP
350
ITEM: NUMBER OF ATOMS
7
ITEM: BOX BOUNDS ss ss ss
-3.0048 3.2687
-2.6551 3.3704
-2.0604 1.9077
ITEM: ATOMS id type xs ys zs
1 1 .501055 .990108 .458513
2 1 .993786 .623345 .497164
3 1 .821716 .020414 .552352
4 1 .199854 .009472 .523407
5 1 .005450 .616890 .467739
6 1 .495507 .466042 .986236
7 1 .505813 .431496 .008511
ITEM: TIMESTEP
400
ITEM: NUMBER OF ATOMS
7
ITEM: BOX BOUNDS ss ss ss
-3.0084 3.2767
-2.6585 3.3710
-2.0569 1.9077
ITEM: ATOMS id type xs ys zs
1 1 .500501 .991201 .458769
2 1 .991369 .623384 .495034
3 1 .821179 .022802 .551679
4 1 .199747 .010563 .523761
5 1 .005569 .617178 .468870
6 1 .497132 .466319 .988884
7 1 .505033 .432215 .005837
ITEM: TIMESTEP
1
ITEM: NUMBER OF ATOMS
7
ITEM: BOX BOUNDS ss ss ss
-3.0018 3.2556
-2.6361 3.3586
-2.0372 1.9077
ITEM: ATOMS id type xs ys zs
1 1 .493338 .994002 .451375
2 1 .993253 .623453 .496138
3 1 .828044 .013589 .558438
4 1 .203228 .001758 .531761
5 1 .007489 .619915 .470968
6 1 .497810 .461914 .985195
7 1 .503357 .431147 .010741
ITEM: TIMESTEP
50
ITEM: NUMBER OF ATOMS
7
ITEM: BOX BOUNDS ss ss ss
-3.0018 3.2556
-2.6541 3.3586
-2.0372 1.9077
ITEM: ATOMS id type xs ys zs
1 1 .493071 .993327 .446530
2 1 .994034 .625415 .495907
3 1 .830291 .017516 .557446
4 1 .204295 .004191 .532581
5 1 .009042 .622644 .472280
6 1 .496179 .463711 .981544
7 1 .501327 .431409 .011765
ITEM: TIMESTEP
100
ITEM: NUMBER OF ATOMS
7
ITEM: BOX BOUNDS ss ss ss
-3.0018 3.2556
-2.6693 3.3702
-2.0372 1.9077
ITEM: ATOMS id type xs ys zs
1 1 .493708 .991597 .452700
2 1 .993334 .623388 .492658
3 1 .828305 .016840 .557138
4 1 .202221 .008139 .531098
5 1 .004087 .621714 .469961
6 1 .501262 .463414 .979450
7 1 .504839 .433663 .011729
ITEM: TIMESTEP
150
ITEM: NUMBER OF ATOMS
7
ITEM: BOX BOUNDS ss ss ss
-3.0213 3.2556
-2.6656 3.3738
-2.0372 1.9077
ITEM: ATOMS id type xs ys zs
1 1 .494052 .994448 .453514
2 1 .994281 .623566 .498908
3 1 .828135 .017088 .559398
4 1 .203066 .007328 .538903
5 1 .007562 .620698 .475316
6 1 .500614 .465306 .983779
7 1 .507856 .430983 .016035
ITEM: TIMESTEP
200
ITEM: NUMBER OF ATOMS
7
ITEM: BOX BOUNDS ss ss ss
-3.0281 3.2556
-2.6720 3.3801
-2.0393 1.9077
ITEM: ATOMS id type xs ys zs
1 1 .496886 .990064 .456375
2 1 .993452 .623995 .499863
3 1 .826744 .019416 .559164
4 1 .211897 .011112 .532465
5 1 .005466 .622208 .472919
6 1 .501219 .464482 .989464
7 1 .507596 .433215 .014444
ITEM: TIMESTEP
250
ITEM: NUMBER OF ATOMS
7
ITEM: BOX BOUNDS ss ss ss
-3.0227 3.2556
-2.6782 3.3819
-2.0382 1.9077
ITEM: ATOMS id type xs ys zs
1 1 .500109 .988518 .455449
2 1 .993985 .622938 .497996
3 1 .827537 .022770 .556399
4 1 .209015 .007279 .531080
5 1 .007374 .618890 .475152
6 1 .497429 .467151 .982824
7 1 .504499 .433800 .011786
ITEM: TIMESTEP
300
ITEM: NUMBER OF ATOMS
7
ITEM: BOX BOUNDS ss ss ss
-3.0193 3.2631
-2.6870 3.3825
-2.0403 1.9115
ITEM: ATOMS id type xs ys zs
1 1 .497109 .988489 .451331
2 1 .992010 .623089 .499778
3 1 .825009 .024295 .554248
4 1 .210472 .007963 .531046
5 1 .003520 .619434 .470878
6 1 .498078 .467803 .982673
7 1 .505438 .431091 .013306
ITEM: TIMESTEP
350
ITEM: NUMBER OF ATOMS
7
ITEM: BOX BOUNDS ss ss ss
-3.0229 3.2706
-2.6810 3.3784
-2.0480 1.9077
ITEM: ATOMS id type xs ys zs
1 1 .496311 .996345 .456769
2 1 .990462 .626840 .505092
3 1 .827368 .023820 .556917
4 1 .205716 .014023 .531766
5 1 .010361 .620852 .479694
6 1 .495807 .466504 .985103
7 1 .508838 .431479 .013232
ITEM: TIMESTEP
400
ITEM: NUMBER OF ATOMS
7
ITEM: BOX BOUNDS ss ss ss
-3.0274 3.2781
-2.6769 3.3769
-2.0378 1.9077
ITEM: ATOMS id type xs ys zs
1 1 .495032 .992273 .451982
2 1 .988533 .629803 .501870
3 1 .824975 .025904 .555690
4 1 .210550 .012269 .530838
5 1 .010839 .617999 .477968
6 1 .496359 .470430 .990106
7 1 .507563 .428298 .005073
ITEM: TIMESTEP
1
ITEM: NUMBER OF ATOMS
7
ITEM: BOX BOUNDS ss ss ss
-3.0018 3.2556
-2.6431 3.3586
-2.0372 1.9077
ITEM: ATOMS id type xs ys zs
1 1 .493801 .994111 .451037
2 1 .992911 .623721 .496068
3 1 .827974 .014649 .558059
4 1 .203028 .002654 .531538
5 1 .007356 .620548 .470475
6 1 .497976 .462594 .985313
7 1 .503287 .432260 .010983
ITEM: TIMESTEP
50
ITEM: NUMBER OF ATOMS
7
ITEM: BOX BOUNDS ss ss ss
-3.0018 3.2556
-2.6528 3.3586
-2.0372 1.9077
ITEM: ATOMS id type xs ys zs
1 1 .492812 .993718 .449719
2 1 .991664 .626002 .498164
3 1 .831461 .015696 .559085
4 1 .203509 .006094 .528179
5 1 .005356 .621985 .470596
6 1 .498990 .463418 .987864
7 1 .503564 .433648 .012397
ITEM: TIMESTEP
100
ITEM: NUMBER OF ATOMS
7
ITEM: BOX BOUNDS ss ss ss
-3.0018 3.2556
-2.6665 3.3713
-2.0372 1.9077
ITEM: ATOMS id type xs ys zs
1 1 .495993 .995382 .448957
2 1 .990499 .625090 .500283
3 1 .828699 .017835 .557376
4 1 .202877 .007995 .530899
5 1 .008197 .621213 .472978
6 1 .499792 .463073 .984494
7 1 .503788 .433049 .008057
ITEM: TIMESTEP
150
ITEM: NUMBER OF ATOMS
7
ITEM: BOX BOUNDS ss ss ss
-3.0067 3.2556
-2.6652 3.3642
-2.0464 1.9077
ITEM: ATOMS id type xs ys zs
1 1 .494945 .991949 .459487
2 1 .988503 .624624 .499157
3 1 .825625 .018127 .560669
4 1 .201551 .007771 .528088
5 1 .005221 .620880 .471886
6 1 .497385 .466131 .984185
7 1 .504559 .428876 .008896
ITEM: TIMESTEP
200
ITEM: NUMBER OF ATOMS
7
ITEM: BOX BOUNDS ss ss ss
-3.0167 3.2643
-2.6666 3.3736
-2.0518 1.9077
ITEM: ATOMS id type xs ys zs
1 1 .491219 .990967 .451689
2 1 .990691 .621663 .494707
3 1 .824669 .015616 .557632
4 1 .202182 .010850 .532340
5 1 .006040 .619189 .472727
6 1 .496687 .464592 .981699
7 1 .505232 .428371 .013804
ITEM: TIMESTEP
250
ITEM: NUMBER OF ATOMS
7
ITEM: BOX BOUNDS ss ss ss
-3.0140 3.2556
-2.6618 3.3746
-2.0517 1.9077
ITEM: ATOMS id type xs ys zs
1 1 .492484 .992250 .450150
2 1 .992691 .620109 .495835
3 1 .829017 .014585 .560431
4 1 .203739 .009975 .532352
5 1 .006438 .621262 .472005
6 1 .495414 .465544 .981769
7 1 .507526 .428652 .015868
ITEM: TIMESTEP
300
ITEM: NUMBER OF ATOMS
7
ITEM: BOX BOUNDS ss ss ss
-3.0110 3.2556
-2.6629 3.3820
-2.0493 1.9077
ITEM: ATOMS id type xs ys zs
1 1 .494904 .997164 .450366
2 1 .987548 .623669 .495480
3 1 .828550 .017322 .566520
4 1 .202457 .010785 .532241
5 1 .004460 .623603 .475905
6 1 .494761 .466224 .985197
7 1 .506126 .429544 .016956
ITEM: TIMESTEP
350
ITEM: NUMBER OF ATOMS
7
ITEM: BOX BOUNDS ss ss ss
-3.0183 3.2556
-2.6770 3.3830
-2.0504 1.9077
ITEM: ATOMS id type xs ys zs
1 1 .495895 .988987 .454931
2 1 .990959 .627287 .486679
3 1 .827082 .019803 .561920
4 1 .200353 .014630 .526813
5 1 .009431 .621120 .476615
6 1 .497854 .465298 .984371
7 1 .508636 .429067 .015261
ITEM: TIMESTEP
400
ITEM: NUMBER OF ATOMS
7
ITEM: BOX BOUNDS ss ss ss
-3.0209 3.2584
-2.6908 3.3766
-2.0472 1.9077
ITEM: ATOMS id type xs ys zs
1 1 .497521 .991971 .458239
2 1 .991240 .621494 .497995
3 1 .826124 .019528 .553704
4 1 .205808 .009337 .532526
5 1 .008223 .622141 .471569
6 1 .495112 .467952 .982634
7 1 .505666 .431307 .013619
ITEM: TIMESTEP
1
ITEM: NUMBER OF ATOMS
7
ITEM: BOX BOUNDS ss ss ss
-2.9969 3.2437
-2.6637 3.3428
-2.0252 1.8689
ITEM: ATOMS id type xs ys zs
1 1 .493896 .996381 .453766
2 1 .994794 .626829 .499428
3 1 .829399 .018303 .562076
4 1 .203154 .006298 .535503
5 1 .006850 .623381 .474054
6 1 .498442 .465707 .994805
7 1 .503989 .435715 .008207
ITEM: TIMESTEP
50
ITEM: NUMBER OF ATOMS
7
ITEM: BOX BOUNDS ss ss ss
-2.9969 3.2437
-2.6637 3.3559
-2.0252 1.8779
ITEM: ATOMS id type xs ys zs
1 1 .495620 .994359 .453640
2 1 .992945 .625865 .495327
3 1 .830597 .018810 .556917
4 1 .203802 .007902 .533940
5 1 .009180 .622561 .471708
6 1 .498510 .465089 .992679
7 1 .502543 .436622 .010128
ITEM: TIMESTEP
100
ITEM: NUMBER OF ATOMS
7
ITEM: BOX BOUNDS ss ss ss
-3.0031 3.2535
-2.6684 3.3711
-2.0311 1.8844
ITEM: ATOMS id type xs ys zs
1 1 .494333 .991924 .452833
2 1 .994423 .622742 .496921
3 1 .831638 .021551 .562075
4 1 .202035 .007852 .535407
5 1 .008333 .624874 .475152
6 1 .496303 .461905 .991770
7 1 .506243 .434675 .008901
ITEM: TIMESTEP
150
ITEM: NUMBER OF ATOMS
7
ITEM: BOX BOUNDS ss ss ss
-3.0124 3.2587
-2.6702 3.3759
-2.0376 1.8847
ITEM: ATOMS id type xs ys zs
1 1 .495385 .989874 .459200
2 1 .990835 .624189 .496084
3 1 .830934 .017573 .558471
4 1 .202823 .009365 .533801
5 1 .008366 .621722 .470583
6 1 .498141 .462833 .993362
7 1 .506894 .429355 .009277
ITEM: TIMESTEP
200
ITEM: NUMBER OF ATOMS
7
ITEM: BOX BOUNDS ss ss ss
-3.0228 3.2509
-2.6788 3.3690
-2.0399 1.8926
ITEM: ATOMS id type xs ys zs
1 1 .493569 .991704 .455568
2 1 .991188 .624756 .496108
3 1 .827708 .021192 .559548
4 1 .206343 .005774 .531826
5 1 .007226 .624251 .479012
6 1 .496868 .467312 .986873
7 1 .500497 .429296 .008093
ITEM: TIMESTEP
250
ITEM: NUMBER OF ATOMS
7
ITEM: BOX BOUNDS ss ss ss
-3.0240 3.2437
-2.6927 3.3711
-2.0404 1.8864
ITEM: ATOMS id type xs ys zs
1 1 .495102 .989053 .460978
2 1 .990692 .627669 .492738
3 1 .830400 .023318 .558316
4 1 .209575 .006572 .539683
5 1 .007248 .626192 .479199
6 1 .496290 .460488 .989711
7 1 .505032 .428604 .010130
ITEM: TIMESTEP
300
ITEM: NUMBER OF ATOMS
7
ITEM: BOX BOUNDS ss ss ss
-3.0186 3.2437
-2.6991 3.3685
-2.0460 1.8974
ITEM: ATOMS id type xs ys zs
1 1 .495222 .993110 .461109
2 1 .992658 .631569 .495257
3 1 .825384 .026119 .558027
4 1 .207814 .008718 .533094
5 1 .006678 .623617 .476872
6 1 .493637 .465203 .988168
7 1 .504837 .430334 .016983
ITEM: TIMESTEP
350
ITEM: NUMBER OF ATOMS
7
ITEM: BOX BOUNDS ss ss ss
-3.0183 3.2437
-2.7040 3.3666
-2.0415 1.8908
ITEM: ATOMS id type xs ys zs
1 1 .498857 .992225 .465582
2 1 .991722 .631442 .497935
3 1 .827163 .027051 .561176
4 1 .207785 .010245 .528573
5 1 .003683 .623050 .478284
6 1 .493168 .467741 .991051
7 1 .505997 .433151 .015168
ITEM: TIMESTEP
400
ITEM: NUMBER OF ATOMS
7
ITEM: BOX BOUNDS ss ss ss
-3.0271 3.2474
-2.7085 3.3759
-2.0380 1.8976
ITEM: ATOMS id type xs ys zs
1 1 .497850 .993304 .459924
2 1 .991412 .633717 .489053
3 1 .823178 .027192 .556309
4 1 .206822 .005524 .532154
5 1 .008553 .621615 .476546
6 1 .492513 .467912 .985952
7 1 .502604 .433152 .019748
ITEM: TIMESTEP
1
ITEM: NUMBER OF ATOMS
7
ITEM: BOX BOUNDS ss ss ss
-3.0109 3.2235
-2.6920 3.3618
-2.0159 1.8852
ITEM: ATOMS id type xs ys zs
1 1 .496674 .993559 .450681
2 1 .998004 .626693 .495864
3 1 .832147 .022764 .557989
4 1 .205298 .011421 .532418
5 1 .009089 .623214 .471223
6 1 .501065 .466853 .990630
7 1 .506809 .436524 .005358
ITEM: TIMESTEP
50
ITEM: NUMBER OF ATOMS
7
ITEM: BOX BOUNDS ss ss ss
-3.0109 3.2421
-2.6920 3.3618
-2.0215 1.8852
ITEM: ATOMS id type xs ys zs
1 1 .497303 .993462 .452893
2 1 .996344 .625804 .495654
3 1 .830869 .022993 .559010
4 1 .204591 .009092 .530287
5 1 .009628 .623667 .473819
6 1 .498979 .465017 .991376
7 1 .506736 .436344 .008292
ITEM: TIMESTEP
100
ITEM: NUMBER OF ATOMS
7
ITEM: BOX BOUNDS ss ss ss
-3.0109 3.2460
-2.6920 3.3732
-2.0318 1.8866
ITEM: ATOMS id type xs ys zs
1 1 .502336 .991570 .453839
2 1 .996213 .626891 .495046
3 1 .831947 .024110 .559402
4 1 .202395 .010641 .533474
5 1 .006584 .622377 .471692
6 1 .497619 .464283 .988296
7 1 .501827 .436765 .008205
ITEM: TIMESTEP
150
ITEM: NUMBER OF ATOMS
7
ITEM: BOX BOUNDS ss ss ss
-3.0109 3.2524
-2.6920 3.3782
-2.0396 1.8852
ITEM: ATOMS id type xs ys zs
1 1 .498698 .992486 .451816
2 1 .994457 .625645 .498233
3 1 .828531 .021817 .564362
4 1 .204725 .012454 .532601
5 1 .006977 .623802 .472181
6 1 .497936 .463292 .992498
7 1 .506091 .432979 .015167
ITEM: TIMESTEP
200
ITEM: NUMBER OF ATOMS
7
ITEM: BOX BOUNDS ss ss ss
-3.0131 3.2483
-2.6920 3.3685
-2.0394 1.8890
ITEM: ATOMS id type xs ys zs
1 1 .497726 .993464 .448363
2 1 .994665 .626660 .497492
3 1 .831057 .020451 .563417
4 1 .204090 .012975 .530233
5 1 .006325 .626758 .469028
6 1 .499260 .461937 .990564
7 1 .505519 .434835 .016635
ITEM: TIMESTEP
250
ITEM: NUMBER OF ATOMS
7
ITEM: BOX BOUNDS ss ss ss
-3.0292 3.2552
-2.6920 3.3704
-2.0409 1.8905
ITEM: ATOMS id type xs ys zs
1 1 .501025 .994488 .457582
2 1 .993844 .624272 .489972
3 1 .826765 .022551 .558601
4 1 .209787 .011714 .537074
5 1 .013981 .623060 .470065
6 1 .500318 .464951 .990643
7 1 .508367 .432760 .013871
ITEM: TIMESTEP
300
ITEM: NUMBER OF ATOMS
7
ITEM: BOX BOUNDS ss ss ss
-3.0207 3.2559
-2.6920 3.3732
-2.0370 1.8946
ITEM: ATOMS id type xs ys zs
1 1 .503120 .992959 .456446
2 1 .991467 .624405 .489385
3 1 .826944 .022243 .559756
4 1 .207187 .008693 .536735
5 1 .012899 .624077 .469211
6 1 .496538 .465042 .990355
7 1 .506983 .433132 .014012
ITEM: TIMESTEP
350
ITEM: NUMBER OF ATOMS
7
ITEM: BOX BOUNDS ss ss ss
-3.0171 3.2592
-2.6920 3.3765
-2.0415 1.8975
ITEM: ATOMS id type xs ys zs
1 1 .499213 .994313 .458266