ITEM: TIMESTEP
1
ITEM: NUMBER OF ATOMS
7
ITEM: BOX BOUNDS ss ss ss
-3.1015 3.1231
-2.4799 3.5544
-2.1218 1.7132
ITEM: ATOMS id type xs ys zs
1 1 .497855 .999203 .494528
2 1 .999419 .637058 .496078
3 1 .835921 .028507 .532831
4 1 .212172 .000965 .542040
5 1 .000571 .606578 .480042
6 1 .501254 .462582 .999008
7 1 .506999 .439147 .000942
ITEM: TIMESTEP
50
ITEM: NUMBER OF ATOMS
7
ITEM: BOX BOUNDS ss ss ss
-3.1243 3.1502
-2.5057 3.5750
-2.1446 1.7371
ITEM: ATOMS id type xs ys zs
1 1 .495776 .998711 .495360
2 1 .996379 .638426 .495909
3 1 .833974 .031570 .531617
4 1 .214831 .006517 .538795
5 1 .005464 .606506 .480630
6 1 .498512 .462169 .990439
7 1 .505769 .439430 .004793
ITEM: TIMESTEP
100
ITEM: NUMBER OF ATOMS
7
ITEM: BOX BOUNDS ss ss ss
-3.1337 3.1572
-2.5132 3.5856
-2.1509 1.7451
ITEM: ATOMS id type xs ys zs
1 1 .497144 .990779 .493392
2 1 .995564 .636348 .496572
3 1 .832353 .033825 .532628
4 1 .216317 .004697 .541057
5 1 .005197 .605279 .474248
6 1 .503997 .462843 .994303
7 1 .504175 .441160 .007318
ITEM: TIMESTEP
150
ITEM: NUMBER OF ATOMS
7
ITEM: BOX BOUNDS ss ss ss
-3.1351 3.1622
-2.5168 3.5899
-2.1475 1.7584
ITEM: ATOMS id type xs ys zs
1 1 .497222 .992962 .489499
2 1 .992743 .633118 .490061
3 1 .831967 .035495 .531564
4 1 .214833 .008695 .537396
5 1 .010137 .605762 .476854
6 1 .501258 .461368 .991661
7 1 .505161 .438800 .010547
ITEM: TIMESTEP
200
ITEM: NUMBER OF ATOMS
7
ITEM: BOX BOUNDS ss ss ss
-3.1274 3.1602
-2.5180 3.5810
-2.1538 1.7644
ITEM: ATOMS id type xs ys zs
1 1 .497223 .991657 .487508
2 1 .998178 .634088 .494382
3 1 .829282 .033138 .526165
4 1 .216051 .007559 .533855
5 1 .006561 .606544 .471075
6 1 .505006 .467142 .991684
7 1 .504170 .443033 .006703
ITEM: TIMESTEP
250
ITEM: NUMBER OF ATOMS
7
ITEM: BOX BOUNDS ss ss ss
-3.1313 3.1638
-2.5190 3.5801
-2.1533 1.7786
ITEM: ATOMS id type xs ys zs
1 1 .490330 .994247 .488528
2 1 .991902 .636787 .485382
3 1 .829860 .034765 .524495
4 1 .218240 .007036 .532249
5 1 .007616 .605341 .475440
6 1 .499808 .465205 .990284
7 1 .504263 .443260 .013350
ITEM: TIMESTEP
300
ITEM: NUMBER OF ATOMS
7
ITEM: BOX BOUNDS ss ss ss
-3.1364 3.1576
-2.5188 3.5791
-2.1596 1.7767
ITEM: ATOMS id type xs ys zs
1 1 .486719 .992810 .488299
2 1 .990989 .639318 .490162
3 1 .829643 .036787 .524697
4 1 .215885 .007779 .532714
5 1 .006892 .607563 .481222
6 1 .500687 .466532 .990231
7 1 .506854 .443368 .009987
ITEM: TIMESTEP
350
ITEM: NUMBER OF ATOMS
7
ITEM: BOX BOUNDS ss ss ss
-3.1273 3.1610
-2.5116 3.5767
-2.1588 1.7885
ITEM: ATOMS id type xs ys zs
1 1 .484579 .994226 .485508
2 1 .989713 .639863 .490704
3 1 .828896 .034029 .523183
4 1 .214072 .005613 .527432
5 1 .005121 .606802 .479166
6 1 .499707 .465828 .985263
7 1 .505558 .442228 .008840
ITEM: TIMESTEP
400
ITEM: NUMBER OF ATOMS
7
ITEM: BOX BOUNDS ss ss ss
-3.1389 3.1644
-2.5077 3.5817
-2.1652 1.7917
ITEM: ATOMS id type xs ys zs
1 1 .491416 .992475 .490401
2 1 .990091 .637843 .490403
3 1 .822341 .030642 .518443
4 1 .211935 .009291 .529148
5 1 .007357 .607649 .473734
6 1 .504976 .463489 .984048
7 1 .505971 .443882 .012167
ITEM: TIMESTEP
1
ITEM: NUMBER OF ATOMS
7
ITEM: BOX BOUNDS ss ss ss
-3.1326 3.1626
-2.5034 3.5741
-2.1698 1.7934
ITEM: ATOMS id type xs ys zs
1 1 .496783 .996111 .490880
2 1 .993115 .636800 .492232
3 1 .831762 .032247 .527641
4 1 .214706 .004928 .536367
5 1 .005831 .605972 .476825
6 1 .500547 .463519 .978580
7 1 .506412 .439737 .012539
ITEM: TIMESTEP
50
ITEM: NUMBER OF ATOMS
7
ITEM: BOX BOUNDS ss ss ss
-3.1326 3.1626
-2.5034 3.5826
-2.1698 1.7934
ITEM: ATOMS id type xs ys zs
1 1 .496901 .995521 .490740
2 1 .993378 .635507 .491054
3 1 .832673 .029998 .528188
4 1 .213318 .004049 .535646
5 1 .008132 .605411 .479451
6 1 .501607 .461883 .977600
7 1 .505524 .438398 .013185
ITEM: TIMESTEP
100
ITEM: NUMBER OF ATOMS
7
ITEM: BOX BOUNDS ss ss ss
-3.1326 3.1626
-2.5122 3.5827
-2.1698 1.7934
ITEM: ATOMS id type xs ys zs
1 1 .498285 .995382 .490197
2 1 .994329 .637829 .492245
3 1 .832855 .031723 .526984
4 1 .210163 .004879 .535373
5 1 .006334 .606188 .479224
6 1 .500672 .463031 .974885
7 1 .505246 .439514 .010681
ITEM: TIMESTEP
150
ITEM: NUMBER OF ATOMS
7
ITEM: BOX BOUNDS ss ss ss
-3.1326 3.1626
-2.5241 3.5982
-2.1698 1.7934
ITEM: ATOMS id type xs ys zs
1 1 .498032 .995071 .491146
2 1 .994542 .633920 .490838
3 1 .834557 .038976 .526973
4 1 .215557 .010917 .531791
5 1 .006929 .605094 .471489
6 1 .497721 .464983 .982490
7 1 .507955 .440247 .018156
ITEM: TIMESTEP
200
ITEM: NUMBER OF ATOMS
7
ITEM: BOX BOUNDS ss ss ss
-3.1308 3.1625
-2.5234 3.5872
-2.1698 1.7934
ITEM: ATOMS id type xs ys zs
1 1 .495247 .995582 .491060
2 1 .993142 .636192 .494823
3 1 .833007 .038848 .528406
4 1 .213951 .011049 .538887
5 1 .011130 .606169 .474850
6 1 .502219 .465428 .984453
7 1 .507042 .441131 .018144
ITEM: TIMESTEP
250
ITEM: NUMBER OF ATOMS
7
ITEM: BOX BOUNDS ss ss ss
-3.1336 3.1648
-2.5146 3.5855
-2.1698 1.7934
ITEM: ATOMS id type xs ys zs
1 1 .494616 .993432 .491148
2 1 .991031 .633671 .488396
3 1 .828242 .034519 .527873
4 1 .215838 .003845 .533612
5 1 .007951 .607589 .469584
6 1 .499670 .464844 .982730
7 1 .505770 .442792 .010979
ITEM: TIMESTEP
300
ITEM: NUMBER OF ATOMS
7
ITEM: BOX BOUNDS ss ss ss
-3.1290 3.1656
-2.5191 3.5807
-2.1698 1.7934
ITEM: ATOMS id type xs ys zs
1 1 .490268 .991779 .492994
2 1 .995642 .640197 .485196
3 1 .829103 .035652 .530090
4 1 .214360 .015283 .535484
5 1 .008581 .606130 .474900
6 1 .504056 .465211 .987112
7 1 .506674 .443369 .014663
ITEM: TIMESTEP
350
ITEM: NUMBER OF ATOMS
7
ITEM: BOX BOUNDS ss ss ss
-3.1298 3.1681
-2.5164 3.5782
-2.1698 1.7924
ITEM: ATOMS id type xs ys zs
1 1 .489880 .992892 .492396
2 1 .998448 .640517 .489498
3 1 .830014 .033751 .532113
4 1 .212468 .014588 .535605
5 1 .011581 .606983 .475886
6 1 .504709 .466170 .987291
7 1 .507629 .443627 .015202
ITEM: TIMESTEP
400
ITEM: NUMBER OF ATOMS
7
ITEM: BOX BOUNDS ss ss ss
-3.1302 3.1651
-2.5122 3.5814
-2.1698 1.7905
ITEM: ATOMS id type xs ys zs
1 1 .494530 .990258 .493749
2 1 .995944 .637489 .487020
3 1 .828375 .038302 .526827
4 1 .213915 .010034 .529066
5 1 .008738 .606978 .479783
6 1 .502089 .464544 .990815
7 1 .503010 .439066 .016338
ITEM: TIMESTEP
1
ITEM: NUMBER OF ATOMS
7
ITEM: BOX BOUNDS ss ss ss
-3.1166 3.1591
-2.5061 3.5807
-2.1564 1.7846
ITEM: ATOMS id type xs ys zs
1 1 .496098 .994802 .490554
2 1 .993508 .636152 .491623
3 1 .831455 .032719 .527606
4 1 .213274 .005070 .536360
5 1 .003343 .605787 .475843
6 1 .499453 .463365 .980938
7 1 .505209 .439625 .010041
ITEM: TIMESTEP
50
ITEM: NUMBER OF ATOMS
7
ITEM: BOX BOUNDS ss ss ss
-3.1244 3.1591
-2.5061 3.5820
-2.1564 1.7846
ITEM: ATOMS id type xs ys zs
1 1 .495442 .995718 .493145
2 1 .992728 .637302 .492069
3 1 .831425 .033379 .527079
4 1 .212122 .004319 .536742
5 1 .004450 .605818 .475996
6 1 .499452 .462896 .980555
7 1 .505890 .438555 .009767
ITEM: TIMESTEP
100
ITEM: NUMBER OF ATOMS
7
ITEM: BOX BOUNDS ss ss ss
-3.1323 3.1593
-2.5147 3.5883
-2.1564 1.7846
ITEM: ATOMS id type xs ys zs
1 1 .498154 .992555 .496891
2 1 .995021 .636909 .484503
3 1 .830763 .036963 .528312
4 1 .217313 .007030 .538976
5 1 .006394 .606455 .471390
6 1 .501507 .466535 .980767
7 1 .505421 .439303 .007580
ITEM: TIMESTEP
150
ITEM: NUMBER OF ATOMS
7
ITEM: BOX BOUNDS ss ss ss
-3.1319 3.1580
-2.5167 3.5878
-2.1550 1.7846
ITEM: ATOMS id type xs ys zs
1 1 .495847 .993612 .484946
2 1 .991796 .635626 .489658
3 1 .833517 .034999 .532257
4 1 .215657 .006526 .532761
5 1 .006199 .602429 .474803
6 1 .502786 .464089 .987074
7 1 .506786 .439315 .014553
ITEM: TIMESTEP
200
ITEM: NUMBER OF ATOMS
7
ITEM: BOX BOUNDS ss ss ss
-3.1323 3.1654
-2.5166 3.5843
-2.1542 1.7846
ITEM: ATOMS id type xs ys zs
1 1 .498928 .993611 .488615
2 1 .992561 .633083 .488119
3 1 .831414 .033656 .525077
4 1 .217797 .007380 .536652
5 1 .007857 .607056 .475337
6 1 .502982 .468535 .984135
7 1 .503086 .442167 .010265
ITEM: TIMESTEP
250
ITEM: NUMBER OF ATOMS
7
ITEM: BOX BOUNDS ss ss ss
-3.1316 3.1735
-2.5155 3.5864
-2.1638 1.7846
ITEM: ATOMS id type xs ys zs
1 1 .494759 .993365 .488180
2 1 .989415 .636823 .497836
3 1 .826426 .034052 .527984
4 1 .215862 .009849 .534371
5 1 .006616 .604366 .473094
6 1 .499847 .463970 .988172
7 1 .506204 .444352 .015630
ITEM: TIMESTEP
300
ITEM: NUMBER OF ATOMS
7
ITEM: BOX BOUNDS ss ss ss
-3.1375 3.1773
-2.5250 3.5831
-2.1579 1.7846
ITEM: ATOMS id type xs ys zs
1 1 .495605 .995844 .486029
2 1 .989657 .638091 .498716
3 1 .827647 .035717 .528757
4 1 .215595 .010824 .534254
5 1 .009541 .605431 .471209
6 1 .501415 .466059 .988773
7 1 .504421 .446964 .015136
ITEM: TIMESTEP
350
ITEM: NUMBER OF ATOMS
7
ITEM: BOX BOUNDS ss ss ss
-3.1329 3.1723
-2.5170 3.5817
-2.1606 1.7846
ITEM: ATOMS id type xs ys zs
1 1 .494473 .991592 .490177
2 1 .995368 .637759 .487652
3 1 .825733 .033562 .523376
4 1 .217377 .007552 .528240
5 1 .008841 .601056 .467247
6 1 .500292 .466552 .982935
7 1 .507767 .445292 .006210
ITEM: TIMESTEP
400
ITEM: NUMBER OF ATOMS
7
ITEM: BOX BOUNDS ss ss ss
-3.1364 3.1697
-2.5166 3.5817
-2.1636 1.7880
ITEM: ATOMS id type xs ys zs
1 1 .495921 .992647 .489229
2 1 .995582 .637228 .486329
3 1 .827515 .033887 .521639
4 1 .216250 .006205 .527948
5 1 .009140 .602187 .464042
6 1 .499677 .465330 .982420
7 1 .508321 .446263 .006733
ITEM: TIMESTEP
1
ITEM: NUMBER OF ATOMS
7
ITEM: BOX BOUNDS ss ss ss
-3.1292 3.1574
-2.5195 3.5673
-2.1609 1.7846
ITEM: ATOMS id type xs ys zs
1 1 .497242 .997311 .490924
2 1 .993783 .638300 .492335
3 1 .831774 .034394 .527779
4 1 .214385 .007251 .536948
5 1 .004997 .607921 .476719
6 1 .500692 .465342 .981110
7 1 .506761 .441782 .010595
ITEM: TIMESTEP
50
ITEM: NUMBER OF ATOMS
7
ITEM: BOX BOUNDS ss ss ss
-3.1292 3.1574
-2.5195 3.5790
-2.1609 1.7846
ITEM: ATOMS id type xs ys zs
1 1 .499483 .996724 .493387
2 1 .993239 .637692 .489737
3 1 .832183 .032838 .529168
4 1 .215419 .008677 .539046
5 1 .006353 .604697 .474296
6 1 .500205 .465029 .979394
7 1 .505146 .440147 .011142
ITEM: TIMESTEP
100
ITEM: NUMBER OF ATOMS
7
ITEM: BOX BOUNDS ss ss ss
-3.1328 3.1574
-2.5196 3.5964
-2.1609 1.7846
ITEM: ATOMS id type xs ys zs
1 1 .498398 .990656 .485871
2 1 .996703 .636410 .491028
3 1 .834445 .035636 .527935
4 1 .214502 .007289 .536114
5 1 .006387 .604399 .472430
6 1 .501017 .464204 .979301
7 1 .506382 .440334 .014278
ITEM: TIMESTEP
150
ITEM: NUMBER OF ATOMS
7
ITEM: BOX BOUNDS ss ss ss
-3.1319 3.1619
-2.5209 3.5890
-2.1528 1.7806
ITEM: ATOMS id type xs ys zs
1 1 .493862 .992145 .488146
2 1 .994130 .634688 .490781
3 1 .828548 .034308 .522160
4 1 .215272 .006236 .531512
5 1 .005621 .604883 .475067
6 1 .500346 .465002 .982466
7 1 .505666 .438815 .005299
ITEM: TIMESTEP
200
ITEM: NUMBER OF ATOMS
7
ITEM: BOX BOUNDS ss ss ss
-3.1309 3.1621
-2.5291 3.5892
-2.1676 1.7804
ITEM: ATOMS id type xs ys zs
1 1 .494290 .993371 .488583
2 1 .993434 .635955 .495042
3 1 .828490 .035651 .522719
4 1 .218197 .007144 .536465
5 1 .006580 .607629 .478407
6 1 .500532 .466091 .980439
7 1 .505471 .438493 .006988
ITEM: TIMESTEP
250
ITEM: NUMBER OF ATOMS
7
ITEM: BOX BOUNDS ss ss ss
-3.1335 3.1688
-2.5291 3.5781
-2.1592 1.7804
ITEM: ATOMS id type xs ys zs
1 1 .494128 .994534 .487794
2 1 .990923 .637420 .493233
3 1 .829959 .036922 .521229
4 1 .219502 .007233 .534386
5 1 .007129 .609901 .478336
6 1 .499972 .465996 .979186
7 1 .505020 .439208 .005978
ITEM: TIMESTEP
300
ITEM: NUMBER OF ATOMS
7
ITEM: BOX BOUNDS ss ss ss
-3.1303 3.1696
-2.5450 3.5778
-2.1608 1.7804
ITEM: ATOMS id type xs ys zs
1 1 .494397 .990478 .483851
2 1 .994295 .637008 .493768
3 1 .829349 .039193 .521003
4 1 .215231 .013017 .540904
5 1 .009105 .602577 .476084
6 1 .501225 .467836 .992050
7 1 .504441 .443584 .010499
ITEM: TIMESTEP
350
ITEM: NUMBER OF ATOMS
7
ITEM: BOX BOUNDS ss ss ss
-3.1329 3.1734
-2.5331 3.5790
-2.1625 1.7804
ITEM: ATOMS id type xs ys zs
1 1 .493265 .992161 .486417
2 1 .995539 .636584 .492664
3 1 .828870 .037345 .519741
4 1 .215512 .011669 .538435
5 1 .009659 .602520 .477933
6 1 .500121 .466849 .995191
7 1 .503026 .441845 .009299
ITEM: TIMESTEP
400
ITEM: NUMBER OF ATOMS
7
ITEM: BOX BOUNDS ss ss ss
-3.1305 3.1746
-2.5290 3.5736
-2.1517 1.7808
ITEM: ATOMS id type xs ys zs
1 1 .495151 .989018 .478628
2 1 .991176 .634348 .486642
3 1 .825394 .039445 .527798
4 1 .216307 .011290 .537274
5 1 .004889 .609215 .477649
6 1 .498921 .465516 .988662
7 1 .500409 .442217 .007810
ITEM: TIMESTEP
1
ITEM: NUMBER OF ATOMS
7
ITEM: BOX BOUNDS ss ss ss
-3.1215 3.1740
-2.5247 3.5670
-2.1540 1.7905
ITEM: ATOMS id type xs ys zs
1 1 .495527 .997412 .488891
2 1 .991303 .638636 .490552
3 1 .829663 .035708 .526434
4 1 .213007 .008084 .535168
5 1 .003515 .608010 .475137
6 1 .499021 .465967 .979365
7 1 .504937 .442359 .008982
ITEM: TIMESTEP
50
ITEM: NUMBER OF ATOMS
7
ITEM: BOX BOUNDS ss ss ss
-3.1300 3.1740
-2.5247 3.5825
-2.1540 1.7905
ITEM: ATOMS id type xs ys zs
1 1 .494171 .995639 .489262
2 1 .990572 .637898 .490883
3 1 .829171 .036164 .523378
4 1 .215478 .007778 .534173
5 1 .005689 .605493 .475012
6 1 .500774 .465359 .978245
7 1 .505332 .440318 .008916
ITEM: TIMESTEP
100
ITEM: NUMBER OF ATOMS
7
ITEM: BOX BOUNDS ss ss ss
-3.1317 3.1740
-2.5247 3.5939
-2.1540 1.7905
ITEM: ATOMS id type xs ys zs
1 1 .497314 .992907 .492119
2 1 .990380 .634668 .491318
3 1 .834688 .035141 .523836
4 1 .214459 .009384 .535829
5 1 .006647 .606380 .471069
6 1 .500131 .461528 .982978
7 1 .504180 .440988 .011360
ITEM: TIMESTEP
150
ITEM: NUMBER OF ATOMS
7
ITEM: BOX BOUNDS ss ss ss
-3.1337 3.1740
-2.5307 3.5929
-2.1540 1.7905
ITEM: ATOMS id type xs ys zs
1 1 .500151 .993187 .489209
2 1 .989868 .634388 .489938
3 1 .837423 .035030 .521970
4 1 .214742 .009149 .536277
5 1 .006753 .607698 .468622
6 1 .501110 .463622 .981230
7 1 .504296 .443386 .013525
ITEM: TIMESTEP
200
ITEM: NUMBER OF ATOMS
7
ITEM: BOX BOUNDS ss ss ss
-3.1320 3.1740
-2.5247 3.5931
-2.1540 1.7905
ITEM: ATOMS id type xs ys zs
1 1 .490341 .987563 .492890
2 1 .994118 .638393 .492919
3 1 .828114 .031960 .525135
4 1 .217609 .008364 .535365
5 1 .004108 .604637 .478593
6 1 .500329 .465019 .982291
7 1 .502040 .439562 .011032
ITEM: TIMESTEP
250
ITEM: NUMBER OF ATOMS
7
ITEM: BOX BOUNDS ss ss ss
-3.1370 3.1740
-2.5279 3.5929
-2.1541 1.7905
ITEM: ATOMS id type xs ys zs
1 1 .494694 .994894 .492320
2 1 .990562 .637030 .493793
3 1 .825984 .034056 .523482
4 1 .215830 .010723 .538172
5 1 .009188 .610713 .466226
6 1 .501875 .465120 .981015
7 1 .505216 .441463 .015077
ITEM: TIMESTEP
300
ITEM: NUMBER OF ATOMS
7
ITEM: BOX BOUNDS ss ss ss
-3.1384 3.1684
-2.5281 3.5909
-2.1516 1.7905
ITEM: ATOMS id type xs ys zs
1 1 .494163 .986247 .484959
2 1 .995232 .636870 .489230
3 1 .828731 .037710 .529910
4 1 .221370 .005624 .540935
5 1 .006606 .601510 .476545
6 1 .501852 .463855 .987966
7 1 .505297 .440201 .011463
ITEM: TIMESTEP
350
ITEM: NUMBER OF ATOMS
7
ITEM: BOX BOUNDS ss ss ss
-3.1353 3.1680
-2.5300 3.5747
-2.1578 1.7848
ITEM: ATOMS id type xs ys zs
1 1 .492982 .989615 .486793
2 1 .996492 .641020 .489606
3 1 .828426 .037925 .533307
4 1 .221424 .005618 .543154
5 1 .005207 .603004 .475493
6 1 .500620 .466456 .992720
7 1 .504565 .440016 .014065
ITEM: TIMESTEP
400
ITEM: NUMBER OF ATOMS
7
ITEM: BOX BOUNDS ss ss ss
-3.1402 3.1807
-2.5361 3.5748
-2.1599 1.7865
ITEM: ATOMS id type xs ys zs
1 1 .491399 .991323 .488025
2 1 .995187 .641839 .490296
3 1 .826393 .041242 .533382
4 1 .222269 .007418 .541914
5 1 .007140 .602840 .478395
6 1 .500072 .468358 .991373
7 1 .503085 .441356 .016247
ITEM: TIMESTEP
1
ITEM: NUMBER OF ATOMS
7
ITEM: BOX BOUNDS ss ss ss
-3.1270 3.1766
-2.5397 3.5620
-2.1604 1.7822
ITEM: ATOMS id type xs ys zs
1 1 .495400 .997982 .491163
2 1 .990905 .640077 .492145
3 1 .829705 .038013 .527909
4 1 .213618 .010215 .536521
5 1 .004389 .609516 .476637
6 1 .498966 .467747 .981813
7 1 .505026 .443934 .010584
ITEM: TIMESTEP
50
ITEM: NUMBER OF ATOMS
7
ITEM: BOX BOUNDS ss ss ss
-3.1305 3.1766
-2.5355 3.5837
-2.1604 1.7822
ITEM: ATOMS id type xs ys zs
1 1 .496292 .994118 .491580
2 1 .992872 .636403 .491664
3 1 .832358 .035640 .526935
4 1 .215128 .008412 .536573
5 1 .004229 .606417 .477512
6 1 .499426 .464910 .979409
7 1 .504322 .440028 .009887
ITEM: TIMESTEP
100
ITEM: NUMBER OF ATOMS
7
ITEM: BOX BOUNDS ss ss ss
-3.1333 3.1766
-2.5244 3.5900
-2.1604 1.7822
ITEM: ATOMS id type xs ys zs
1 1 .497439 .994507 .496379
2 1 .990522 .635727 .489447
3 1 .829982 .035417 .528388
4 1 .215227 .008230 .534616
5 1 .005191 .605021 .473913
6 1 .500100 .464956 .978973
7 1 .504608 .440431 .011208
ITEM: TIMESTEP
150
ITEM: NUMBER OF ATOMS
7
ITEM: BOX BOUNDS ss ss ss
-3.1343 3.1766
-2.5316 3.5959
-2.1604 1.7797
ITEM: ATOMS id type xs ys zs
1 1 .494678 .988608 .494685
2 1 .990276 .633645 .494417
3 1 .829459 .038626 .530487
4 1 .212507 .007028 .538894
5 1 .006106 .607382 .476634
6 1 .496194 .463971 .985291
7 1 .504714 .437335 .016439
ITEM: TIMESTEP
200
ITEM: NUMBER OF ATOMS
7
ITEM: BOX BOUNDS ss ss ss
-3.1362 3.1766
-2.5261 3.5974
-2.1604 1.7797
ITEM: ATOMS id type xs ys zs
1 1 .497396 .994221 .497261
2 1 .991346 .635186 .487439
3 1 .828760 .038845 .534405
4 1 .215266 .006082 .538318
5 1 .007634 .603750 .468329
6 1 .499287 .461569 .986434
7 1 .506181 .438474 .010097
ITEM: TIMESTEP
250
ITEM: NUMBER OF ATOMS
7
ITEM: BOX BOUNDS ss ss ss
-3.1352 3.1630
-2.5482 3.5957
-2.1579 1.7797
ITEM: ATOMS id type xs ys zs
1 1 .494462 .987837 .491538
2 1 .991702 .636584 .498034
3 1 .834429 .041274 .533162
4 1 .216796 .013519 .547107
5 1 .002798 .611867 .475041
6 1 .500408 .466897 .991305
7 1 .503208 .439615 .014663
ITEM: TIMESTEP
300
ITEM: NUMBER OF ATOMS
7
ITEM: BOX BOUNDS ss ss ss
-3.1329 3.1679
-2.5421 3.6047
-2.1616 1.7794
ITEM: ATOMS id type xs ys zs
1 1 .490222 .991306 .486969
2 1 .987973 .635251 .496905
3 1 .827432 .037585 .530028
4 1 .218604 .006524 .535261
5 1 .011058 .610136 .474335
6 1 .497496 .464053 .987786
7 1 .506080 .442230 .014064
ITEM: TIMESTEP
350
ITEM: NUMBER OF ATOMS
7
ITEM: BOX BOUNDS ss ss ss
-3.1373 3.1662
-2.5463 3.5998
-2.1652 1.7761
ITEM: ATOMS id type xs ys zs
1 1 .489939 .991310 .489415
2 1 .988797 .636488 .497208
3 1 .828152 .038999 .530406
4 1 .218447 .006914 .537243
5 1 .013058 .611465 .474328
6 1 .496095 .465491 .987237
7 1 .507884 .442914 .018143
ITEM: TIMESTEP
400
ITEM: NUMBER OF ATOMS
7
ITEM: BOX BOUNDS ss ss ss
-3.1426 3.1644
-2.5438 3.5887
-2.1583 1.7871
ITEM: ATOMS id type xs ys zs
1 1 .502349 .988506 .484816
2 1 .994311 .637320 .486740
3 1 .829613 .044766 .529423
4 1 .215345 .014106 .533347
5 1 .007489 .607605 .474685
6 1 .498343 .468433 .983213
7 1 .504086 .443292 .010530
ITEM: TIMESTEP
1
ITEM: NUMBER OF ATOMS
7
ITEM: BOX BOUNDS ss ss ss
-3.1318 3.1597
-2.5453 3.5918
-2.1562 1.7749
ITEM: ATOMS id type xs ys zs
1 1 .497465 .993358 .491109
2 1 .993870 .637249 .492561
3 1 .832163 .038912 .528493
4 1 .214802 .011399 .537372
5 1 .005376 .607075 .477365
6 1 .500578 .465400 .983211
7 1 .506598 .442204 .009367
ITEM: TIMESTEP
50
ITEM: NUMBER OF ATOMS
7
ITEM: BOX BOUNDS ss ss ss
-3.1318 3.1597
-2.5453 3.5918
-2.1562 1.7749
ITEM: ATOMS id type xs ys zs
1 1 .495195 .994080 .490891
2 1 .995348 .637533 .492276
3 1 .833856 .040136 .527712
4 1 .214227 .012715 .539228
5 1 .005921 .604606 .474004
6 1 .501021 .463901 .982412
7 1 .505419 .440169 .011100
ITEM: TIMESTEP
100
ITEM: NUMBER OF ATOMS
7
ITEM: BOX BOUNDS ss ss ss
-3.1403 3.1597
-2.5453 3.5918
-2.1562 1.7749
ITEM: ATOMS id type xs ys zs
1 1 .496827 .996669 .492593
2 1 .997162 .639345 .493741
3 1 .831483 .040835 .527277
4 1 .214399 .012029 .541265
5 1 .008045 .604874 .472034
6 1 .502059 .464147 .981863
7 1 .506850 .439194 .011617
ITEM: TIMESTEP
150
ITEM: NUMBER OF ATOMS
7
ITEM: BOX BOUNDS ss ss ss
-3.1382 3.1597
-2.5453 3.5918
-2.1650 1.7749
ITEM: ATOMS id type xs ys zs
1 1 .502925 .993018 .493494
2 1 .994892 .636900 .493657
3 1 .834327 .039221 .531176
4 1 .214969 .008785 .534937
5 1 .007609 .605237 .475029
6 1 .499346 .465051 .982849
7 1 .502044 .442226 .016043
ITEM: TIMESTEP
200
ITEM: NUMBER OF ATOMS
7
ITEM: BOX BOUNDS ss ss ss
-3.1379 3.1665
-2.5453 3.5918
-2.1621 1.7749
ITEM: ATOMS id type xs ys zs
1 1 .496724 .996207 .493598
2 1 .990166 .637851 .487627
3 1 .832321 .038881 .531510
4 1 .215587 .010004 .539920
5 1 .006591 .610441 .469523
6 1 .496413 .468056 .990545
7 1 .504645 .443099 .014289
ITEM: TIMESTEP
250
ITEM: NUMBER OF ATOMS
7
ITEM: BOX BOUNDS ss ss ss
-3.1295 3.1676
-2.5453 3.5844
-2.1716 1.7749
ITEM: ATOMS id type xs ys zs
1 1 .495339 .992215 .490311
2 1 .993457 .640381 .483889
3 1 .830999 .043635 .537053
4 1 .219380 .011064 .537133
5 1 .005634 .611374 .472251
6 1 .496802 .468342 .986983
7 1 .505145 .447430 .015623
ITEM: TIMESTEP
300
ITEM: NUMBER OF ATOMS
7
ITEM: BOX BOUNDS ss ss ss
-3.1258 3.1803
-2.5453 3.5768
-2.1547 1.7763
ITEM: ATOMS id type xs ys zs
1 1 .494880 .991775 .489653
2 1 .991687 .640539 .483378
3 1 .831785 .042346 .534670
4 1 .218331 .011318 .535889
5 1 .003764 .613111 .473791
6 1 .494236 .468728 .985256
7 1 .504123 .448499 .011494
ITEM: TIMESTEP
350
ITEM: NUMBER OF ATOMS
7
ITEM: BOX BOUNDS ss ss ss
-3.1334 3.1850
-2.5453 3.5846
-2.1599 1.7808
ITEM: ATOMS id type xs ys zs
1 1 .494350 .991344 .494905
2 1 .992316 .641198 .482918
3 1 .826242 .042002 .530444
4 1 .216505 .014935 .530603
5 1 .007014 .615698 .461765
6 1 .501091 .467624 .990331
7 1 .504060 .448256 .018365
ITEM: TIMESTEP
400
ITEM: NUMBER OF ATOMS
7
ITEM: BOX BOUNDS ss ss ss
-3.1444 3.1770
-2.5358 3.5908
-2.1571 1.7820
ITEM: ATOMS id type xs ys zs
1 1 .492679 .988468 .484441
2 1 .988527 .639172 .488448
3 1 .829839 .042703 .524606
4 1 .221466 .006012 .531826
5 1 .007653 .609921 .473562
6 1 .502313 .462941 .992506
7 1 .503485 .443839 .015736
ITEM: TIMESTEP
1
ITEM: NUMBER OF ATOMS
7
ITEM: BOX BOUNDS ss ss ss
-3.1172 3.1680
-2.5228 3.5813
-2.1538 1.7722
ITEM: ATOMS id type xs ys zs
1 1 .495731 .994583 .491783
2 1 .992216 .636933 .492776
3 1 .830386 .035152 .528810
4 1 .212656 .007943 .537748
5 1 .003170 .606472 .477765
6 1 .498757 .464744 .983655
7 1 .504500 .441252 .008890
ITEM: TIMESTEP
50
ITEM: NUMBER OF ATOMS
7
ITEM: BOX BOUNDS ss ss ss
-3.1286 3.1680
-2.5228 3.5800
-2.1538 1.7722
ITEM: ATOMS id type xs ys zs
1 1 .497481 .995571 .493868
2 1 .989889 .635740 .492857
3 1 .832652 .035815 .532205
4 1 .212369 .010121 .538107
5 1 .003703 .604838 .477196
6 1 .498831 .463799 .982272
7 1 .505834 .439673 .008179
ITEM: TIMESTEP
100
ITEM: NUMBER OF ATOMS
7
ITEM: BOX BOUNDS ss ss ss
-3.1379 3.1680
-2.5283 3.5893
-2.1564 1.7722
ITEM: ATOMS id type xs ys zs
1 1 .494661 .992626 .489268
2 1 .992409 .637330 .495062
3 1 .831847 .037007 .529544
4 1 .215279 .007927 .541391
5 1 .004132 .606957 .472084
6 1 .499361 .462402 .978502
7 1 .506975 .443103 .005946
ITEM: TIMESTEP
150
ITEM: NUMBER OF ATOMS
7
ITEM: BOX BOUNDS ss ss ss
-3.1376 3.1615
-2.5333 3.5955
-2.1574 1.7722
ITEM: ATOMS id type xs ys zs
1 1 .494344 .991818 .491921
2 1 .994047 .632103 .491025
3 1 .832677 .030166 .529838
4 1 .215247 .011193 .542092
5 1 .007703 .608604 .473926
6 1 .500746 .463295 .984471
7 1 .504219 .442549 .010847
ITEM: TIMESTEP
200
ITEM: NUMBER OF ATOMS
7
ITEM: BOX BOUNDS ss ss ss
-3.1338 3.1813
-2.5336 3.6018
-2.1528 1.7722
ITEM: ATOMS id type xs ys zs
1 1 .496248 .991279 .491750
2 1 .991369 .635238 .493003
3 1 .829056 .036434 .525591
4 1 .216932 .005047 .536026
5 1 .003313 .604195 .474911
6 1 .497973 .462349 .986509
7 1 .504119 .444003 .015880
ITEM: TIMESTEP
250
ITEM: NUMBER OF ATOMS
7
ITEM: BOX BOUNDS ss ss ss
-3.1387 3.1686
-2.5399 3.5990
-2.1598 1.7722
ITEM: ATOMS id type xs ys zs
1 1 .498873 .991341 .497867
2 1 .994161 .636118 .495697
3 1 .830315 .040304 .523359
4 1 .216507 .004662 .537718
5 1 .002508 .604095 .472034
6 1 .499359 .463590 .989418
7 1 .506410 .445520 .018203
ITEM: TIMESTEP
300
ITEM: NUMBER OF ATOMS
7
ITEM: BOX BOUNDS ss ss ss
-3.1425 3.1747
-2.5375 3.6168
-2.1512 1.7727
ITEM: ATOMS id type xs ys zs
1 1 .498685 .984932 .490600
2 1 .995714 .635674 .489043
3 1 .829164 .037804 .532971
4 1 .216393 .008776 .534765
5 1 .011454 .609307 .470506
6 1 .498304 .460067 .986446
7 1 .507492 .442904 .015277
ITEM: TIMESTEP
350
ITEM: NUMBER OF ATOMS
7
ITEM: BOX BOUNDS ss ss ss
-3.1271 3.1735
-2.5337 3.5912
-2.1483 1.7667
ITEM: ATOMS id type xs ys zs
1 1 .491512 .989383 .488839
2 1 .992741 .634376 .492342
3 1 .825105 .032255 .526908
4 1 .212576 .011821 .533524
5 1 .007609 .612078 .484570
6 1 .501737 .463287 .990879
7 1 .503876 .442058 .010791
ITEM: TIMESTEP
400
ITEM: NUMBER OF ATOMS
7
ITEM: BOX BOUNDS ss ss ss
-3.1304 3.1646
-2.5114 3.5889
-2.1557 1.7686
ITEM: ATOMS id type xs ys zs
1 1 .494353 .994891 .486181
2 1 .989705 .633598 .495494
3 1 .824869 .029608 .527747
4 1 .211130 .007627 .531343
5 1 .009714 .609040 .485850
6 1 .503203 .463311 .990078
7 1 .503463 .437172 .012367
ITEM: TIMESTEP
1
ITEM: NUMBER OF ATOMS
7
ITEM: BOX BOUNDS ss ss ss
-3.1170 3.1543
-2.4992 3.5897
-2.1509 1.7675
ITEM: ATOMS id type xs ys zs
1 1 .496580 .993212 .491459
2 1 .994331 .634595 .492824
3 1 .831755 .031353 .528744
4 1 .213010 .003836 .537609
5 1 .003348 .604064 .477420
6 1 .499834 .461760 .985378
7 1 .505753 .438297 .008733
ITEM: TIMESTEP
50
ITEM: NUMBER OF ATOMS
7
ITEM: BOX BOUNDS ss ss ss
-3.1314 3.1543
-2.5074 3.5897
-2.1509 1.7675
ITEM: ATOMS id type xs ys zs
1 1 .497919 .993287 .496903
2 1 .995646 .636393 .490530
3 1 .832594 .032134 .527456
4 1 .216746 .004164 .540710
5 1 .005045 .604452 .478378
6 1 .502090 .462156 .981748
7 1 .507553 .440027 .008984
ITEM: TIMESTEP
100
ITEM: NUMBER OF ATOMS
7
ITEM: BOX BOUNDS ss ss ss
-3.1395 3.1600
-2.5178 3.5914
-2.1543 1.7675
ITEM: ATOMS id type xs ys zs
1 1 .499053 .995216 .498221
2 1 .995307 .636351 .496940
3 1 .829745 .035715 .530960
4 1 .214984 .006642 .536793
5 1 .008141 .605168 .477610
6 1 .501547 .465919 .986897
7 1 .508872 .439468 .015254
ITEM: TIMESTEP
150
ITEM: NUMBER OF ATOMS
7
ITEM: BOX BOUNDS ss ss ss
-3.1413 3.1638
-2.5184 3.5923
-2.1558 1.7675
ITEM: ATOMS id type xs ys zs
1 1 .499724 .997770 .498090
2 1 .995471 .637607 .496820
3 1 .830117 .036128 .533630
4 1 .213761 .005816 .535530
5 1 .009296 .604177 .477709
6 1 .500614 .465133 .987908
7 1 .509568 .442080 .015494
ITEM: TIMESTEP
200
ITEM: NUMBER OF ATOMS
7
ITEM: BOX BOUNDS ss ss ss
-3.1392 3.1660
-2.5226 3.5943
-2.1545 1.7675
ITEM: ATOMS id type xs ys zs
1 1 .499043 .997001 .497147
2 1 .997047 .638926 .493571
3 1 .832137 .036143 .533325
4 1 .213138 .006938 .535538
5 1 .010093 .605433 .475909
6 1 .500311 .464945 .986729
7 1 .510446 .444118 .013774
ITEM: TIMESTEP
250
ITEM: NUMBER OF ATOMS
7
ITEM: BOX BOUNDS ss ss ss
-3.1401 3.1669
-2.5334 3.5891
-2.1563 1.7722
ITEM: ATOMS id type xs ys zs
1 1 .498625 .994562 .494206
2 1 .996201 .634810 .496815
3 1 .831771 .041201 .525193
4 1 .214617 .009149 .536520
5 1 .006498 .609635 .472248
6 1 .498488 .464279 .984444
7 1 .504456 .438930 .013190
ITEM: TIMESTEP
300
ITEM: NUMBER OF ATOMS
7
ITEM: BOX BOUNDS ss ss ss
-3.1382 3.1739
-2.5399 3.5918
-2.1605 1.7845
ITEM: ATOMS id type xs ys zs
1 1 .498330 .992200 .489163
2 1 .993848 .636818 .492608
3 1 .828895 .042493 .529834
4 1 .217552 .009282 .537720
5 1 .008207 .611323 .471073
6 1 .497990 .467390 .983334
7 1 .499060 .443428 .019345
ITEM: TIMESTEP
350
ITEM: NUMBER OF ATOMS
7
ITEM: BOX BOUNDS ss ss ss
-3.1394 3.1730
-2.5282 3.5924
-2.1507 1.7831
ITEM: ATOMS id type xs ys zs
1 1 .501849 .991122 .484211
2 1 .994353 .637558 .489093
3 1 .832405 .043201 .520230
4 1 .218564 .012473 .537731
5 1 .007627 .610639 .469802
6 1 .502164 .466889 .987373
7 1 .503879 .443296 .014607
ITEM: TIMESTEP
400
ITEM: NUMBER OF ATOMS
7
ITEM: BOX BOUNDS ss ss ss
-3.1455 3.1775
-2.5266 3.5817
-2.1617 1.7857
ITEM: ATOMS id type xs ys zs
1 1 .499156 .989989 .490106
2 1 .992849 .635835 .490658
3 1 .827409 .039614 .531465
4 1 .217617 .010433 .543673
5 1 .006220 .609901 .476553
6 1 .497995 .468147 .994997
7 1 .502181 .444782 .019009
ITEM: TIMESTEP
1
ITEM: NUMBER OF ATOMS
7
ITEM: BOX BOUNDS ss ss ss
-3.1432 3.1805
-2.5244 3.5919
-2.1558 1.7869
ITEM: ATOMS id type xs ys zs
1 1 .496768 .993381 .490158
2 1 .990207 .635808 .491069
3 1 .829661 .035374 .526821
4 1 .215672 .008304 .535737
5 1 .007285 .605567 .475393
6 1 .499854 .464042 .979964
7 1 .505724 .440569 .009634
ITEM: TIMESTEP
50
ITEM: NUMBER OF ATOMS
7
ITEM: BOX BOUNDS ss ss ss
-3.1432 3.1805
-2.5244 3.5919
-2.1534 1.7869
ITEM: ATOMS id type xs ys zs
1 1 .496397 .993996 .488113
2 1 .989270 .638048 .490017
3 1 .828261 .034560 .523698
4 1 .214086 .007954 .534237
5 1 .004295 .605805 .473027
6 1 .500153 .462658 .979326
7 1 .505370 .438969 .011723
ITEM: TIMESTEP
100
ITEM: NUMBER OF ATOMS
7
ITEM: BOX BOUNDS ss ss ss
-3.1384 3.1805
-2.5244 3.5919
-2.1544 1.7869
ITEM: ATOMS id type xs ys zs
1 1 .496905 .992842 .490611
2 1 .990286 .637748 .490694
3 1 .827271 .033812 .528816
4 1 .216984 .005071 .538311
5 1 .004604 .604355 .476374
6 1 .501401 .463444 .978922
7 1 .502729 .439167 .010417
ITEM: TIMESTEP
150
ITEM: NUMBER OF ATOMS
7
ITEM: BOX BOUNDS ss ss ss
-3.1433 3.1805
-2.5244 3.6085
-2.1584 1.7869
ITEM: ATOMS id type xs ys zs
1 1 .497854 .991993 .490612
2 1 .988845 .636908 .490838
3 1 .825717 .033557 .530347
4 1 .217060 .004717 .537378
5 1 .004930 .601901 .475267
6 1 .500412 .462139 .978426
7 1 .502724 .438683 .010337
ITEM: TIMESTEP
200
ITEM: NUMBER OF ATOMS
7
ITEM: BOX BOUNDS ss ss ss
-3.1548 3.1805
-2.5366 3.6062
-2.1647 1.7778
ITEM: ATOMS id type xs ys zs
1 1 .498844 .992137 .491975
2 1 .991584 .637965 .490337
3 1 .826690 .037463 .534100
4 1 .218561 .005777 .541777
5 1 .003793 .601874 .474997
6 1 .500094 .465396 .977737
7 1 .502746 .438493 .009932
ITEM: TIMESTEP
250
ITEM: NUMBER OF ATOMS
7
ITEM: BOX BOUNDS ss ss ss
-3.1507 3.1805
-2.5526 3.6074
-2.1658 1.7778
ITEM: ATOMS id type xs ys zs
1 1 .494503 .990540 .492862
2 1 .987709 .635893 .492323
3 1 .828917 .037170 .526850
4 1 .214542 .011013 .526635
5 1 .007617 .609536 .475478
6 1 .498216 .465440 .980125
7 1 .508573 .440304 .010787
ITEM: TIMESTEP
300
ITEM: NUMBER OF ATOMS
7
ITEM: BOX BOUNDS ss ss ss
-3.1522 3.1695
-2.5448 3.6189
-2.1606 1.7778
ITEM: ATOMS id type xs ys zs
1 1 .496995 .988491 .487599
2 1 .989716 .629566 .490189
3 1 .827562 .039338 .525178
4 1 .218293 .008109 .538356
5 1 .007810 .606170 .473482
6 1 .496113 .462678 .987495
7 1 .501905 .444461 .014563
ITEM: TIMESTEP
350
ITEM: NUMBER OF ATOMS
7
ITEM: BOX BOUNDS ss ss ss
-3.1457 3.1638
-2.5545 3.6195
-2.1526 1.7736
ITEM: ATOMS id type xs ys zs
1 1 .498447 .989616 .487646