ITEM: TIMESTEP
1
ITEM: NUMBER OF ATOMS
7
ITEM: BOX BOUNDS ss ss ss
-3.1015 3.1231
-2.4799 3.5544
-2.1218 1.7132
ITEM: ATOMS id type xs ys zs
1 1 .497760 .999227 .494753
2 1 .999368 .637204 .496197
3 1 .835889 .028464 .532719
4 1 .212270 .000824 .541788
5 1 .000728 .606496 .480252
6 1 .501260 .462908 .999182
7 1 .507169 .439115 .000930
ITEM: TIMESTEP
50
ITEM: NUMBER OF ATOMS
7
ITEM: BOX BOUNDS ss ss ss
-3.1243 3.1502
-2.5057 3.5750
-2.1446 1.7371
ITEM: ATOMS id type xs ys zs
1 1 .496124 .994517 .493969
2 1 .995332 .636783 .494377
3 1 .831229 .032851 .535020
4 1 .215021 .006347 .537281
5 1 .004498 .606279 .480677
6 1 .501634 .465338 .996325
7 1 .506479 .439370 .008884
ITEM: TIMESTEP
100
ITEM: NUMBER OF ATOMS
7
ITEM: BOX BOUNDS ss ss ss
-3.1337 3.1572
-2.5132 3.5856
-2.1509 1.7451
ITEM: ATOMS id type xs ys zs
1 1 .494453 .992473 .493538
2 1 .992830 .636256 .495438
3 1 .831468 .035932 .532986
4 1 .217109 .006214 .535889
5 1 .008315 .603649 .480843
6 1 .501908 .462811 .996395
7 1 .506410 .444236 .007612
ITEM: TIMESTEP
150
ITEM: NUMBER OF ATOMS
7
ITEM: BOX BOUNDS ss ss ss
-3.1351 3.1622
-2.5168 3.5899
-2.1475 1.7584
ITEM: ATOMS id type xs ys zs
1 1 .490707 .992237 .490194
2 1 .991339 .636478 .492860
3 1 .827407 .035818 .527588
4 1 .215165 .010356 .534671
5 1 .006137 .604547 .478173
6 1 .500479 .465837 .992990
7 1 .504778 .441475 .007160
ITEM: TIMESTEP
200
ITEM: NUMBER OF ATOMS
7
ITEM: BOX BOUNDS ss ss ss
-3.1274 3.1602
-2.5180 3.5810
-2.1538 1.7644
ITEM: ATOMS id type xs ys zs
1 1 .489724 .993109 .490441
2 1 .991925 .637789 .491868
3 1 .827165 .036194 .529780
4 1 .214789 .011018 .533420
5 1 .005170 .606377 .478002
6 1 .500810 .466334 .993453
7 1 .504682 .443131 .009519
ITEM: TIMESTEP
250
ITEM: NUMBER OF ATOMS
7
ITEM: BOX BOUNDS ss ss ss
-3.1313 3.1638
-2.5190 3.5801
-2.1533 1.7786
ITEM: ATOMS id type xs ys zs
1 1 .488793 .991901 .486840
2 1 .991796 .637978 .491411
3 1 .825642 .035088 .524846
4 1 .215296 .011118 .529194
5 1 .006492 .605740 .475626
6 1 .500808 .466339 .990306
7 1 .504867 .444753 .010166
ITEM: TIMESTEP
300
ITEM: NUMBER OF ATOMS
7
ITEM: BOX BOUNDS ss ss ss
-3.1364 3.1576
-2.5188 3.5791
-2.1596 1.7767
ITEM: ATOMS id type xs ys zs
1 1 .491837 .991604 .486689
2 1 .993496 .637440 .493779
3 1 .826281 .036110 .529033
4 1 .218577 .011243 .526547
5 1 .006927 .605351 .478454
6 1 .502757 .466169 .993398
7 1 .507249 .445381 .010470
ITEM: TIMESTEP
350
ITEM: NUMBER OF ATOMS
7
ITEM: BOX BOUNDS ss ss ss
-3.1273 3.1610
-2.5116 3.5767
-2.1588 1.7885
ITEM: ATOMS id type xs ys zs
1 1 .488658 .992937 .483740
2 1 .992000 .638252 .491500
3 1 .824774 .033898 .528197
4 1 .216778 .011606 .524663
5 1 .005444 .604439 .477921
6 1 .502046 .465682 .992103
7 1 .506338 .444943 .010298
ITEM: TIMESTEP
400
ITEM: NUMBER OF ATOMS
7
ITEM: BOX BOUNDS ss ss ss
-3.1389 3.1644
-2.5077 3.5817
-2.1652 1.7917
ITEM: ATOMS id type xs ys zs
1 1 .489472 .990492 .485956
2 1 .992293 .636661 .493105
3 1 .825037 .032159 .525966
4 1 .217981 .009534 .524784
5 1 .007563 .601153 .479766
6 1 .503601 .464669 .990442
7 1 .506174 .444627 .011235
ITEM: TIMESTEP
1
ITEM: NUMBER OF ATOMS
7
ITEM: BOX BOUNDS ss ss ss
-3.1326 3.1626
-2.5034 3.5741
-2.1698 1.7934
ITEM: ATOMS id type xs ys zs
1 1 .497127 .996005 .490855
2 1 .993105 .636535 .492242
3 1 .831470 .032141 .527613
4 1 .214830 .004686 .536382
5 1 .005660 .606059 .476828
6 1 .500570 .463488 .978990
7 1 .506409 .439873 .013015
ITEM: TIMESTEP
50
ITEM: NUMBER OF ATOMS
7
ITEM: BOX BOUNDS ss ss ss
-3.1326 3.1626
-2.5034 3.5826
-2.1698 1.7934
ITEM: ATOMS id type xs ys zs
1 1 .494909 .994559 .490473
2 1 .993967 .634803 .492480
3 1 .830868 .032192 .526215
4 1 .215194 .006128 .534840
5 1 .006908 .605350 .477707
6 1 .501983 .462549 .981193
7 1 .506665 .440076 .016080
ITEM: TIMESTEP
100
ITEM: NUMBER OF ATOMS
7
ITEM: BOX BOUNDS ss ss ss
-3.1326 3.1626
-2.5122 3.5827
-2.1698 1.7934
ITEM: ATOMS id type xs ys zs
1 1 .493086 .993503 .489616
2 1 .993690 .635148 .489677
3 1 .831451 .034478 .526443
4 1 .214706 .008705 .532689
5 1 .008495 .606215 .476905
6 1 .501274 .463376 .982372
7 1 .507269 .440287 .014000
ITEM: TIMESTEP
150
ITEM: NUMBER OF ATOMS
7
ITEM: BOX BOUNDS ss ss ss
-3.1326 3.1626
-2.5241 3.5982
-2.1698 1.7934
ITEM: ATOMS id type xs ys zs
1 1 .492163 .989085 .490276
2 1 .992154 .636583 .489617
3 1 .828168 .035109 .526151
4 1 .214406 .010749 .533885
5 1 .007663 .606476 .478733
6 1 .501796 .462827 .982273
7 1 .505748 .440407 .013877
ITEM: TIMESTEP
200
ITEM: NUMBER OF ATOMS
7
ITEM: BOX BOUNDS ss ss ss
-3.1308 3.1625
-2.5234 3.5872
-2.1698 1.7934
ITEM: ATOMS id type xs ys zs
1 1 .489918 .988775 .486407
2 1 .994294 .638975 .487333
3 1 .826442 .035345 .528469
4 1 .215131 .012894 .535437
5 1 .006994 .607596 .479507
6 1 .502796 .463785 .983813
7 1 .502591 .441755 .013054
ITEM: TIMESTEP
250
ITEM: NUMBER OF ATOMS
7
ITEM: BOX BOUNDS ss ss ss
-3.1336 3.1648
-2.5146 3.5855
-2.1698 1.7934
ITEM: ATOMS id type xs ys zs
1 1 .491433 .991440 .490022
2 1 .991212 .634436 .492348
3 1 .827294 .033338 .524703
4 1 .215122 .010240 .530622
5 1 .009522 .605894 .477966
6 1 .501878 .462565 .984953
7 1 .505165 .442994 .012671
ITEM: TIMESTEP
300
ITEM: NUMBER OF ATOMS
7
ITEM: BOX BOUNDS ss ss ss
-3.1290 3.1656
-2.5191 3.5807
-2.1698 1.7934
ITEM: ATOMS id type xs ys zs
1 1 .493945 .991373 .486286
2 1 .991183 .635346 .495721
3 1 .822995 .032279 .526307
4 1 .216786 .009447 .532524
5 1 .007466 .605526 .480400
6 1 .502287 .465513 .987344
7 1 .505758 .442749 .013810
ITEM: TIMESTEP
350
ITEM: NUMBER OF ATOMS
7
ITEM: BOX BOUNDS ss ss ss
-3.1298 3.1681
-2.5164 3.5782
-2.1698 1.7924
ITEM: ATOMS id type xs ys zs
1 1 .492154 .991541 .484385
2 1 .991003 .634631 .492821
3 1 .822549 .031684 .525938
4 1 .217573 .010958 .534268
5 1 .008538 .603050 .481778
6 1 .502612 .464638 .990581
7 1 .506241 .442995 .012958
ITEM: TIMESTEP
400
ITEM: NUMBER OF ATOMS
7
ITEM: BOX BOUNDS ss ss ss
-3.1302 3.1651
-2.5122 3.5814
-2.1698 1.7905
ITEM: ATOMS id type xs ys zs
1 1 .492566 .988056 .481693
2 1 .991773 .632974 .498041
3 1 .823835 .032482 .526441
4 1 .217965 .009407 .530976
5 1 .009376 .604077 .478917
6 1 .502141 .465044 .992311
7 1 .506633 .443511 .010923
ITEM: TIMESTEP
1
ITEM: NUMBER OF ATOMS
7
ITEM: BOX BOUNDS ss ss ss
-3.1166 3.1591
-2.5061 3.5807
-2.1564 1.7846
ITEM: ATOMS id type xs ys zs
1 1 .496074 .994881 .490186
2 1 .993583 .635993 .491672
3 1 .831486 .032500 .527183
4 1 .212960 .005129 .536033
5 1 .003150 .605577 .476136
6 1 .499571 .463200 .981153
7 1 .505452 .439644 .009711
ITEM: TIMESTEP
50
ITEM: NUMBER OF ATOMS
7
ITEM: BOX BOUNDS ss ss ss
-3.1244 3.1591
-2.5061 3.5820
-2.1564 1.7846
ITEM: ATOMS id type xs ys zs
1 1 .495030 .994614 .488185
2 1 .992503 .634940 .490190
3 1 .829959 .034211 .526076
4 1 .214980 .006517 .535051
5 1 .004542 .604361 .476940
6 1 .498679 .462203 .984967
7 1 .505729 .441980 .010940
ITEM: TIMESTEP
100
ITEM: NUMBER OF ATOMS
7
ITEM: BOX BOUNDS ss ss ss
-3.1323 3.1593
-2.5147 3.5883
-2.1564 1.7846
ITEM: ATOMS id type xs ys zs
1 1 .494120 .992388 .485215
2 1 .993741 .635617 .487439
3 1 .830193 .033419 .527828
4 1 .213651 .008333 .534484
5 1 .007692 .604268 .478206
6 1 .501283 .464973 .982663
7 1 .507882 .439935 .008142
ITEM: TIMESTEP
150
ITEM: NUMBER OF ATOMS
7
ITEM: BOX BOUNDS ss ss ss
-3.1319 3.1580
-2.5167 3.5878
-2.1550 1.7846
ITEM: ATOMS id type xs ys zs
1 1 .493792 .991060 .486485
2 1 .993365 .635998 .489523
3 1 .830227 .035129 .525174
4 1 .215616 .008304 .534599
5 1 .007588 .604861 .475289
6 1 .501332 .463998 .985411
7 1 .507656 .440601 .009128
ITEM: TIMESTEP
200
ITEM: NUMBER OF ATOMS
7
ITEM: BOX BOUNDS ss ss ss
-3.1323 3.1654
-2.5166 3.5843
-2.1542 1.7846
ITEM: ATOMS id type xs ys zs
1 1 .493561 .991845 .481980
2 1 .992065 .635301 .488670
3 1 .828002 .033524 .528732
4 1 .214097 .006977 .531311
5 1 .008978 .604854 .476041
6 1 .501837 .464831 .986282
7 1 .508200 .441262 .011179
ITEM: TIMESTEP
250
ITEM: NUMBER OF ATOMS
7
ITEM: BOX BOUNDS ss ss ss
-3.1316 3.1735
-2.5155 3.5864
-2.1638 1.7846
ITEM: ATOMS id type xs ys zs
1 1 .493441 .991951 .481061
2 1 .991035 .635130 .488825
3 1 .827373 .034700 .527679
4 1 .212862 .009477 .532092
5 1 .009804 .605387 .475850
6 1 .501665 .464473 .989859
7 1 .507096 .440122 .014555
ITEM: TIMESTEP
300
ITEM: NUMBER OF ATOMS
7
ITEM: BOX BOUNDS ss ss ss
-3.1375 3.1773
-2.5250 3.5831
-2.1579 1.7846
ITEM: ATOMS id type xs ys zs
1 1 .491687 .991058 .487810
2 1 .990120 .640096 .489538
3 1 .825820 .039409 .525537
4 1 .218754 .011363 .529407
5 1 .007612 .605026 .480127
6 1 .501722 .463817 .989965
7 1 .504715 .446582 .009245
ITEM: TIMESTEP
350
ITEM: NUMBER OF ATOMS
7
ITEM: BOX BOUNDS ss ss ss
-3.1329 3.1723
-2.5170 3.5817
-2.1606 1.7846
ITEM: ATOMS id type xs ys zs
1 1 .490159 .990702 .488488
2 1 .989685 .639308 .488419
3 1 .826177 .036260 .525074
4 1 .217704 .010209 .530978
5 1 .008506 .605148 .480529
6 1 .501747 .463463 .991664
7 1 .505236 .446038 .011993
ITEM: TIMESTEP
400
ITEM: NUMBER OF ATOMS
7
ITEM: BOX BOUNDS ss ss ss
-3.1364 3.1697
-2.5166 3.5817
-2.1636 1.7880
ITEM: ATOMS id type xs ys zs
1 1 .490706 .991246 .488311
2 1 .990863 .638727 .488850
3 1 .827004 .037624 .520572
4 1 .216294 .012526 .529297
5 1 .008663 .604385 .482586
6 1 .504550 .464054 .991803
7 1 .505357 .446424 .012549
ITEM: TIMESTEP
1
ITEM: NUMBER OF ATOMS
7
ITEM: BOX BOUNDS ss ss ss
-3.1292 3.1574
-2.5195 3.5673
-2.1609 1.7846
ITEM: ATOMS id type xs ys zs
1 1 .497263 .997097 .490805
2 1 .993912 .638201 .492226
3 1 .832045 .034726 .527738
4 1 .214577 .007331 .536533
5 1 .005146 .607784 .476705
6 1 .500726 .465431 .981144
7 1 .506552 .441837 .010829
ITEM: TIMESTEP
50
ITEM: NUMBER OF ATOMS
7
ITEM: BOX BOUNDS ss ss ss
-3.1292 3.1574
-2.5195 3.5790
-2.1609 1.7846
ITEM: ATOMS id type xs ys zs
1 1 .496530 .992961 .487590
2 1 .992868 .636873 .490721
3 1 .831891 .035057 .529634
4 1 .214577 .007430 .533774
5 1 .005186 .605472 .476387
6 1 .501765 .463566 .982059
7 1 .505594 .441748 .010361
ITEM: TIMESTEP
100
ITEM: NUMBER OF ATOMS
7
ITEM: BOX BOUNDS ss ss ss
-3.1328 3.1574
-2.5196 3.5964
-2.1609 1.7846
ITEM: ATOMS id type xs ys zs
1 1 .496054 .987074 .486424
2 1 .994148 .634124 .493110
3 1 .830207 .034586 .524782
4 1 .215400 .005743 .536949
5 1 .008570 .604849 .476287
6 1 .501077 .462122 .985530
7 1 .503263 .440756 .012778
ITEM: TIMESTEP
150
ITEM: NUMBER OF ATOMS
7
ITEM: BOX BOUNDS ss ss ss
-3.1319 3.1619
-2.5209 3.5890
-2.1528 1.7806
ITEM: ATOMS id type xs ys zs
1 1 .495633 .990142 .483152
2 1 .991873 .636016 .491846
3 1 .829960 .035494 .527086
4 1 .215046 .008416 .535728
5 1 .007013 .604676 .476091
6 1 .500797 .464355 .987025
7 1 .505038 .441764 .009825
ITEM: TIMESTEP
200
ITEM: NUMBER OF ATOMS
7
ITEM: BOX BOUNDS ss ss ss
-3.1309 3.1621
-2.5291 3.5892
-2.1676 1.7804
ITEM: ATOMS id type xs ys zs
1 1 .496967 .988239 .489542
2 1 .994386 .636732 .498104
3 1 .827907 .035726 .528899
4 1 .215898 .008373 .533701
5 1 .008149 .604914 .480687
6 1 .500711 .464900 .988561
7 1 .503903 .441503 .015926
ITEM: TIMESTEP
250
ITEM: NUMBER OF ATOMS
7
ITEM: BOX BOUNDS ss ss ss
-3.1335 3.1688
-2.5291 3.5781
-2.1592 1.7804
ITEM: ATOMS id type xs ys zs
1 1 .495980 .990469 .487344
2 1 .993007 .637666 .494840
3 1 .827197 .036012 .528305
4 1 .216485 .007473 .533096
5 1 .009395 .605881 .480374
6 1 .500850 .466370 .991117
7 1 .503638 .442883 .013232
ITEM: TIMESTEP
300
ITEM: NUMBER OF ATOMS
7
ITEM: BOX BOUNDS ss ss ss
-3.1303 3.1696
-2.5450 3.5778
-2.1608 1.7804
ITEM: ATOMS id type xs ys zs
1 1 .494697 .990098 .482909
2 1 .992448 .637108 .491407
3 1 .825340 .040096 .529469
4 1 .214989 .012047 .532228
5 1 .007594 .607931 .480852
6 1 .499730 .467522 .989685
7 1 .502959 .443622 .013548
ITEM: TIMESTEP
350
ITEM: NUMBER OF ATOMS
7
ITEM: BOX BOUNDS ss ss ss
-3.1329 3.1734
-2.5331 3.5790
-2.1625 1.7804
ITEM: ATOMS id type xs ys zs
1 1 .494801 .990389 .479997
2 1 .992132 .633542 .490221
3 1 .825784 .038819 .529873
4 1 .213891 .012444 .530460
5 1 .007137 .606901 .483609
6 1 .501272 .465699 .991095
7 1 .503186 .440988 .011655
ITEM: TIMESTEP
400
ITEM: NUMBER OF ATOMS
7
ITEM: BOX BOUNDS ss ss ss
-3.1305 3.1746
-2.5290 3.5736
-2.1517 1.7808
ITEM: ATOMS id type xs ys zs
1 1 .493265 .990637 .476844
2 1 .991692 .634914 .484169
3 1 .824644 .037673 .531089
4 1 .214829 .013519 .528262
5 1 .006852 .605250 .484173
6 1 .499428 .467841 .993668
7 1 .501433 .443245 .012591
ITEM: TIMESTEP
1
ITEM: NUMBER OF ATOMS
7
ITEM: BOX BOUNDS ss ss ss
-3.1215 3.1740
-2.5247 3.5670
-2.1540 1.7905
ITEM: ATOMS id type xs ys zs
1 1 .495331 .997179 .489198
2 1 .991289 .638543 .490583
3 1 .829640 .035551 .526117
4 1 .213063 .008181 .534904
5 1 .003906 .608146 .475093
6 1 .498788 .465890 .979633
7 1 .504622 .442351 .009073
ITEM: TIMESTEP
50
ITEM: NUMBER OF ATOMS
7
ITEM: BOX BOUNDS ss ss ss
-3.1300 3.1740
-2.5247 3.5825
-2.1540 1.7905
ITEM: ATOMS id type xs ys zs
1 1 .495922 .992450 .484848
2 1 .991260 .636749 .487851
3 1 .830163 .034354 .526581
4 1 .215373 .008914 .534070
5 1 .005433 .607223 .477391
6 1 .499493 .465625 .981863
7 1 .505941 .441570 .009040
ITEM: TIMESTEP
100
ITEM: NUMBER OF ATOMS
7
ITEM: BOX BOUNDS ss ss ss
-3.1317 3.1740
-2.5247 3.5939
-2.1540 1.7905
ITEM: ATOMS id type xs ys zs
1 1 .494749 .991372 .488750
2 1 .992478 .636700 .488739
3 1 .828996 .035394 .527177
4 1 .215832 .008247 .534422
5 1 .007801 .605291 .475004
6 1 .499887 .464596 .983201
7 1 .504969 .440461 .011360
ITEM: TIMESTEP
150
ITEM: NUMBER OF ATOMS
7
ITEM: BOX BOUNDS ss ss ss
-3.1337 3.1740
-2.5307 3.5929
-2.1540 1.7905
ITEM: ATOMS id type xs ys zs
1 1 .494519 .989058 .485011
2 1 .991806 .635520 .491013
3 1 .828568 .037855 .527338
4 1 .215995 .009742 .537412
5 1 .007455 .604713 .481267
6 1 .500712 .467146 .982431
7 1 .505843 .441046 .011093
ITEM: TIMESTEP
200
ITEM: NUMBER OF ATOMS
7
ITEM: BOX BOUNDS ss ss ss
-3.1320 3.1740
-2.5247 3.5931
-2.1540 1.7905
ITEM: ATOMS id type xs ys zs
1 1 .492667 .988796 .480493
2 1 .994276 .636760 .489203
3 1 .830223 .037606 .528845
4 1 .218346 .007450 .534309
5 1 .005862 .602210 .482594
6 1 .502164 .464867 .983329
7 1 .505791 .441743 .010442
ITEM: TIMESTEP
250
ITEM: NUMBER OF ATOMS
7
ITEM: BOX BOUNDS ss ss ss
-3.1370 3.1740
-2.5279 3.5929
-2.1541 1.7905
ITEM: ATOMS id type xs ys zs
1 1 .494708 .987148 .483279
2 1 .993484 .638278 .488787
3 1 .828033 .037347 .528118
4 1 .221221 .007612 .536990
5 1 .007330 .601721 .482181
6 1 .504203 .465234 .987481
7 1 .505434 .442373 .009408
ITEM: TIMESTEP
300
ITEM: NUMBER OF ATOMS
7
ITEM: BOX BOUNDS ss ss ss
-3.1384 3.1684
-2.5281 3.5909
-2.1516 1.7905
ITEM: ATOMS id type xs ys zs
1 1 .494377 .985772 .481933
2 1 .994533 .636339 .488342
3 1 .828312 .038366 .528377
4 1 .221196 .007954 .535345
5 1 .008428 .601127 .484980
6 1 .505246 .465739 .988004
7 1 .505398 .443607 .010470
ITEM: TIMESTEP
350
ITEM: NUMBER OF ATOMS
7
ITEM: BOX BOUNDS ss ss ss
-3.1353 3.1680
-2.5300 3.5747
-2.1578 1.7848
ITEM: ATOMS id type xs ys zs
1 1 .492217 .990855 .484668
2 1 .995160 .639913 .489522
3 1 .826901 .038600 .527480
4 1 .219187 .009308 .534805
5 1 .008629 .602449 .484728
6 1 .505772 .468494 .991597
7 1 .504573 .445656 .009396
ITEM: TIMESTEP
400
ITEM: NUMBER OF ATOMS
7
ITEM: BOX BOUNDS ss ss ss
-3.1402 3.1807
-2.5361 3.5748
-2.1599 1.7865
ITEM: ATOMS id type xs ys zs
1 1 .490680 .988000 .487821
2 1 .990112 .640969 .490166
3 1 .828312 .037295 .525058
4 1 .222193 .009960 .534261
5 1 .010196 .602534 .479259
6 1 .505721 .465457 .990208
7 1 .507645 .443121 .010219
ITEM: TIMESTEP
1
ITEM: NUMBER OF ATOMS
7
ITEM: BOX BOUNDS ss ss ss
-3.1270 3.1766
-2.5397 3.5620
-2.1604 1.7822
ITEM: ATOMS id type xs ys zs
1 1 .495548 .997992 .491037
2 1 .990867 .639970 .492422
3 1 .829459 .037948 .527974
4 1 .213646 .010654 .536788
5 1 .004772 .609604 .476933
6 1 .499010 .467597 .981756
7 1 .504853 .444083 .010729
ITEM: TIMESTEP
50
ITEM: NUMBER OF ATOMS
7
ITEM: BOX BOUNDS ss ss ss
-3.1305 3.1766
-2.5355 3.5837
-2.1604 1.7822
ITEM: ATOMS id type xs ys zs
1 1 .495364 .993896 .489594
2 1 .990603 .636395 .492034
3 1 .827876 .037363 .529002
4 1 .213820 .011068 .535269
5 1 .006249 .607437 .475219
6 1 .499437 .464906 .981745
7 1 .505120 .443912 .010146
ITEM: TIMESTEP
100
ITEM: NUMBER OF ATOMS
7
ITEM: BOX BOUNDS ss ss ss
-3.1333 3.1766
-2.5244 3.5900
-2.1604 1.7822
ITEM: ATOMS id type xs ys zs
1 1 .494486 .992266 .488003
2 1 .989719 .637161 .495649
3 1 .828555 .036639 .529709
4 1 .215989 .006271 .534132
5 1 .007555 .606811 .478023
6 1 .498530 .464749 .983248
7 1 .504062 .442567 .012377
ITEM: TIMESTEP
150
ITEM: NUMBER OF ATOMS
7
ITEM: BOX BOUNDS ss ss ss
-3.1343 3.1766
-2.5316 3.5959
-2.1604 1.7797
ITEM: ATOMS id type xs ys zs
1 1 .495077 .991317 .488985
2 1 .989360 .636034 .493816
3 1 .827638 .038282 .529201
4 1 .216045 .009215 .534780
5 1 .007869 .606935 .477915
6 1 .498970 .465025 .985228
7 1 .503471 .441452 .011385
ITEM: TIMESTEP
200
ITEM: NUMBER OF ATOMS
7
ITEM: BOX BOUNDS ss ss ss
-3.1362 3.1766
-2.5261 3.5974
-2.1604 1.7797
ITEM: ATOMS id type xs ys zs
1 1 .494001 .988809 .487452
2 1 .988939 .637524 .490642
3 1 .828422 .037433 .529819
4 1 .215992 .007987 .535926
5 1 .008269 .606567 .476986
6 1 .500193 .463388 .985539
7 1 .504436 .440629 .010736
ITEM: TIMESTEP
250
ITEM: NUMBER OF ATOMS
7
ITEM: BOX BOUNDS ss ss ss
-3.1352 3.1630
-2.5482 3.5957
-2.1579 1.7797
ITEM: ATOMS id type xs ys zs
1 1 .494601 .990099 .487424
2 1 .991982 .638675 .489861
3 1 .830101 .041160 .533383
4 1 .214986 .012693 .534443
5 1 .008371 .606246 .477624
6 1 .499842 .466857 .985961
7 1 .504873 .442021 .010728
ITEM: TIMESTEP
300
ITEM: NUMBER OF ATOMS
7
ITEM: BOX BOUNDS ss ss ss
-3.1329 3.1679
-2.5421 3.6047
-2.1616 1.7794
ITEM: ATOMS id type xs ys zs
1 1 .494922 .988158 .488582
2 1 .991747 .636774 .492608
3 1 .829550 .039270 .531322
4 1 .214864 .011979 .531422
5 1 .007368 .605691 .477074
6 1 .499875 .465105 .986896
7 1 .504265 .441400 .011723
ITEM: TIMESTEP
350
ITEM: NUMBER OF ATOMS
7
ITEM: BOX BOUNDS ss ss ss
-3.1373 3.1662
-2.5463 3.5998
-2.1652 1.7761
ITEM: ATOMS id type xs ys zs
1 1 .494523 .990024 .485108
2 1 .990928 .638522 .491436
3 1 .830154 .040683 .532300
4 1 .215347 .011570 .533899
5 1 .009395 .605238 .482191
6 1 .502514 .468286 .988520
7 1 .503938 .441798 .013974
ITEM: TIMESTEP
400
ITEM: NUMBER OF ATOMS
7
ITEM: BOX BOUNDS ss ss ss
-3.1426 3.1644
-2.5438 3.5887
-2.1583 1.7871
ITEM: ATOMS id type xs ys zs
1 1 .494237 .990804 .488475
2 1 .992391 .639096 .491541
3 1 .829859 .039892 .527097
4 1 .217023 .012668 .533198
5 1 .010711 .607156 .478134
6 1 .502734 .466474 .987529
7 1 .506301 .442670 .013704
ITEM: TIMESTEP
1
ITEM: NUMBER OF ATOMS
7
ITEM: BOX BOUNDS ss ss ss
-3.1318 3.1597
-2.5453 3.5918
-2.1562 1.7749
ITEM: ATOMS id type xs ys zs
1 1 .497297 .993146 .491399
2 1 .993545 .637159 .492801
3 1 .831827 .038634 .528441
4 1 .214829 .011453 .537286
5 1 .005555 .606999 .477245
6 1 .500747 .465814 .983548
7 1 .506592 .442421 .009662
ITEM: TIMESTEP
50
ITEM: NUMBER OF ATOMS
7
ITEM: BOX BOUNDS ss ss ss
-3.1318 3.1597
-2.5453 3.5918
-2.1562 1.7749
ITEM: ATOMS id type xs ys zs
1 1 .496527 .992363 .489204
2 1 .992798 .638560 .491940
3 1 .831259 .041207 .528542
4 1 .216718 .011040 .534805
5 1 .005962 .607626 .477158
6 1 .500557 .468185 .985285
7 1 .506020 .443522 .008179
ITEM: TIMESTEP
100
ITEM: NUMBER OF ATOMS
7
ITEM: BOX BOUNDS ss ss ss
-3.1403 3.1597
-2.5453 3.5918
-2.1562 1.7749
ITEM: ATOMS id type xs ys zs
1 1 .496320 .993751 .489016
2 1 .993243 .638751 .489877
3 1 .831587 .040966 .526271
4 1 .217674 .012055 .534695
5 1 .008162 .607266 .480009
6 1 .502769 .466570 .985263
7 1 .506331 .445833 .007347
ITEM: TIMESTEP
150
ITEM: NUMBER OF ATOMS
7
ITEM: BOX BOUNDS ss ss ss
-3.1382 3.1597
-2.5453 3.5918
-2.1650 1.7749
ITEM: ATOMS id type xs ys zs
1 1 .496469 .991394 .489521
2 1 .992959 .637904 .491818
3 1 .830587 .040564 .529302
4 1 .218482 .012418 .534485
5 1 .007536 .606961 .477874
6 1 .500316 .466744 .986324
7 1 .508038 .444807 .009337
ITEM: TIMESTEP
200
ITEM: NUMBER OF ATOMS
7
ITEM: BOX BOUNDS ss ss ss
-3.1379 3.1665
-2.5453 3.5918
-2.1621 1.7749
ITEM: ATOMS id type xs ys zs
1 1 .493816 .989702 .490048
2 1 .991887 .638636 .492934
3 1 .830106 .039841 .532964
4 1 .214506 .010921 .534477
5 1 .008483 .606953 .480354
6 1 .499062 .466912 .988716
7 1 .506580 .442220 .011014
ITEM: TIMESTEP
250
ITEM: NUMBER OF ATOMS
7
ITEM: BOX BOUNDS ss ss ss
-3.1295 3.1676
-2.5453 3.5844
-2.1716 1.7749
ITEM: ATOMS id type xs ys zs
1 1 .494663 .991206 .487272
2 1 .994553 .641361 .490563
3 1 .828757 .044236 .529368
4 1 .219432 .011226 .535458
5 1 .008914 .609723 .477751
6 1 .500813 .469604 .986916
7 1 .506591 .444952 .015754
ITEM: TIMESTEP
300
ITEM: NUMBER OF ATOMS
7
ITEM: BOX BOUNDS ss ss ss
-3.1258 3.1803
-2.5453 3.5768
-2.1547 1.7763
ITEM: ATOMS id type xs ys zs
1 1 .491378 .992195 .483861
2 1 .991425 .639420 .482992
3 1 .825625 .045212 .528318
4 1 .217699 .010856 .534433
5 1 .007738 .609606 .476008
6 1 .500085 .469943 .989811
7 1 .503612 .444937 .008935
ITEM: TIMESTEP
350
ITEM: NUMBER OF ATOMS
7
ITEM: BOX BOUNDS ss ss ss
-3.1334 3.1850
-2.5453 3.5846
-2.1599 1.7808
ITEM: ATOMS id type xs ys zs
1 1 .491856 .992089 .485499
2 1 .989283 .641384 .486101
3 1 .827800 .042134 .527115
4 1 .219700 .011861 .528103
5 1 .011856 .608516 .478650
6 1 .499375 .468342 .988675
7 1 .504190 .444723 .009280
ITEM: TIMESTEP
400
ITEM: NUMBER OF ATOMS
7
ITEM: BOX BOUNDS ss ss ss
-3.1444 3.1770
-2.5358 3.5908
-2.1571 1.7820
ITEM: ATOMS id type xs ys zs
1 1 .492309 .990858 .482845
2 1 .989536 .641989 .486676
3 1 .830229 .040325 .529091
4 1 .221927 .010519 .526550
5 1 .013350 .609152 .477325
6 1 .502749 .466038 .988434
7 1 .507591 .443143 .007406
ITEM: TIMESTEP
1
ITEM: NUMBER OF ATOMS
7
ITEM: BOX BOUNDS ss ss ss
-3.1172 3.1680
-2.5228 3.5813
-2.1538 1.7722
ITEM: ATOMS id type xs ys zs
1 1 .495442 .994839 .491418
2 1 .992225 .636945 .492825
3 1 .830348 .035171 .528541
4 1 .212714 .007853 .537356
5 1 .003225 .606611 .477252
6 1 .498908 .464652 .984214
7 1 .504765 .441118 .009024
ITEM: TIMESTEP
50
ITEM: NUMBER OF ATOMS
7
ITEM: BOX BOUNDS ss ss ss
-3.1286 3.1680
-2.5228 3.5800
-2.1538 1.7722
ITEM: ATOMS id type xs ys zs
1 1 .494491 .992949 .488193
2 1 .993171 .636716 .492320
3 1 .829818 .035049 .529234
4 1 .213929 .007175 .536855
5 1 .005201 .606776 .476435
6 1 .500808 .464119 .984636
7 1 .506238 .440467 .009442
ITEM: TIMESTEP
100
ITEM: NUMBER OF ATOMS
7
ITEM: BOX BOUNDS ss ss ss
-3.1379 3.1680
-2.5283 3.5893
-2.1564 1.7722
ITEM: ATOMS id type xs ys zs
1 1 .495133 .993281 .488851
2 1 .994096 .634508 .493472
3 1 .829408 .031702 .528259
4 1 .216432 .010276 .537558
5 1 .008358 .607582 .478538
6 1 .501342 .464868 .985908
7 1 .506469 .441295 .012569
ITEM: TIMESTEP
150
ITEM: NUMBER OF ATOMS
7
ITEM: BOX BOUNDS ss ss ss
-3.1376 3.1615
-2.5333 3.5955
-2.1574 1.7722
ITEM: ATOMS id type xs ys zs
1 1 .493401 .992195 .486460
2 1 .993418 .634943 .495361
3 1 .830905 .031719 .526693
4 1 .216356 .011070 .535471
5 1 .008515 .608097 .484638
6 1 .502235 .464929 .988752
7 1 .505535 .440169 .013014
ITEM: TIMESTEP
200
ITEM: NUMBER OF ATOMS
7
ITEM: BOX BOUNDS ss ss ss
-3.1338 3.1813
-2.5336 3.6018
-2.1528 1.7722
ITEM: ATOMS id type xs ys zs
1 1 .492990 .991541 .486693
2 1 .989849 .635401 .495607
3 1 .827522 .033738 .527603
4 1 .215407 .011518 .535007
5 1 .007973 .607596 .482821
6 1 .500888 .465297 .988774
7 1 .504546 .439403 .012001
ITEM: TIMESTEP
250
ITEM: NUMBER OF ATOMS
7
ITEM: BOX BOUNDS ss ss ss
-3.1387 3.1686
-2.5399 3.5990
-2.1598 1.7722
ITEM: ATOMS id type xs ys zs
1 1 .492919 .990738 .488984
2 1 .990362 .634541 .496107
3 1 .828474 .034641 .530040
4 1 .215262 .013605 .533148
5 1 .008493 .608469 .485869
6 1 .502063 .466374 .990784
7 1 .505480 .441613 .012773
ITEM: TIMESTEP
300
ITEM: NUMBER OF ATOMS
7
ITEM: BOX BOUNDS ss ss ss
-3.1425 3.1747
-2.5375 3.6168
-2.1512 1.7727
ITEM: ATOMS id type xs ys zs
1 1 .492868 .988062 .486812
2 1 .989096 .631991 .494567
3 1 .824957 .033422 .527884
4 1 .215413 .013725 .530458
5 1 .010295 .607434 .482398
6 1 .502504 .464637 .990182
7 1 .504626 .440665 .010221
ITEM: TIMESTEP
350
ITEM: NUMBER OF ATOMS
7
ITEM: BOX BOUNDS ss ss ss
-3.1271 3.1735
-2.5337 3.5912
-2.1483 1.7667
ITEM: ATOMS id type xs ys zs
1 1 .491842 .990051 .483247
2 1 .989571 .634462 .494742
3 1 .824193 .033756 .528116
4 1 .213018 .012710 .529783
5 1 .008626 .611248 .482763
6 1 .501589 .463713 .992203
7 1 .502682 .441313 .010334
ITEM: TIMESTEP
400
ITEM: NUMBER OF ATOMS
7
ITEM: BOX BOUNDS ss ss ss
-3.1304 3.1646
-2.5114 3.5889
-2.1557 1.7686
ITEM: ATOMS id type xs ys zs
1 1 .493178 .991326 .486482
2 1 .990525 .633801 .494610
3 1 .823857 .029333 .527861
4 1 .214429 .009872 .529575
5 1 .007380 .607981 .483143
6 1 .502121 .463958 .992453
7 1 .505179 .442053 .012244
ITEM: TIMESTEP
1
ITEM: NUMBER OF ATOMS
7
ITEM: BOX BOUNDS ss ss ss
-3.1170 3.1543
-2.4992 3.5897
-2.1509 1.7675
ITEM: ATOMS id type xs ys zs
1 1 .496521 .993426 .491630
2 1 .994387 .634663 .493062
3 1 .832129 .031374 .528853
4 1 .213151 .003994 .537690
5 1 .003210 .604229 .477473
6 1 .499977 .461914 .985379
7 1 .505846 .438354 .008342
ITEM: TIMESTEP
50
ITEM: NUMBER OF ATOMS
7
ITEM: BOX BOUNDS ss ss ss
-3.1314 3.1543
-2.5074 3.5897
-2.1509 1.7675
ITEM: ATOMS id type xs ys zs
1 1 .497936 .991579 .487965
2 1 .994930 .634213 .492132
3 1 .831356 .033118 .529990
4 1 .214853 .005787 .539287
5 1 .006120 .604707 .479211
6 1 .500103 .462371 .986924
7 1 .506367 .439514 .008277
ITEM: TIMESTEP
100
ITEM: NUMBER OF ATOMS
7
ITEM: BOX BOUNDS ss ss ss
-3.1395 3.1600
-2.5178 3.5914
-2.1543 1.7675
ITEM: ATOMS id type xs ys zs
1 1 .497656 .989430 .490350
2 1 .994823 .632979 .490649
3 1 .830396 .037012 .531241
4 1 .215891 .007428 .542116
5 1 .006978 .605281 .479378
6 1 .501062 .464250 .990299
7 1 .504485 .439646 .008686
ITEM: TIMESTEP
150
ITEM: NUMBER OF ATOMS
7
ITEM: BOX BOUNDS ss ss ss
-3.1413 3.1638
-2.5184 3.5923
-2.1558 1.7675
ITEM: ATOMS id type xs ys zs
1 1 .496316 .990209 .487358
2 1 .992372 .631641 .492956
3 1 .830377 .034974 .531337
4 1 .216316 .008428 .543171
5 1 .010417 .604284 .478583
6 1 .501561 .463673 .990843
7 1 .503906 .440299 .005873
ITEM: TIMESTEP
200
ITEM: NUMBER OF ATOMS
7
ITEM: BOX BOUNDS ss ss ss
-3.1392 3.1660
-2.5226 3.5943
-2.1545 1.7675
ITEM: ATOMS id type xs ys zs
1 1 .496321 .988777 .483582
2 1 .993039 .634473 .488022
3 1 .831377 .037856 .530345
4 1 .214302 .008021 .541110
5 1 .006880 .606801 .478614
6 1 .501304 .464714 .992951
7 1 .503635 .438517 .014000
ITEM: TIMESTEP
250
ITEM: NUMBER OF ATOMS
7
ITEM: BOX BOUNDS ss ss ss
-3.1401 3.1669
-2.5334 3.5891
-2.1563 1.7722
ITEM: ATOMS id type xs ys zs
1 1 .498523 .989658 .486304
2 1 .993706 .634896 .491934
3 1 .829266 .042235 .528347
4 1 .218737 .012096 .536025
5 1 .008257 .611012 .474083
6 1 .501314 .467969 .991537
7 1 .504919 .443502 .012561
ITEM: TIMESTEP
300
ITEM: NUMBER OF ATOMS
7
ITEM: BOX BOUNDS ss ss ss
-3.1382 3.1739
-2.5399 3.5918
-2.1605 1.7845
ITEM: ATOMS id type xs ys zs
1 1 .496251 .989241 .489190
2 1 .990958 .634950 .496373
3 1 .827093 .041525 .526771
4 1 .218156 .012646 .535054
5 1 .007097 .612497 .479230
6 1 .498516 .468555 .990636
7 1 .503482 .443619 .017094
ITEM: TIMESTEP
350
ITEM: NUMBER OF ATOMS
7
ITEM: BOX BOUNDS ss ss ss
-3.1394 3.1730
-2.5282 3.5924
-2.1507 1.7831
ITEM: ATOMS id type xs ys zs
1 1 .494984 .990692 .488630
2 1 .991566 .634473 .489221
3 1 .827298 .037163 .523782
4 1 .217151 .011581 .533959
5 1 .007862 .611323 .478101
6 1 .500212 .468130 .990181
7 1 .503890 .444758 .014887
ITEM: TIMESTEP
400
ITEM: NUMBER OF ATOMS
7
ITEM: BOX BOUNDS ss ss ss
-3.1455 3.1775
-2.5266 3.5817
-2.1617 1.7857
ITEM: ATOMS id type xs ys zs
1 1 .497664 .991989 .489839
2 1 .991877 .634988 .491751
3 1 .828013 .036269 .522910
4 1 .218312 .012956 .535627
5 1 .010111 .611104 .479019
6 1 .500020 .467316 .991027
7 1 .504780 .446261 .015333
ITEM: TIMESTEP
1
ITEM: NUMBER OF ATOMS
7
ITEM: BOX BOUNDS ss ss ss
-3.1432 3.1805
-2.5244 3.5919
-2.1558 1.7869
ITEM: ATOMS id type xs ys zs
1 1 .496565 .993100 .489863
2 1 .990293 .635926 .491269
3 1 .829376 .035380 .526821
4 1 .215557 .008099 .535589
5 1 .007318 .605646 .475782
6 1 .499980 .463976 .980570
7 1 .505796 .440527 .009531
ITEM: TIMESTEP
50
ITEM: NUMBER OF ATOMS
7
ITEM: BOX BOUNDS ss ss ss
-3.1432 3.1805
-2.5244 3.5919
-2.1534 1.7869
ITEM: ATOMS id type xs ys zs
1 1 .496350 .991301 .488882
2 1 .990374 .635833 .492935
3 1 .829424 .036101 .525341
4 1 .216613 .007838 .534252
5 1 .007566 .605733 .475836
6 1 .499504 .464532 .981676
7 1 .504980 .441030 .009423
ITEM: TIMESTEP
100
ITEM: NUMBER OF ATOMS
7
ITEM: BOX BOUNDS ss ss ss
-3.1384 3.1805
-2.5244 3.5919
-2.1544 1.7869
ITEM: ATOMS id type xs ys zs
1 1 .496532 .990490 .489933
2 1 .990586 .634183 .492339
3 1 .827952 .034737 .525889
4 1 .214765 .007497 .534922
5 1 .007796 .606902 .477066
6 1 .499900 .462746 .981919
7 1 .504078 .440199 .009445
ITEM: TIMESTEP
150
ITEM: NUMBER OF ATOMS
7
ITEM: BOX BOUNDS ss ss ss
-3.1433 3.1805
-2.5244 3.6085
-2.1584 1.7869
ITEM: ATOMS id type xs ys zs
1 1 .495749 .987864 .490399
2 1 .991090 .632494 .492540
3 1 .826979 .036727 .526204
4 1 .217332 .007730 .534647
5 1 .006847 .603463 .476344
6 1 .498745 .461548 .982521
7 1 .504806 .441766 .011982
ITEM: TIMESTEP
200
ITEM: NUMBER OF ATOMS
7
ITEM: BOX BOUNDS ss ss ss
-3.1548 3.1805
-2.5366 3.6062
-2.1647 1.7778
ITEM: ATOMS id type xs ys zs
1 1 .496525 .988606 .491268
2 1 .988440 .633986 .493204
3 1 .826960 .034333 .526297
4 1 .214335 .010124 .531085
5 1 .011771 .605681 .477083
6 1 .499648 .464868 .984852
7 1 .506674 .439453 .013586
ITEM: TIMESTEP
250
ITEM: NUMBER OF ATOMS
7
ITEM: BOX BOUNDS ss ss ss
-3.1507 3.1805
-2.5526 3.6074
-2.1658 1.7778
ITEM: ATOMS id type xs ys zs
1 1 .495156 .989606 .489532
2 1 .987039 .635129 .495074
3 1 .827155 .036037 .526473
4 1 .214982 .012764 .531052
5 1 .011638 .606502 .475275
6 1 .499258 .466920 .985512
7 1 .506330 .442830 .012155
ITEM: TIMESTEP
300
ITEM: NUMBER OF ATOMS
7
ITEM: BOX BOUNDS ss ss ss
-3.1522 3.1695
-2.5448 3.6189
-2.1606 1.7778
ITEM: ATOMS id type xs ys zs
1 1 .496515 .986805 .489112
2 1 .990817 .633216 .488051
3 1 .826391 .037436 .524134
4 1 .213237 .012326 .531564
5 1 .009923 .604647 .477907
6 1 .500747 .461617 .987857
7 1 .504019 .441882 .009702
ITEM: TIMESTEP
350
ITEM: NUMBER OF ATOMS
7
ITEM: BOX BOUNDS ss ss ss
-3.1457 3.1638
-2.5545 3.6195
-2.1526 1.7736
ITEM: ATOMS id type xs ys zs
1 1 .496403 .986428 .489113