ITEM: TIMESTEP
1
ITEM: NUMBER OF ATOMS
7
ITEM: BOX BOUNDS ss ss ss
-3.1015 3.1231
-2.4799 3.5544
-2.1218 1.7132
ITEM: ATOMS id type xs ys zs
1 1 .497854 .999344 .494888
2 1 .999364 .637196 .496197
3 1 .835996 .028457 .532755
4 1 .212227 .000754 .541914
5 1 .000633 .606524 .480230
6 1 .501210 .462877 .999012
7 1 .507165 .439071 .000904
ITEM: TIMESTEP
50
ITEM: NUMBER OF ATOMS
7
ITEM: BOX BOUNDS ss ss ss
-3.1243 3.1502
-2.5057 3.5750
-2.1446 1.7371
ITEM: ATOMS id type xs ys zs
1 1 .497636 .996042 .495135
2 1 .995056 .636647 .496011
3 1 .833143 .032486 .532171
4 1 .214148 .004830 .541427
5 1 .004323 .606175 .480020
6 1 .500714 .463642 .992494
7 1 .506560 .439923 .007012
ITEM: TIMESTEP
100
ITEM: NUMBER OF ATOMS
7
ITEM: BOX BOUNDS ss ss ss
-3.1337 3.1572
-2.5132 3.5856
-2.1509 1.7451
ITEM: ATOMS id type xs ys zs
1 1 .497426 .993752 .494731
2 1 .994001 .636117 .495513
3 1 .831982 .033722 .531750
4 1 .215337 .006072 .540558
5 1 .006444 .605559 .479142
6 1 .500960 .463714 .991400
7 1 .506314 .440002 .009294
ITEM: TIMESTEP
150
ITEM: NUMBER OF ATOMS
7
ITEM: BOX BOUNDS ss ss ss
-3.1351 3.1622
-2.5168 3.5899
-2.1475 1.7584
ITEM: ATOMS id type xs ys zs
1 1 .496016 .992153 .492028
2 1 .992994 .636233 .493174
3 1 .830509 .034923 .529889
4 1 .215748 .006824 .537274
5 1 .007305 .605233 .476276
6 1 .500634 .463813 .990116
7 1 .505939 .440709 .009019
ITEM: TIMESTEP
200
ITEM: NUMBER OF ATOMS
7
ITEM: BOX BOUNDS ss ss ss
-3.1274 3.1602
-2.5180 3.5810
-2.1538 1.7644
ITEM: ATOMS id type xs ys zs
1 1 .494306 .993061 .491948
2 1 .992952 .637647 .493269
3 1 .830096 .035856 .529700
4 1 .215548 .007343 .536224
5 1 .006415 .606272 .475326
6 1 .500186 .464492 .990613
7 1 .505562 .442053 .010693
ITEM: TIMESTEP
250
ITEM: NUMBER OF ATOMS
7
ITEM: BOX BOUNDS ss ss ss
-3.1313 3.1638
-2.5190 3.5801
-2.1533 1.7786
ITEM: ATOMS id type xs ys zs
1 1 .493097 .992767 .489788
2 1 .991999 .637684 .490986
3 1 .829050 .036051 .527771
4 1 .216289 .008200 .533147
5 1 .007175 .606517 .473593
6 1 .500288 .464987 .988268
7 1 .505619 .442239 .010524
ITEM: TIMESTEP
300
ITEM: NUMBER OF ATOMS
7
ITEM: BOX BOUNDS ss ss ss
-3.1364 3.1576
-2.5188 3.5791
-2.1596 1.7767
ITEM: ATOMS id type xs ys zs
1 1 .493020 .992450 .490104
2 1 .992836 .637663 .491618
3 1 .829108 .035927 .529005
4 1 .217549 .009100 .532797
5 1 .007682 .606224 .475651
6 1 .501375 .465718 .989944
7 1 .506409 .442928 .012101
ITEM: TIMESTEP
350
ITEM: NUMBER OF ATOMS
7
ITEM: BOX BOUNDS ss ss ss
-3.1273 3.1610
-2.5116 3.5767
-2.1588 1.7885
ITEM: ATOMS id type xs ys zs
1 1 .491461 .992489 .488021
2 1 .992369 .637568 .489676
3 1 .827474 .034775 .527182
4 1 .216201 .008740 .530106
5 1 .006206 .605722 .474794
6 1 .500775 .465615 .987952
7 1 .505394 .443235 .011633
ITEM: TIMESTEP
400
ITEM: NUMBER OF ATOMS
7
ITEM: BOX BOUNDS ss ss ss
-3.1389 3.1644
-2.5077 3.5817
-2.1652 1.7917
ITEM: ATOMS id type xs ys zs
1 1 .491700 .991259 .488005
2 1 .991775 .636802 .489865
3 1 .826551 .034178 .527265
4 1 .217406 .008572 .530007
5 1 .008255 .604661 .475507
6 1 .501682 .464925 .988099
7 1 .506140 .443000 .012687
ITEM: TIMESTEP
1
ITEM: NUMBER OF ATOMS
7
ITEM: BOX BOUNDS ss ss ss
-3.1326 3.1626
-2.5034 3.5741
-2.1698 1.7934
ITEM: ATOMS id type xs ys zs
1 1 .497210 .996116 .490988
2 1 .993102 .636544 .492253
3 1 .831567 .032131 .527628
4 1 .214782 .004627 .536493
5 1 .005556 .606086 .476800
6 1 .500526 .463462 .978807
7 1 .506417 .439828 .012982
ITEM: TIMESTEP
50
ITEM: NUMBER OF ATOMS
7
ITEM: BOX BOUNDS ss ss ss
-3.1326 3.1626
-2.5034 3.5826
-2.1698 1.7934
ITEM: ATOMS id type xs ys zs
1 1 .497400 .994858 .491454
2 1 .993109 .635684 .492164
3 1 .831813 .032091 .527617
4 1 .214729 .004391 .536791
5 1 .005548 .605271 .476530
6 1 .500368 .462864 .978265
7 1 .506204 .439115 .013195
ITEM: TIMESTEP
100
ITEM: NUMBER OF ATOMS
7
ITEM: BOX BOUNDS ss ss ss
-3.1326 3.1626
-2.5122 3.5827
-2.1698 1.7934
ITEM: ATOMS id type xs ys zs
1 1 .497174 .994436 .491546
2 1 .993139 .636171 .491781
3 1 .831450 .033557 .527482
4 1 .214833 .005832 .536442
5 1 .006171 .605905 .476010
6 1 .500445 .463760 .978968
7 1 .505759 .440048 .013983
ITEM: TIMESTEP
150
ITEM: NUMBER OF ATOMS
7
ITEM: BOX BOUNDS ss ss ss
-3.1326 3.1626
-2.5241 3.5982
-2.1698 1.7934
ITEM: ATOMS id type xs ys zs
1 1 .496417 .991453 .491422
2 1 .993120 .635354 .491346
3 1 .830823 .035599 .526998
4 1 .215048 .008468 .535767
5 1 .006700 .605408 .474963
6 1 .500604 .463859 .980668
7 1 .505496 .440543 .014723
ITEM: TIMESTEP
200
ITEM: NUMBER OF ATOMS
7
ITEM: BOX BOUNDS ss ss ss
-3.1308 3.1625
-2.5234 3.5872
-2.1698 1.7934
ITEM: ATOMS id type xs ys zs
1 1 .495173 .992609 .491147
2 1 .992684 .636390 .490238
3 1 .830220 .035541 .526652
4 1 .214995 .009280 .535132
5 1 .006785 .606780 .474719
6 1 .500825 .464764 .981985
7 1 .505290 .441681 .014673
ITEM: TIMESTEP
250
ITEM: NUMBER OF ATOMS
7
ITEM: BOX BOUNDS ss ss ss
-3.1336 3.1648
-2.5146 3.5855
-2.1698 1.7934
ITEM: ATOMS id type xs ys zs
1 1 .494072 .992325 .490771
2 1 .991692 .636246 .489565
3 1 .829317 .033939 .526669
4 1 .215453 .008528 .534489
5 1 .007501 .606851 .474614
6 1 .501224 .464029 .983388
7 1 .505211 .441253 .014843
ITEM: TIMESTEP
300
ITEM: NUMBER OF ATOMS
7
ITEM: BOX BOUNDS ss ss ss
-3.1290 3.1656
-2.5191 3.5807
-2.1698 1.7934
ITEM: ATOMS id type xs ys zs
1 1 .492800 .992669 .490855
2 1 .991305 .637101 .488801
3 1 .828564 .034401 .526605
4 1 .215038 .009700 .534036
5 1 .007203 .607669 .474875
6 1 .501243 .464724 .984837
7 1 .504798 .442127 .014878
ITEM: TIMESTEP
350
ITEM: NUMBER OF ATOMS
7
ITEM: BOX BOUNDS ss ss ss
-3.1298 3.1681
-2.5164 3.5782
-2.1698 1.7924
ITEM: ATOMS id type xs ys zs
1 1 .492462 .992711 .490977
2 1 .990869 .636928 .489499
3 1 .827476 .033813 .526346
4 1 .215335 .009561 .533419
5 1 .007674 .607525 .475622
6 1 .501336 .464579 .986175
7 1 .504794 .442429 .014416
ITEM: TIMESTEP
400
ITEM: NUMBER OF ATOMS
7
ITEM: BOX BOUNDS ss ss ss
-3.1302 3.1651
-2.5122 3.5814
-2.1698 1.7905
ITEM: ATOMS id type xs ys zs
1 1 .492521 .991384 .490494
2 1 .991429 .635891 .491203
3 1 .826649 .032765 .525776
4 1 .215786 .009036 .532399
5 1 .008161 .606479 .477300
6 1 .501919 .463599 .987503
7 1 .505221 .442061 .013449
ITEM: TIMESTEP
1
ITEM: NUMBER OF ATOMS
7
ITEM: BOX BOUNDS ss ss ss
-3.1166 3.1591
-2.5061 3.5807
-2.1564 1.7846
ITEM: ATOMS id type xs ys zs
1 1 .496205 .995027 .490361
2 1 .993631 .636002 .491634
3 1 .831592 .032516 .527217
4 1 .212901 .005052 .536126
5 1 .003027 .605595 .476098
6 1 .499530 .463188 .980934
7 1 .505438 .439586 .009658
ITEM: TIMESTEP
50
ITEM: NUMBER OF ATOMS
7
ITEM: BOX BOUNDS ss ss ss
-3.1244 3.1591
-2.5061 3.5820
-2.1564 1.7846
ITEM: ATOMS id type xs ys zs
1 1 .497059 .995042 .490878
2 1 .993637 .635916 .491486
3 1 .832093 .032516 .527208
4 1 .213813 .004791 .536493
5 1 .004164 .605547 .475790
6 1 .499930 .463113 .980248
7 1 .505869 .439401 .009880
ITEM: TIMESTEP
100
ITEM: NUMBER OF ATOMS
7
ITEM: BOX BOUNDS ss ss ss
-3.1323 3.1593
-2.5147 3.5883
-2.1564 1.7846
ITEM: ATOMS id type xs ys zs
1 1 .497480 .993605 .490742
2 1 .993679 .635811 .491029
3 1 .832068 .033984 .527046
4 1 .215041 .006174 .536397
5 1 .005866 .605587 .475230
6 1 .500539 .463575 .980771
7 1 .506064 .439930 .010349
ITEM: TIMESTEP
150
ITEM: NUMBER OF ATOMS
7
ITEM: BOX BOUNDS ss ss ss
-3.1319 3.1580
-2.5167 3.5878
-2.1550 1.7846
ITEM: ATOMS id type xs ys zs
1 1 .497024 .992830 .489307
2 1 .993938 .636132 .490392
3 1 .831579 .034608 .526737
4 1 .215520 .006941 .535698
5 1 .006502 .605688 .474645
6 1 .500746 .463849 .982436
7 1 .506348 .440638 .010603
ITEM: TIMESTEP
200
ITEM: NUMBER OF ATOMS
7
ITEM: BOX BOUNDS ss ss ss
-3.1323 3.1654
-2.5166 3.5843
-2.1542 1.7846
ITEM: ATOMS id type xs ys zs
1 1 .495489 .992974 .488449
2 1 .992831 .636569 .490026
3 1 .830127 .034839 .526429
4 1 .215896 .007194 .534738
5 1 .006901 .605606 .473522
6 1 .500410 .464297 .983790
7 1 .506182 .441656 .010671
ITEM: TIMESTEP
250
ITEM: NUMBER OF ATOMS
7
ITEM: BOX BOUNDS ss ss ss
-3.1316 3.1735
-2.5155 3.5864
-2.1638 1.7846
ITEM: ATOMS id type xs ys zs
1 1 .494070 .992197 .489141
2 1 .991477 .635882 .490450
3 1 .828405 .034686 .527072
4 1 .216178 .007251 .535409
5 1 .007077 .605108 .474219
6 1 .499995 .464288 .985251
7 1 .505353 .441912 .012870
ITEM: TIMESTEP
300
ITEM: NUMBER OF ATOMS
7
ITEM: BOX BOUNDS ss ss ss
-3.1375 3.1773
-2.5250 3.5831
-2.1579 1.7846
ITEM: ATOMS id type xs ys zs
1 1 .493843 .992070 .487723
2 1 .990882 .636518 .488770
3 1 .827259 .035990 .525762
4 1 .217100 .009058 .534274
5 1 .008322 .605891 .472868
6 1 .500448 .465517 .986171
7 1 .505265 .443117 .011184
ITEM: TIMESTEP
350
ITEM: NUMBER OF ATOMS
7
ITEM: BOX BOUNDS ss ss ss
-3.1329 3.1723
-2.5170 3.5817
-2.1606 1.7846
ITEM: ATOMS id type xs ys zs
1 1 .493575 .991658 .487391
2 1 .991535 .636254 .488188
3 1 .827083 .034711 .525885
4 1 .217035 .008168 .534130
5 1 .007561 .605440 .473010
6 1 .500587 .465188 .987002
7 1 .505072 .442562 .011792
ITEM: TIMESTEP
400
ITEM: NUMBER OF ATOMS
7
ITEM: BOX BOUNDS ss ss ss
-3.1364 3.1697
-2.5166 3.5817
-2.1636 1.7880
ITEM: ATOMS id type xs ys zs
1 1 .493291 .991343 .487442
2 1 .991566 .636910 .488227
3 1 .826848 .035246 .526046
4 1 .217791 .008661 .533094
5 1 .008078 .605268 .474421
6 1 .501122 .465146 .987507
7 1 .505380 .443518 .012377
ITEM: TIMESTEP
1
ITEM: NUMBER OF ATOMS
7
ITEM: BOX BOUNDS ss ss ss
-3.1292 3.1574
-2.5195 3.5673
-2.1609 1.7846
ITEM: ATOMS id type xs ys zs
1 1 .497351 .997232 .490940
2 1 .993913 .638207 .492209
3 1 .832159 .034725 .527744
4 1 .214534 .007258 .536649
5 1 .005029 .607803 .476688
6 1 .500670 .465395 .980938
7 1 .506567 .441792 .010788
ITEM: TIMESTEP
50
ITEM: NUMBER OF ATOMS
7
ITEM: BOX BOUNDS ss ss ss
-3.1292 3.1574
-2.5195 3.5790
-2.1609 1.7846
ITEM: ATOMS id type xs ys zs
1 1 .497668 .995609 .491577
2 1 .993914 .637033 .492069
3 1 .832523 .034661 .527735
4 1 .214412 .006924 .537090
5 1 .004847 .606735 .476367
6 1 .500449 .464506 .980197
7 1 .506379 .440816 .010973
ITEM: TIMESTEP
100
ITEM: NUMBER OF ATOMS
7
ITEM: BOX BOUNDS ss ss ss
-3.1328 3.1574
-2.5196 3.5964
-2.1609 1.7846
ITEM: ATOMS id type xs ys zs
1 1 .497726 .992388 .491713
2 1 .993920 .635334 .491765
3 1 .832557 .034681 .527623
4 1 .215020 .006718 .536926
5 1 .005901 .605157 .475646
6 1 .500678 .463231 .980616
7 1 .506213 .439674 .011696
ITEM: TIMESTEP
150
ITEM: NUMBER OF ATOMS
7
ITEM: BOX BOUNDS ss ss ss
-3.1319 3.1619
-2.5209 3.5890
-2.1528 1.7806
ITEM: ATOMS id type xs ys zs
1 1 .496595 .992660 .490664
2 1 .993266 .636267 .491012
3 1 .831447 .034990 .526810
4 1 .214999 .006548 .536414
5 1 .006349 .606149 .474390
6 1 .500314 .463752 .983079
7 1 .505331 .440588 .010449
ITEM: TIMESTEP
200
ITEM: NUMBER OF ATOMS
7
ITEM: BOX BOUNDS ss ss ss
-3.1309 3.1621
-2.5291 3.5892
-2.1676 1.7804
ITEM: ATOMS id type xs ys zs
1 1 .496289 .990956 .489947
2 1 .993531 .636697 .493588
3 1 .830239 .036085 .527743
4 1 .214663 .007635 .538631
5 1 .006734 .606716 .476313
6 1 .500167 .464037 .984813
7 1 .504783 .441592 .014774
ITEM: TIMESTEP
250
ITEM: NUMBER OF ATOMS
7
ITEM: BOX BOUNDS ss ss ss
-3.1335 3.1688
-2.5291 3.5781
-2.1592 1.7804
ITEM: ATOMS id type xs ys zs
1 1 .496177 .992122 .487075
2 1 .992606 .637632 .493243
3 1 .828357 .036078 .526221
4 1 .214776 .007548 .537634
5 1 .007347 .607609 .475007
6 1 .499773 .464794 .986166
7 1 .504299 .442552 .013614
ITEM: TIMESTEP
300
ITEM: NUMBER OF ATOMS
7
ITEM: BOX BOUNDS ss ss ss
-3.1303 3.1696
-2.5450 3.5778
-2.1608 1.7804
ITEM: ATOMS id type xs ys zs
1 1 .495817 .992215 .486913
2 1 .992301 .638399 .493550
3 1 .827552 .038869 .526215
4 1 .214790 .010111 .537589
5 1 .007082 .608507 .475154
6 1 .499517 .466605 .987600
7 1 .503862 .443960 .014513
ITEM: TIMESTEP
350
ITEM: NUMBER OF ATOMS
7
ITEM: BOX BOUNDS ss ss ss
-3.1329 3.1734
-2.5331 3.5790
-2.1625 1.7804
ITEM: ATOMS id type xs ys zs
1 1 .495262 .991634 .486630
2 1 .991582 .637279 .493183
3 1 .826612 .037326 .526297
4 1 .215357 .008518 .537624
5 1 .007876 .607554 .475627
6 1 .499501 .466020 .988963
7 1 .503711 .442560 .014535
ITEM: TIMESTEP
400
ITEM: NUMBER OF ATOMS
7
ITEM: BOX BOUNDS ss ss ss
-3.1305 3.1746
-2.5290 3.5736
-2.1517 1.7808
ITEM: ATOMS id type xs ys zs
1 1 .494649 .991684 .484100
2 1 .991557 .636891 .490991
3 1 .825917 .036833 .525097
4 1 .215159 .008363 .535491
5 1 .007656 .607461 .474962
6 1 .499488 .466295 .989659
7 1 .503220 .442380 .011247
ITEM: TIMESTEP
1
ITEM: NUMBER OF ATOMS
7
ITEM: BOX BOUNDS ss ss ss
-3.1215 3.1740
-2.5247 3.5670
-2.1540 1.7905
ITEM: ATOMS id type xs ys zs
1 1 .495424 .997291 .489315
2 1 .991286 .638556 .490582
3 1 .829759 .035549 .526129
4 1 .213008 .008108 .535040
5 1 .003797 .608170 .475053
6 1 .498740 .465876 .979444
7 1 .504627 .442293 .009028
ITEM: TIMESTEP
50
ITEM: NUMBER OF ATOMS
7
ITEM: BOX BOUNDS ss ss ss
-3.1300 3.1740
-2.5247 3.5825
-2.1540 1.7905
ITEM: ATOMS id type xs ys zs
1 1 .496469 .995110 .489974
2 1 .991304 .636998 .490501
3 1 .830413 .035438 .526142
4 1 .213931 .007748 .535569
5 1 .004916 .606754 .474686
6 1 .499180 .464669 .978522
7 1 .505094 .441006 .009177
ITEM: TIMESTEP
100
ITEM: NUMBER OF ATOMS
7
ITEM: BOX BOUNDS ss ss ss
-3.1317 3.1740
-2.5247 3.5939
-2.1540 1.7905
ITEM: ATOMS id type xs ys zs
1 1 .496643 .992948 .490243
2 1 .991330 .635917 .490192
3 1 .830374 .035483 .526084
4 1 .214310 .007547 .535725
5 1 .005745 .605681 .473970
6 1 .499216 .463997 .978712
7 1 .504770 .440325 .009713
ITEM: TIMESTEP
150
ITEM: NUMBER OF ATOMS
7
ITEM: BOX BOUNDS ss ss ss
-3.1337 3.1740
-2.5307 3.5929
-2.1540 1.7905
ITEM: ATOMS id type xs ys zs
1 1 .496535 .992623 .490599
2 1 .991625 .636411 .489359
3 1 .829890 .036494 .526070
4 1 .215452 .008660 .535971
5 1 .006936 .606327 .473153
6 1 .499359 .464677 .980164
7 1 .504998 .441351 .010303
ITEM: TIMESTEP
200
ITEM: NUMBER OF ATOMS
7
ITEM: BOX BOUNDS ss ss ss
-3.1320 3.1740
-2.5247 3.5931
-2.1540 1.7905
ITEM: ATOMS id type xs ys zs
1 1 .496330 .991936 .491206
2 1 .991792 .635846 .488851
3 1 .829375 .035647 .526051
4 1 .216066 .007918 .535905
5 1 .007191 .606053 .472536
6 1 .499270 .464235 .981893
7 1 .504962 .440955 .011040
ITEM: TIMESTEP
250
ITEM: NUMBER OF ATOMS
7
ITEM: BOX BOUNDS ss ss ss
-3.1370 3.1740
-2.5279 3.5929
-2.1541 1.7905
ITEM: ATOMS id type xs ys zs
1 1 .496282 .991229 .490232
2 1 .991876 .636056 .488660
3 1 .829488 .036606 .526472
4 1 .217182 .008429 .535829
5 1 .008160 .606335 .472735
6 1 .499728 .464742 .983117
7 1 .505331 .441234 .011249
ITEM: TIMESTEP
300
ITEM: NUMBER OF ATOMS
7
ITEM: BOX BOUNDS ss ss ss
-3.1384 3.1684
-2.5281 3.5909
-2.1516 1.7905
ITEM: ATOMS id type xs ys zs
1 1 .495427 .989898 .486355
2 1 .993392 .637302 .488316
3 1 .830480 .037428 .527421
4 1 .219131 .007940 .535900
5 1 .007881 .604586 .476258
6 1 .501996 .464953 .984041
7 1 .505779 .441333 .010289
ITEM: TIMESTEP
350
ITEM: NUMBER OF ATOMS
7
ITEM: BOX BOUNDS ss ss ss
-3.1353 3.1680
-2.5300 3.5747
-2.1578 1.7848
ITEM: ATOMS id type xs ys zs
1 1 .494631 .991100 .486538
2 1 .993887 .640131 .489461
3 1 .829888 .038214 .529364
4 1 .220200 .007691 .538190
5 1 .007444 .604834 .479427
6 1 .503074 .466361 .987112
7 1 .505598 .442849 .011805
ITEM: TIMESTEP
400
ITEM: NUMBER OF ATOMS
7
ITEM: BOX BOUNDS ss ss ss
-3.1402 3.1807
-2.5361 3.5748
-2.1599 1.7865
ITEM: ATOMS id type xs ys zs
1 1 .494099 .990805 .486831
2 1 .991942 .640411 .489279
3 1 .827724 .039340 .529342
4 1 .220649 .008664 .538357
5 1 .008601 .604587 .479915
6 1 .502603 .467038 .988308
7 1 .505001 .443782 .012818
ITEM: TIMESTEP
1
ITEM: NUMBER OF ATOMS
7
ITEM: BOX BOUNDS ss ss ss
-3.1270 3.1766
-2.5397 3.5620
-2.1604 1.7822
ITEM: ATOMS id type xs ys zs
1 1 .495662 .998120 .491175
2 1 .990887 .639967 .492441
3 1 .829569 .037952 .528007
4 1 .213602 .010554 .536921
5 1 .004653 .609634 .476907
6 1 .498967 .467573 .981529
7 1 .504850 .444029 .010665
ITEM: TIMESTEP
50
ITEM: NUMBER OF ATOMS
7
ITEM: BOX BOUNDS ss ss ss
-3.1305 3.1766
-2.5355 3.5837
-2.1604 1.7822
ITEM: ATOMS id type xs ys zs
1 1 .496341 .995011 .491915
2 1 .990916 .637489 .492334
3 1 .830117 .037168 .528004
4 1 .213850 .009460 .537447
5 1 .004980 .607314 .476538
6 1 .498967 .465522 .980452
7 1 .504900 .441878 .010801
ITEM: TIMESTEP
100
ITEM: NUMBER OF ATOMS
7
ITEM: BOX BOUNDS ss ss ss
-3.1333 3.1766
-2.5244 3.5900
-2.1604 1.7822
ITEM: ATOMS id type xs ys zs
1 1 .496572 .993672 .492350
2 1 .990897 .636282 .491968
3 1 .830229 .035568 .528072
4 1 .214280 .007411 .537450
5 1 .005944 .606004 .475759
6 1 .499009 .464190 .980734
7 1 .504522 .440408 .011358
ITEM: TIMESTEP
150
ITEM: NUMBER OF ATOMS
7
ITEM: BOX BOUNDS ss ss ss
-3.1343 3.1766
-2.5316 3.5959
-2.1604 1.7797
ITEM: ATOMS id type xs ys zs
1 1 .496179 .991962 .492415
2 1 .990450 .636328 .491978
3 1 .830169 .037370 .528250
4 1 .214565 .008314 .537199
5 1 .006622 .606281 .475323
6 1 .498901 .464295 .982895
7 1 .503932 .440690 .011970
ITEM: TIMESTEP
200
ITEM: NUMBER OF ATOMS
7
ITEM: BOX BOUNDS ss ss ss
-3.1362 3.1766
-2.5261 3.5974
-2.1604 1.7797
ITEM: ATOMS id type xs ys zs
1 1 .495897 .991391 .491596
2 1 .990029 .636127 .491533
3 1 .829769 .037048 .528678
4 1 .215090 .006946 .536960
5 1 .007535 .606388 .475413
6 1 .498794 .463693 .984292
7 1 .503419 .440231 .012584
ITEM: TIMESTEP
250
ITEM: NUMBER OF ATOMS
7
ITEM: BOX BOUNDS ss ss ss
-3.1352 3.1630
-2.5482 3.5957
-2.1579 1.7797
ITEM: ATOMS id type xs ys zs
1 1 .496602 .991394 .490633
2 1 .991882 .637889 .490697
3 1 .830977 .040556 .528584
4 1 .215601 .010297 .536834
5 1 .007843 .608503 .474964
6 1 .499782 .465519 .985081
7 1 .504235 .442210 .011833
ITEM: TIMESTEP
300
ITEM: NUMBER OF ATOMS
7
ITEM: BOX BOUNDS ss ss ss
-3.1329 3.1679
-2.5421 3.6047
-2.1616 1.7794
ITEM: ATOMS id type xs ys zs
1 1 .495694 .989299 .491133
2 1 .990876 .636898 .490784
3 1 .830105 .039586 .529544
4 1 .215174 .009162 .536590
5 1 .007601 .607481 .475331
6 1 .499176 .464021 .986175
7 1 .503523 .440633 .013164
ITEM: TIMESTEP
350
ITEM: NUMBER OF ATOMS
7
ITEM: BOX BOUNDS ss ss ss
-3.1373 3.1662
-2.5463 3.5998
-2.1652 1.7761
ITEM: ATOMS id type xs ys zs
1 1 .495787 .989692 .492002
2 1 .991049 .637812 .491589
3 1 .830353 .040455 .530669
4 1 .215869 .009977 .536681
5 1 .008435 .608352 .475896
6 1 .499659 .464783 .987869
7 1 .504064 .441078 .014528
ITEM: TIMESTEP
400
ITEM: NUMBER OF ATOMS
7
ITEM: BOX BOUNDS ss ss ss
-3.1426 3.1644
-2.5438 3.5887
-2.1583 1.7871
ITEM: ATOMS id type xs ys zs
1 1 .496173 .991401 .489753
2 1 .991589 .639135 .488782
3 1 .830656 .040350 .528467
4 1 .216699 .009946 .533965
5 1 .009504 .609481 .473071
6 1 .500237 .465666 .985383
7 1 .505006 .441547 .012872
ITEM: TIMESTEP
1
ITEM: NUMBER OF ATOMS
7
ITEM: BOX BOUNDS ss ss ss
-3.1318 3.1597
-2.5453 3.5918
-2.1562 1.7749
ITEM: ATOMS id type xs ys zs
1 1 .497382 .993266 .491542
2 1 .993552 .637176 .492809
3 1 .831930 .038634 .528481
4 1 .214782 .011393 .537423
5 1 .005439 .607020 .477236
6 1 .500694 .465777 .983323
7 1 .506590 .442368 .009629
ITEM: TIMESTEP
50
ITEM: NUMBER OF ATOMS
7
ITEM: BOX BOUNDS ss ss ss
-3.1318 3.1597
-2.5453 3.5918
-2.1562 1.7749
ITEM: ATOMS id type xs ys zs
1 1 .497825 .993759 .492398
2 1 .993587 .637245 .492758
3 1 .832458 .038630 .528494
4 1 .214577 .010996 .538108
5 1 .005143 .607122 .476832
6 1 .500382 .465764 .982151
7 1 .506387 .442170 .009717
ITEM: TIMESTEP
100
ITEM: NUMBER OF ATOMS
7
ITEM: BOX BOUNDS ss ss ss
-3.1403 3.1597
-2.5453 3.5918
-2.1562 1.7749
ITEM: ATOMS id type xs ys zs
1 1 .498388 .993400 .492592
2 1 .993704 .637341 .492416
3 1 .832759 .039039 .528397
4 1 .215793 .010797 .537873
5 1 .006877 .607317 .475958
6 1 .500931 .466035 .982331
7 1 .506597 .442302 .010043
ITEM: TIMESTEP
150
ITEM: NUMBER OF ATOMS
7
ITEM: BOX BOUNDS ss ss ss
-3.1382 3.1597
-2.5453 3.5918
-2.1650 1.7749
ITEM: ATOMS id type xs ys zs
1 1 .497852 .992565 .492400
2 1 .993695 .637767 .491892
3 1 .832541 .040815 .529620
4 1 .216980 .010695 .537474
5 1 .007436 .608398 .476890
6 1 .500433 .466628 .983582
7 1 .506131 .443125 .011682
ITEM: TIMESTEP
200
ITEM: NUMBER OF ATOMS
7
ITEM: BOX BOUNDS ss ss ss
-3.1379 3.1665
-2.5453 3.5918
-2.1621 1.7749
ITEM: ATOMS id type xs ys zs
1 1 .497229 .991488 .491977
2 1 .993537 .638403 .488657
3 1 .831982 .042365 .530313
4 1 .217870 .010679 .535733
5 1 .008251 .609513 .475568
6 1 .499620 .466515 .985916
7 1 .505879 .443546 .012714
ITEM: TIMESTEP
250
ITEM: NUMBER OF ATOMS
7
ITEM: BOX BOUNDS ss ss ss
-3.1295 3.1676
-2.5453 3.5844
-2.1716 1.7749
ITEM: ATOMS id type xs ys zs
1 1 .496484 .991766 .492529
2 1 .994037 .639880 .488155
3 1 .831732 .043279 .532487
4 1 .217213 .010671 .536176
5 1 .007250 .610921 .475597
6 1 .498926 .466904 .987839
7 1 .505247 .444150 .016254
ITEM: TIMESTEP
300
ITEM: NUMBER OF ATOMS
7
ITEM: BOX BOUNDS ss ss ss
-3.1258 3.1803
-2.5453 3.5768
-2.1547 1.7763
ITEM: ATOMS id type xs ys zs
1 1 .494924 .992575 .489368
2 1 .992253 .641240 .484664
3 1 .829653 .043773 .530281
4 1 .216737 .010514 .533563
5 1 .006871 .611898 .472141
6 1 .497950 .467658 .988417
7 1 .503878 .445014 .012253
ITEM: TIMESTEP
350
ITEM: NUMBER OF ATOMS
7
ITEM: BOX BOUNDS ss ss ss
-3.1334 3.1850
-2.5453 3.5846
-2.1599 1.7808
ITEM: ATOMS id type xs ys zs
1 1 .494756 .991385 .489030
2 1 .991520 .640625 .484113
3 1 .828978 .043640 .529837
4 1 .218126 .010653 .533123
5 1 .008288 .611275 .471786
6 1 .498737 .467528 .987645
7 1 .504088 .444686 .013558
ITEM: TIMESTEP
400
ITEM: NUMBER OF ATOMS
7
ITEM: BOX BOUNDS ss ss ss
-3.1444 3.1770
-2.5358 3.5908
-2.1571 1.7820
ITEM: ATOMS id type xs ys zs
1 1 .494929 .990593 .487620
2 1 .992104 .639807 .483858
3 1 .830024 .041680 .528346
4 1 .220731 .009097 .531405
5 1 .010810 .610018 .472654
6 1 .501145 .466557 .987576
7 1 .505488 .443200 .011894
ITEM: TIMESTEP
1
ITEM: NUMBER OF ATOMS
7
ITEM: BOX BOUNDS ss ss ss
-3.1172 3.1680
-2.5228 3.5813
-2.1538 1.7722
ITEM: ATOMS id type xs ys zs
1 1 .495556 .994965 .491567
2 1 .992227 .636947 .492839
3 1 .830444 .035158 .528554
4 1 .212675 .007772 .537505
5 1 .003114 .606626 .477244
6 1 .498870 .464617 .983998
7 1 .504773 .441083 .009013
ITEM: TIMESTEP
50
ITEM: NUMBER OF ATOMS
7
ITEM: BOX BOUNDS ss ss ss
-3.1286 3.1680
-2.5228 3.5800
-2.1538 1.7722
ITEM: ATOMS id type xs ys zs
1 1 .496997 .995691 .492438
2 1 .992242 .637145 .492735
3 1 .831301 .035134 .528591
4 1 .213889 .007361 .538191
5 1 .004582 .606889 .476821
6 1 .499463 .464689 .982750
7 1 .505452 .440934 .009093
ITEM: TIMESTEP
100
ITEM: NUMBER OF ATOMS
7
ITEM: BOX BOUNDS ss ss ss
-3.1379 3.1680
-2.5283 3.5893
-2.1564 1.7722
ITEM: ATOMS id type xs ys zs
1 1 .497826 .993955 .493103
2 1 .992415 .636603 .492786
3 1 .831482 .035963 .528800
4 1 .215229 .007927 .538557
5 1 .006463 .606440 .476490
6 1 .500224 .464681 .982626
7 1 .505769 .440785 .010326
ITEM: TIMESTEP
150
ITEM: NUMBER OF ATOMS
7
ITEM: BOX BOUNDS ss ss ss
-3.1376 3.1615
-2.5333 3.5955
-2.1574 1.7722
ITEM: ATOMS id type xs ys zs
1 1 .498103 .992459 .492715
2 1 .993661 .636350 .492766
3 1 .831723 .036469 .528720
4 1 .215749 .008386 .538288
5 1 .006928 .606529 .476125
6 1 .501016 .464742 .983238
7 1 .506148 .440994 .011520
ITEM: TIMESTEP
200
ITEM: NUMBER OF ATOMS
7
ITEM: BOX BOUNDS ss ss ss
-3.1338 3.1813
-2.5336 3.6018
-2.1528 1.7722
ITEM: ATOMS id type xs ys zs
1 1 .495874 .991285 .491227
2 1 .990859 .635438 .492181
3 1 .828674 .035532 .528025
4 1 .214792 .008886 .537293
5 1 .007007 .606870 .476012
6 1 .499309 .464296 .984409
7 1 .504363 .440642 .011393
ITEM: TIMESTEP
250
ITEM: NUMBER OF ATOMS
7
ITEM: BOX BOUNDS ss ss ss
-3.1387 3.1686
-2.5399 3.5990
-2.1598 1.7722
ITEM: ATOMS id type xs ys zs
1 1 .496445 .991775 .491838
2 1 .992794 .635521 .493405
3 1 .830092 .035246 .528864
4 1 .216065 .010693 .538155
5 1 .008266 .608570 .477967
6 1 .501203 .465154 .985507
7 1 .505742 .441412 .014037
ITEM: TIMESTEP
300
ITEM: NUMBER OF ATOMS
7
ITEM: BOX BOUNDS ss ss ss
-3.1425 3.1747
-2.5375 3.6168
-2.1512 1.7727
ITEM: ATOMS id type xs ys zs
1 1 .494977 .988768 .490052
2 1 .991102 .633190 .492750
3 1 .829006 .034334 .527569
4 1 .216087 .011092 .535989
5 1 .009291 .607311 .478647
6 1 .501611 .463570 .986765
7 1 .505472 .439601 .012202
ITEM: TIMESTEP
350
ITEM: NUMBER OF ATOMS
7
ITEM: BOX BOUNDS ss ss ss
-3.1271 3.1735
-2.5337 3.5912
-2.1483 1.7667
ITEM: ATOMS id type xs ys zs
1 1 .492332 .992966 .489396
2 1 .990071 .635053 .494394
3 1 .826989 .033123 .527547
4 1 .213670 .011964 .533504
5 1 .007238 .609980 .481661
6 1 .501210 .465399 .989691
7 1 .504022 .441016 .010769
ITEM: TIMESTEP
400
ITEM: NUMBER OF ATOMS
7
ITEM: BOX BOUNDS ss ss ss
-3.1304 3.1646
-2.5114 3.5889
-2.1557 1.7686
ITEM: ATOMS id type xs ys zs
1 1 .493137 .992610 .489660
2 1 .991306 .633682 .494761
3 1 .827147 .029104 .527712
4 1 .214376 .008408 .533316
5 1 .008047 .609572 .481651
6 1 .502445 .463054 .989913
7 1 .504735 .439443 .012839
ITEM: TIMESTEP
1
ITEM: NUMBER OF ATOMS
7
ITEM: BOX BOUNDS ss ss ss
-3.1170 3.1543
-2.4992 3.5897
-2.1509 1.7675
ITEM: ATOMS id type xs ys zs
1 1 .496616 .993562 .491791
2 1 .994388 .634654 .493063
3 1 .832241 .031378 .528846
4 1 .213107 .003918 .537815
5 1 .003087 .604261 .477434
6 1 .499939 .461899 .985159
7 1 .505856 .438302 .008309
ITEM: TIMESTEP
50
ITEM: NUMBER OF ATOMS
7
ITEM: BOX BOUNDS ss ss ss
-3.1314 3.1543
-2.5074 3.5897
-2.1509 1.7675
ITEM: ATOMS id type xs ys zs
1 1 .498300 .994154 .492715
2 1 .994440 .635201 .492936
3 1 .833263 .032667 .528898
4 1 .214657 .004806 .538591
5 1 .004973 .604974 .477034
6 1 .500736 .462570 .983893
7 1 .506838 .438814 .008363
ITEM: TIMESTEP
100
ITEM: NUMBER OF ATOMS
7
ITEM: BOX BOUNDS ss ss ss
-3.1395 3.1600
-2.5178 3.5914
-2.1543 1.7675
ITEM: ATOMS id type xs ys zs
1 1 .498598 .993705 .493591
2 1 .993587 .635673 .492941
3 1 .832773 .034654 .529339
4 1 .215349 .006228 .539436
5 1 .006585 .605619 .476656
6 1 .500610 .463514 .983906
7 1 .506485 .439683 .009813
ITEM: TIMESTEP
150
ITEM: NUMBER OF ATOMS
7
ITEM: BOX BOUNDS ss ss ss
-3.1413 3.1638
-2.5184 3.5923
-2.1558 1.7675
ITEM: ATOMS id type xs ys zs
1 1 .498237 .991978 .492859
2 1 .993430 .634430 .491926
3 1 .831445 .036061 .530332
4 1 .215232 .006185 .540562
5 1 .007719 .606485 .475558
6 1 .500260 .463598 .986081
7 1 .505010 .439723 .010834
ITEM: TIMESTEP
200
ITEM: NUMBER OF ATOMS
7
ITEM: BOX BOUNDS ss ss ss
-3.1392 3.1660
-2.5226 3.5943
-2.1545 1.7675
ITEM: ATOMS id type xs ys zs
1 1 .498143 .990996 .492671
2 1 .993411 .633885 .490859
3 1 .830740 .037314 .530960
4 1 .215053 .006700 .540528
5 1 .007808 .607449 .473774
6 1 .499731 .463743 .987392
7 1 .504237 .440037 .010910
ITEM: TIMESTEP
250
ITEM: NUMBER OF ATOMS
7
ITEM: BOX BOUNDS ss ss ss
-3.1401 3.1669
-2.5334 3.5891
-2.1563 1.7722
ITEM: ATOMS id type xs ys zs
1 1 .498552 .991627 .492256
2 1 .993381 .635391 .490343
3 1 .830589 .039368 .530331
4 1 .215676 .008634 .539973
5 1 .008047 .609501 .472681
6 1 .499599 .465462 .987404
7 1 .503928 .441501 .012107
ITEM: TIMESTEP
300
ITEM: NUMBER OF ATOMS
7
ITEM: BOX BOUNDS ss ss ss
-3.1382 3.1739
-2.5399 3.5918
-2.1605 1.7845
ITEM: ATOMS id type xs ys zs
1 1 .498391 .990605 .490809
2 1 .992642 .636184 .489447
3 1 .829367 .041544 .527978
4 1 .215994 .010443 .537728
5 1 .007471 .611171 .472073
6 1 .498682 .466580 .986195
7 1 .502684 .442197 .014480
ITEM: TIMESTEP
350
ITEM: NUMBER OF ATOMS
7
ITEM: BOX BOUNDS ss ss ss
-3.1394 3.1730
-2.5282 3.5924
-2.1507 1.7831
ITEM: ATOMS id type xs ys zs
1 1 .498460 .990355 .489493
2 1 .992692 .635401 .488765
3 1 .829124 .040199 .525768
4 1 .216733 .009322 .535831
5 1 .007804 .611409 .471099
6 1 .498565 .465636 .987642
7 1 .502870 .441917 .012143
ITEM: TIMESTEP
400
ITEM: NUMBER OF ATOMS
7
ITEM: BOX BOUNDS ss ss ss
-3.1455 3.1775
-2.5266 3.5817
-2.1617 1.7857
ITEM: ATOMS id type xs ys zs
1 1 .498254 .992038 .491331
2 1 .991174 .635999 .490328
3 1 .828136 .039420 .527067
4 1 .217397 .009624 .535744
5 1 .009140 .613080 .472760
6 1 .498443 .466047 .987476
7 1 .503099 .443407 .014532
ITEM: TIMESTEP
1
ITEM: NUMBER OF ATOMS
7
ITEM: BOX BOUNDS ss ss ss
-3.1432 3.1805
-2.5244 3.5919
-2.1558 1.7869
ITEM: ATOMS id type xs ys zs
1 1 .496649 .993240 .490009
2 1 .990297 .635942 .491269
3 1 .829498 .035359 .526836
4 1 .215484 .008024 .535752
5 1 .007202 .605682 .475739
6 1 .499942 .463959 .980346
7 1 .505809 .440468 .009495
ITEM: TIMESTEP
50
ITEM: NUMBER OF ATOMS
7
ITEM: BOX BOUNDS ss ss ss
-3.1432 3.1805
-2.5244 3.5919
-2.1534 1.7869
ITEM: ATOMS id type xs ys zs
1 1 .497210 .993904 .490670
2 1 .990318 .635995 .490845
3 1 .830158 .035311 .526587
4 1 .215226 .007534 .536248
5 1 .006767 .605822 .475000
6 1 .499615 .463883 .978964
7 1 .505624 .440181 .008943
ITEM: TIMESTEP
100
ITEM: NUMBER OF ATOMS
7
ITEM: BOX BOUNDS ss ss ss
-3.1384 3.1805
-2.5244 3.5919
-2.1544 1.7869
ITEM: ATOMS id type xs ys zs
1 1 .496969 .993755 .491442
2 1 .990459 .635989 .490760
3 1 .830098 .035291 .526640
4 1 .214668 .007149 .536553
5 1 .006420 .605952 .474372
6 1 .498956 .463929 .978696
7 1 .504665 .440178 .009710
ITEM: TIMESTEP
150
ITEM: NUMBER OF ATOMS
7
ITEM: BOX BOUNDS ss ss ss
-3.1433 3.1805
-2.5244 3.6085
-2.1584 1.7869
ITEM: ATOMS id type xs ys zs
1 1 .497130 .989899 .491757
2 1 .990742 .633745 .491744
3 1 .829897 .035591 .526612
4 1 .216089 .006363 .536700
5 1 .007215 .604449 .474071
6 1 .498794 .462314 .979561
7 1 .504316 .439486 .011213
ITEM: TIMESTEP
200
ITEM: NUMBER OF ATOMS
7
ITEM: BOX BOUNDS ss ss ss
-3.1548 3.1805
-2.5366 3.6062
-2.1647 1.7778
ITEM: ATOMS id type xs ys zs
1 1 .498047 .989552 .493622
2 1 .990766 .634205 .493866
3 1 .829685 .037543 .528148
4 1 .218158 .007739 .538295
5 1 .008649 .605317 .474762
6 1 .499225 .463345 .982619
7 1 .504846 .441409 .013492
ITEM: TIMESTEP
250
ITEM: NUMBER OF ATOMS
7
ITEM: BOX BOUNDS ss ss ss
-3.1507 3.1805
-2.5526 3.6074
-2.1658 1.7778
ITEM: ATOMS id type xs ys zs
1 1 .497851 .989483 .494164
2 1 .990561 .634848 .493172
3 1 .828991 .039497 .527869
4 1 .217039 .010352 .537201
5 1 .008386 .606397 .473407
6 1 .498687 .464439 .983578
7 1 .504760 .442564 .014585
ITEM: TIMESTEP
300
ITEM: NUMBER OF ATOMS
7
ITEM: BOX BOUNDS ss ss ss
-3.1522 3.1695
-2.5448 3.6189
-2.1606 1.7778
ITEM: ATOMS id type xs ys zs
1 1 .498319 .988093 .494336
2 1 .991813 .633526 .490877
3 1 .829588 .037784 .527334
4 1 .216768 .009522 .535450
5 1 .009513 .604970 .472175
6 1 .499959 .463491 .984371
7 1 .506273 .440546 .013312
ITEM: TIMESTEP
350
ITEM: NUMBER OF ATOMS
7
ITEM: BOX BOUNDS ss ss ss
-3.1457 3.1638
-2.5545 3.6195
-2.1526 1.7736
ITEM: ATOMS id type xs ys zs
1 1 .497529 .988006 .493617