ITEM: TIMESTEP
1
ITEM: NUMBER OF ATOMS
7
ITEM: BOX BOUNDS ss ss ss
-3.2993 2.9462
-2.5483 3.2641
-1.9171 1.9994
ITEM: ATOMS id type xs ys zs
1 1 .505284 .999493 .466704
2 1 .999341 .619794 .497932
3 1 .797572 .000544 .543259
4 1 .182110 .001499 .491722
5 1 .000718 .623710 .482970
6 1 .498930 .464386 .998948
7 1 .500437 .433915 .000968
ITEM: TIMESTEP
50
ITEM: NUMBER OF ATOMS
7
ITEM: BOX BOUNDS ss ss ss
-3.3289 2.9717
-2.5740 3.2859
-1.9470 2.0289
ITEM: ATOMS id type xs ys zs
1 1 .504964 .997190 .468271
2 1 .995211 .619549 .498212
3 1 .796729 .004579 .542628
4 1 .185353 .005343 .494748
5 1 .006423 .622946 .481910
6 1 .497087 .463689 .991917
7 1 .502164 .435355 .008321
ITEM: TIMESTEP
100
ITEM: NUMBER OF ATOMS
7
ITEM: BOX BOUNDS ss ss ss
-3.3285 2.9904
-2.5891 3.2989
-1.9515 2.0365
ITEM: ATOMS id type xs ys zs
1 1 .503912 .996663 .466697
2 1 .990985 .619093 .498703
3 1 .792554 .004399 .542237
4 1 .184806 .009437 .495414
5 1 .005792 .624252 .484346
6 1 .494689 .464786 .988856
7 1 .502279 .436283 .009145
ITEM: TIMESTEP
150
ITEM: NUMBER OF ATOMS
7
ITEM: BOX BOUNDS ss ss ss
-3.3355 2.9913
-2.5891 3.3109
-1.9525 2.0397
ITEM: ATOMS id type xs ys zs
1 1 .502130 .994755 .466497
2 1 .990908 .618820 .495729
3 1 .794354 .003772 .543157
4 1 .185352 .006747 .495648
5 1 .006342 .625399 .483546
6 1 .491145 .461700 .986517
7 1 .502277 .434893 .011241
ITEM: TIMESTEP
200
ITEM: NUMBER OF ATOMS
7
ITEM: BOX BOUNDS ss ss ss
-3.3326 2.9858
-2.5998 3.3209
-1.9640 2.0395
ITEM: ATOMS id type xs ys zs
1 1 .502048 .995739 .466723
2 1 .991432 .616647 .498713
3 1 .794874 .005301 .543670
4 1 .186415 .008967 .496559
5 1 .007614 .626008 .480057
6 1 .492483 .463384 .987333
7 1 .502085 .436861 .011399
ITEM: TIMESTEP
250
ITEM: NUMBER OF ATOMS
7
ITEM: BOX BOUNDS ss ss ss
-3.3349 2.9823
-2.6046 3.3235
-1.9607 2.0413
ITEM: ATOMS id type xs ys zs
1 1 .503576 .996026 .466976
2 1 .991291 .617720 .500261
3 1 .796288 .006574 .542061
4 1 .186605 .010294 .498172
5 1 .008970 .623841 .486552
6 1 .492572 .460651 .986908
7 1 .503107 .438026 .012377
ITEM: TIMESTEP
300
ITEM: NUMBER OF ATOMS
7
ITEM: BOX BOUNDS ss ss ss
-3.3349 2.9765
-2.6094 3.3400
-1.9711 2.0468
ITEM: ATOMS id type xs ys zs
1 1 .505253 .992253 .465146
2 1 .994551 .612472 .497825
3 1 .795395 .006419 .542347
4 1 .188659 .011942 .500906
5 1 .008788 .622312 .477003
6 1 .491849 .461272 .983507
7 1 .504732 .437449 .013191
ITEM: TIMESTEP
350
ITEM: NUMBER OF ATOMS
7
ITEM: BOX BOUNDS ss ss ss
-3.3240 2.9781
-2.6156 3.3499
-1.9621 2.0428
ITEM: ATOMS id type xs ys zs
1 1 .502817 .992226 .466582
2 1 .991716 .613074 .500133
3 1 .795148 .007123 .540485
4 1 .186768 .011320 .502962
5 1 .006975 .620660 .480906
6 1 .491141 .460261 .983748
7 1 .503710 .436200 .014525
ITEM: TIMESTEP
400
ITEM: NUMBER OF ATOMS
7
ITEM: BOX BOUNDS ss ss ss
-3.3255 2.9782
-2.6199 3.3537
-1.9627 2.0350
ITEM: ATOMS id type xs ys zs
1 1 .501916 .992401 .471390
2 1 .990183 .611585 .502261
3 1 .796218 .007015 .541404
4 1 .187789 .011976 .508800
5 1 .008053 .619537 .486370
6 1 .490111 .459088 .988367
7 1 .503291 .435391 .015500
ITEM: TIMESTEP
1
ITEM: NUMBER OF ATOMS
7
ITEM: BOX BOUNDS ss ss ss
-3.3127 2.9528
-2.5993 3.3416
-1.9435 2.0140
ITEM: ATOMS id type xs ys zs
1 1 .505810 .986471 .468540
2 1 .998274 .614980 .499410
3 1 .797151 .009120 .544249
4 1 .183670 .010049 .493284
5 1 .002868 .618800 .484632
6 1 .499486 .462919 .995265
7 1 .500998 .433124 .007609
ITEM: TIMESTEP
50
ITEM: NUMBER OF ATOMS
7
ITEM: BOX BOUNDS ss ss ss
-3.3241 2.9689
-2.5993 3.3416
-1.9435 2.0257
ITEM: ATOMS id type xs ys zs
1 1 .504434 .987953 .467562
2 1 .995251 .614436 .499353
3 1 .796662 .008210 .542207
4 1 .186318 .009437 .494436
5 1 .005375 .618831 .486199
6 1 .497387 .463425 .994567
7 1 .501067 .434900 .008322
ITEM: TIMESTEP
100
ITEM: NUMBER OF ATOMS
7
ITEM: BOX BOUNDS ss ss ss
-3.3367 2.9870
-2.5993 3.3416
-1.9497 2.0376
ITEM: ATOMS id type xs ys zs
1 1 .504675 .989545 .465689
2 1 .992257 .613628 .498870
3 1 .794321 .006101 .539358
4 1 .185929 .009363 .492432
5 1 .009303 .620717 .482080
6 1 .496343 .459378 .989712
7 1 .500863 .434667 .010128
ITEM: TIMESTEP
150
ITEM: NUMBER OF ATOMS
7
ITEM: BOX BOUNDS ss ss ss
-3.3356 3.0033
-2.5993 3.3416
-1.9587 2.0495
ITEM: ATOMS id type xs ys zs
1 1 .502947 .989907 .469582
2 1 .989620 .614430 .497420
3 1 .791893 .006423 .538440
4 1 .184966 .010299 .493575
5 1 .007916 .621617 .482684
6 1 .492068 .459442 .986961
7 1 .501411 .435708 .011441
ITEM: TIMESTEP
200
ITEM: NUMBER OF ATOMS
7
ITEM: BOX BOUNDS ss ss ss
-3.3408 2.9893
-2.5993 3.3416
-1.9565 2.0519
ITEM: ATOMS id type xs ys zs
1 1 .504314 .990845 .470890
2 1 .990519 .613174 .501092
3 1 .792943 .005647 .539681
4 1 .186585 .009853 .494126
5 1 .010053 .620620 .481441
6 1 .492894 .458807 .984877
7 1 .504116 .437019 .009869
ITEM: TIMESTEP
250
ITEM: NUMBER OF ATOMS
7
ITEM: BOX BOUNDS ss ss ss
-3.3364 2.9823
-2.6024 3.3416
-1.9565 2.0469
ITEM: ATOMS id type xs ys zs
1 1 .505519 .990697 .470148
2 1 .991233 .613006 .499229
3 1 .792006 .004985 .534614
4 1 .187277 .009616 .495578
5 1 .009899 .624049 .480206
6 1 .493678 .458992 .985245
7 1 .503786 .436995 .010831
ITEM: TIMESTEP
300
ITEM: NUMBER OF ATOMS
7
ITEM: BOX BOUNDS ss ss ss
-3.3391 2.9757
-2.6124 3.3416
-1.9628 2.0398
ITEM: ATOMS id type xs ys zs
1 1 .506117 .994914 .473937
2 1 .991758 .613748 .503472
3 1 .793182 .005060 .538757
4 1 .185804 .013342 .497491
5 1 .010346 .624138 .481345
6 1 .491794 .458855 .985028
7 1 .505015 .441376 .009701
ITEM: TIMESTEP
350
ITEM: NUMBER OF ATOMS
7
ITEM: BOX BOUNDS ss ss ss
-3.3373 2.9751
-2.6068 3.3416
-1.9596 2.0498
ITEM: ATOMS id type xs ys zs
1 1 .505913 .994794 .473695
2 1 .992327 .612811 .500928
3 1 .794155 .002340 .537686
4 1 .187978 .011934 .498725
5 1 .009606 .623474 .477917
6 1 .493447 .459136 .982214
7 1 .504756 .438177 .009651
ITEM: TIMESTEP
400
ITEM: NUMBER OF ATOMS
7
ITEM: BOX BOUNDS ss ss ss
-3.3447 2.9840
-2.6182 3.3448
-1.9623 2.0475
ITEM: ATOMS id type xs ys zs
1 1 .506861 .994137 .470070
2 1 .991770 .612342 .504298
3 1 .792724 .005884 .535931
4 1 .189294 .013370 .497557
5 1 .011220 .624451 .474833
6 1 .492016 .460768 .981703
7 1 .504492 .439796 .009292
ITEM: TIMESTEP
1
ITEM: NUMBER OF ATOMS
7
ITEM: BOX BOUNDS ss ss ss
-3.3116 2.9511
-2.6098 3.3323
-1.9424 2.0153
ITEM: ATOMS id type xs ys zs
1 1 .505849 .988001 .468216
2 1 .998526 .616617 .499143
3 1 .797330 .010870 .543991
4 1 .183568 .011790 .493008
5 1 .002676 .620431 .484305
6 1 .499518 .464568 .994955
7 1 .501035 .434791 .007358
ITEM: TIMESTEP
50
ITEM: NUMBER OF ATOMS
7
ITEM: BOX BOUNDS ss ss ss
-3.3247 2.9708
-2.6098 3.3323
-1.9424 2.0232
ITEM: ATOMS id type xs ys zs
1 1 .505407 .989832 .467687
2 1 .995115 .615230 .499485
3 1 .794943 .010603 .543829
4 1 .183142 .011134 .494603
5 1 .006141 .619666 .482683
6 1 .496742 .464343 .991930
7 1 .500764 .435733 .004828
ITEM: TIMESTEP
100
ITEM: NUMBER OF ATOMS
7
ITEM: BOX BOUNDS ss ss ss
-3.3323 2.9834
-2.6098 3.3323
-1.9522 2.0342
ITEM: ATOMS id type xs ys zs
1 1 .503639 .992541 .469242
2 1 .993927 .616875 .497189
3 1 .793385 .010306 .539989
4 1 .185270 .011416 .496361
5 1 .007914 .621527 .482924
6 1 .496858 .465802 .990993
7 1 .502271 .434482 .011073
ITEM: TIMESTEP
150
ITEM: NUMBER OF ATOMS
7
ITEM: BOX BOUNDS ss ss ss
-3.3302 2.9920
-2.6098 3.3323
-1.9636 2.0371
ITEM: ATOMS id type xs ys zs
1 1 .503589 .991654 .470157
2 1 .991671 .616555 .496638
3 1 .793212 .009900 .543215
4 1 .186441 .012249 .500810
5 1 .008539 .620821 .487320
6 1 .495047 .462549 .990919
7 1 .499491 .434512 .014080
ITEM: TIMESTEP
200
ITEM: NUMBER OF ATOMS
7
ITEM: BOX BOUNDS ss ss ss
-3.3363 2.9933
-2.6098 3.3323
-1.9717 2.0421
ITEM: ATOMS id type xs ys zs
1 1 .503476 .992090 .464454
2 1 .990570 .616451 .498541
3 1 .792188 .008345 .538940
4 1 .187887 .011097 .495777
5 1 .008045 .621228 .490393
6 1 .492820 .461741 .988429
7 1 .501199 .437574 .012249
ITEM: TIMESTEP
250
ITEM: NUMBER OF ATOMS
7
ITEM: BOX BOUNDS ss ss ss
-3.3335 2.9926
-2.6098 3.3323
-1.9734 2.0407
ITEM: ATOMS id type xs ys zs
1 1 .501405 .992672 .462938
2 1 .989577 .614407 .500800
3 1 .792917 .008799 .539911
4 1 .188457 .010416 .496412
5 1 .007765 .620097 .488893
6 1 .492593 .461395 .987456
7 1 .501237 .438266 .011828
ITEM: TIMESTEP
300
ITEM: NUMBER OF ATOMS
7
ITEM: BOX BOUNDS ss ss ss
-3.3289 3.0009
-2.6098 3.3387
-1.9757 2.0425
ITEM: ATOMS id type xs ys zs
1 1 .500579 .993672 .466456
2 1 .987247 .614096 .497882
3 1 .791668 .009612 .539388
4 1 .186611 .010788 .502708
5 1 .008096 .620510 .488092
6 1 .492461 .463819 .986929
7 1 .500005 .439136 .013037
ITEM: TIMESTEP
350
ITEM: NUMBER OF ATOMS
7
ITEM: BOX BOUNDS ss ss ss
-3.3243 2.9921
-2.6069 3.3503
-1.9701 2.0336
ITEM: ATOMS id type xs ys zs
1 1 .501661 .993271 .467913
2 1 .988477 .612522 .498382
3 1 .791869 .006657 .542540
4 1 .187008 .008478 .500236
5 1 .006181 .620372 .482688
6 1 .489986 .462060 .988739
7 1 .500009 .437120 .012679
ITEM: TIMESTEP
400
ITEM: NUMBER OF ATOMS
7
ITEM: BOX BOUNDS ss ss ss
-3.3252 2.9808
-2.6083 3.3475
-1.9734 2.0418
ITEM: ATOMS id type xs ys zs
1 1 .502928 .993339 .466341
2 1 .990110 .612505 .499496
3 1 .794317 .006517 .536560
4 1 .188986 .009678 .501391
5 1 .007471 .621003 .489010
6 1 .492734 .459981 .988029
7 1 .501604 .439009 .011531
ITEM: TIMESTEP
1
ITEM: NUMBER OF ATOMS
7
ITEM: BOX BOUNDS ss ss ss
-3.3092 2.9508
-2.6014 3.3376
-1.9575 2.0288
ITEM: ATOMS id type xs ys zs
1 1 .505688 .987132 .468681
2 1 .998612 .615520 .499354
3 1 .797293 .009474 .543869
4 1 .183258 .010376 .493278
5 1 .002311 .619346 .484645
6 1 .499349 .463424 .991595
7 1 .500851 .433602 .011098
ITEM: TIMESTEP
50
ITEM: NUMBER OF ATOMS
7
ITEM: BOX BOUNDS ss ss ss
-3.3236 2.9718
-2.6014 3.3376
-1.9575 2.0288
ITEM: ATOMS id type xs ys zs
1 1 .504304 .987965 .469078
2 1 .995523 .615498 .500240
3 1 .796105 .008641 .543713
4 1 .185843 .009327 .495489
5 1 .005657 .619924 .482497
6 1 .497895 .462849 .991580
7 1 .501125 .434264 .009152
ITEM: TIMESTEP
100
ITEM: NUMBER OF ATOMS
7
ITEM: BOX BOUNDS ss ss ss
-3.3305 2.9849
-2.6014 3.3376
-1.9575 2.0353
ITEM: ATOMS id type xs ys zs
1 1 .504619 .989781 .471665
2 1 .993345 .614742 .498215
3 1 .794515 .006845 .546300
4 1 .187628 .010377 .494389
5 1 .006244 .620889 .482308
6 1 .496105 .461691 .989344
7 1 .502680 .432203 .008082
ITEM: TIMESTEP
150
ITEM: NUMBER OF ATOMS
7
ITEM: BOX BOUNDS ss ss ss
-3.3329 2.9920
-2.6014 3.3376
-1.9616 2.0490
ITEM: ATOMS id type xs ys zs
1 1 .503466 .989721 .469522
2 1 .991220 .614494 .497648
3 1 .792209 .005768 .544718
4 1 .186994 .009240 .495042
5 1 .007402 .620567 .480839
6 1 .495661 .462121 .985756
7 1 .501906 .433480 .006782
ITEM: TIMESTEP
200
ITEM: NUMBER OF ATOMS
7
ITEM: BOX BOUNDS ss ss ss
-3.3339 3.0033
-2.6014 3.3376
-1.9664 2.0509
ITEM: ATOMS id type xs ys zs
1 1 .501500 .990480 .468584
2 1 .990128 .612476 .495480
3 1 .791216 .004588 .542114
4 1 .182442 .009481 .495997
5 1 .006238 .623543 .481700
6 1 .490585 .460824 .986347
7 1 .504153 .434502 .014243
ITEM: TIMESTEP
250
ITEM: NUMBER OF ATOMS
7
ITEM: BOX BOUNDS ss ss ss
-3.3368 3.0020
-2.6014 3.3376
-1.9679 2.0506
ITEM: ATOMS id type xs ys zs
1 1 .502219 .994176 .467017
2 1 .989600 .615542 .496212
3 1 .791044 .004428 .539452
4 1 .184853 .009758 .492273
5 1 .007169 .622088 .483950
6 1 .492662 .460208 .983690
7 1 .501671 .438005 .016224
ITEM: TIMESTEP
300
ITEM: NUMBER OF ATOMS
7
ITEM: BOX BOUNDS ss ss ss
-3.3310 2.9898
-2.6122 3.3376
-1.9602 2.0498
ITEM: ATOMS id type xs ys zs
1 1 .502220 .994716 .463547
2 1 .990578 .617025 .491878
3 1 .792546 .006896 .541017
4 1 .186415 .009695 .493854
5 1 .009219 .621772 .479398
6 1 .492785 .460191 .984002
7 1 .502265 .437759 .012013
ITEM: TIMESTEP
350
ITEM: NUMBER OF ATOMS
7
ITEM: BOX BOUNDS ss ss ss
-3.3275 2.9879
-2.6094 3.3510
-1.9629 2.0425
ITEM: ATOMS id type xs ys zs
1 1 .502312 .992313 .468288
2 1 .991094 .611525 .497848
3 1 .791954 .005285 .537426
4 1 .186366 .009865 .494511
5 1 .006228 .622074 .485816
6 1 .490644 .460502 .982532
7 1 .502824 .439489 .013979
ITEM: TIMESTEP
400
ITEM: NUMBER OF ATOMS
7
ITEM: BOX BOUNDS ss ss ss
-3.3296 2.9818
-2.6168 3.3623
-1.9603 2.0298
ITEM: ATOMS id type xs ys zs
1 1 .503380 .991068 .471219
2 1 .992159 .611008 .499008
3 1 .793173 .007670 .539159
4 1 .187523 .010265 .496229
5 1 .006336 .620551 .483910
6 1 .491617 .459068 .987041
7 1 .503440 .438799 .011090
ITEM: TIMESTEP
1
ITEM: NUMBER OF ATOMS
7
ITEM: BOX BOUNDS ss ss ss
-3.3092 2.9508
-2.6014 3.3383
-1.9575 2.0288
ITEM: ATOMS id type xs ys zs
1 1 .505678 .987022 .468675
2 1 .998606 .615444 .499361
3 1 .797296 .009454 .543877
4 1 .183295 .010394 .493253
5 1 .002290 .619271 .484634
6 1 .499335 .463378 .991577
7 1 .500866 .433539 .011102
ITEM: TIMESTEP
50
ITEM: NUMBER OF ATOMS
7
ITEM: BOX BOUNDS ss ss ss
-3.3226 2.9728
-2.6014 3.3383
-1.9575 2.0288
ITEM: ATOMS id type xs ys zs
1 1 .504596 .988046 .468975
2 1 .994636 .615316 .499143
3 1 .794953 .010024 .544079
4 1 .184479 .010260 .495300
5 1 .004449 .620196 .485150
6 1 .496538 .462134 .992075
7 1 .501212 .434194 .009223
ITEM: TIMESTEP
100
ITEM: NUMBER OF ATOMS
7
ITEM: BOX BOUNDS ss ss ss
-3.3312 2.9868
-2.6014 3.3383
-1.9575 2.0415
ITEM: ATOMS id type xs ys zs
1 1 .500084 .990436 .466747
2 1 .993084 .615534 .495157
3 1 .794150 .007725 .542559
4 1 .186820 .011530 .493004
5 1 .005368 .617979 .484941
6 1 .494968 .463249 .986088
7 1 .503565 .436021 .008920
ITEM: TIMESTEP
150
ITEM: NUMBER OF ATOMS
7
ITEM: BOX BOUNDS ss ss ss
-3.3447 2.9868
-2.6014 3.3383
-1.9575 2.0368
ITEM: ATOMS id type xs ys zs
1 1 .502716 .991169 .463822
2 1 .992162 .615800 .489826
3 1 .794077 .007644 .540477
4 1 .189760 .009169 .496692
5 1 .007434 .618058 .485076
6 1 .495584 .463373 .985984
7 1 .504545 .433602 .007560
ITEM: TIMESTEP
200
ITEM: NUMBER OF ATOMS
7
ITEM: BOX BOUNDS ss ss ss
-3.3535 2.9886
-2.6014 3.3383
-1.9603 2.0382
ITEM: ATOMS id type xs ys zs
1 1 .503513 .991562 .467137
2 1 .991791 .615614 .495064
3 1 .795180 .007039 .541623
4 1 .190325 .009055 .498724
5 1 .008159 .617013 .483899
6 1 .495684 .462580 .984056
7 1 .503837 .436708 .009098
ITEM: TIMESTEP
250
ITEM: NUMBER OF ATOMS
7
ITEM: BOX BOUNDS ss ss ss
-3.3423 2.9877
-2.6034 3.3383
-1.9623 2.0349
ITEM: ATOMS id type xs ys zs
1 1 .500733 .991416 .467103
2 1 .990733 .613482 .498594
3 1 .794651 .006593 .545130
4 1 .190359 .010851 .496289
5 1 .007718 .618355 .485650
6 1 .493015 .461733 .987391
7 1 .503237 .437572 .009271
ITEM: TIMESTEP
300
ITEM: NUMBER OF ATOMS
7
ITEM: BOX BOUNDS ss ss ss
-3.3456 2.9920
-2.6014 3.3383
-1.9664 2.0364
ITEM: ATOMS id type xs ys zs
1 1 .501964 .992248 .464580
2 1 .991476 .613403 .498921
3 1 .793712 .006753 .543164
4 1 .191226 .009771 .502236
5 1 .008288 .619286 .484280
6 1 .494043 .463625 .985673
7 1 .503999 .437377 .009604
ITEM: TIMESTEP
350
ITEM: NUMBER OF ATOMS
7
ITEM: BOX BOUNDS ss ss ss
-3.3433 2.9884
-2.6080 3.3376
-1.9661 2.0354
ITEM: ATOMS id type xs ys zs
1 1 .501921 .992748 .465494
2 1 .989355 .613967 .494051
3 1 .795303 .007445 .542927
4 1 .191751 .010250 .504923
5 1 .005573 .619539 .486267
6 1 .492725 .460894 .984591
7 1 .502020 .437114 .009719
ITEM: TIMESTEP
400
ITEM: NUMBER OF ATOMS
7
ITEM: BOX BOUNDS ss ss ss
-3.3512 2.9917
-2.6098 3.3376
-1.9741 2.0371
ITEM: ATOMS id type xs ys zs
1 1 .502190 .993841 .466492
2 1 .989181 .613132 .498135
3 1 .794780 .007865 .543479
4 1 .192630 .008556 .507378
5 1 .008951 .618825 .486292
6 1 .492069 .463535 .984400
7 1 .503261 .436457 .011188
ITEM: TIMESTEP
1
ITEM: NUMBER OF ATOMS
7
ITEM: BOX BOUNDS ss ss ss
-3.3239 2.9696
-2.6014 3.3376
-1.9575 2.0288
ITEM: ATOMS id type xs ys zs
1 1 .505324 .987140 .468626
2 1 .995597 .615500 .499331
3 1 .795390 .009484 .543867
4 1 .184659 .010381 .493306
5 1 .004630 .619364 .484649
6 1 .498996 .463409 .991554
7 1 .500510 .433602 .011072
ITEM: TIMESTEP
50
ITEM: NUMBER OF ATOMS
7
ITEM: BOX BOUNDS ss ss ss
-3.3256 2.9746
-2.6014 3.3376
-1.9575 2.0288
ITEM: ATOMS id type xs ys zs
1 1 .505563 .988129 .467871
2 1 .995350 .613732 .500024
3 1 .793344 .009675 .545312
4 1 .185337 .011003 .495278
5 1 .006391 .620818 .486799
6 1 .496629 .464504 .991985
7 1 .501778 .433310 .010468
ITEM: TIMESTEP
100
ITEM: NUMBER OF ATOMS
7
ITEM: BOX BOUNDS ss ss ss
-3.3312 2.9916
-2.6014 3.3376
-1.9575 2.0360
ITEM: ATOMS id type xs ys zs
1 1 .504988 .988347 .465362
2 1 .990752 .613135 .500887
3 1 .792324 .009227 .545064
4 1 .186669 .010780 .495261
5 1 .011004 .621410 .486940
6 1 .495443 .462693 .988993
7 1 .501741 .432705 .012397
ITEM: TIMESTEP
150
ITEM: NUMBER OF ATOMS
7
ITEM: BOX BOUNDS ss ss ss
-3.3414 2.9939
-2.6014 3.3376
-1.9587 2.0430
ITEM: ATOMS id type xs ys zs
1 1 .504040 .990087 .466059
2 1 .992761 .611376 .496882
3 1 .789104 .007673 .542530
4 1 .185867 .011659 .490987
5 1 .011656 .622455 .483343
6 1 .495326 .463301 .990942
7 1 .504230 .436264 .008584
ITEM: TIMESTEP
200
ITEM: NUMBER OF ATOMS
7
ITEM: BOX BOUNDS ss ss ss
-3.3442 2.9995
-2.6014 3.3376
-1.9690 2.0503
ITEM: ATOMS id type xs ys zs
1 1 .504843 .991140 .463812
2 1 .990942 .610792 .498550
3 1 .788332 .006618 .544528
4 1 .185891 .012735 .495541
5 1 .012060 .622487 .483963
6 1 .494728 .466123 .990429
7 1 .504876 .435588 .010061
ITEM: TIMESTEP
250
ITEM: NUMBER OF ATOMS
7
ITEM: BOX BOUNDS ss ss ss
-3.3275 2.9993
-2.6014 3.3376
-1.9713 2.0588
ITEM: ATOMS id type xs ys zs
1 1 .500047 .991279 .465200
2 1 .989497 .612533 .497105
3 1 .787233 .006678 .541310
4 1 .184900 .010190 .492540
5 1 .007028 .620092 .482524
6 1 .491898 .463214 .982113
7 1 .500929 .436925 .010297
ITEM: TIMESTEP
300
ITEM: NUMBER OF ATOMS
7
ITEM: BOX BOUNDS ss ss ss
-3.3239 3.0007
-2.6035 3.3376
-1.9835 2.0618
ITEM: ATOMS id type xs ys zs
1 1 .500381 .992445 .465241
2 1 .988826 .613244 .493345
3 1 .785926 .005282 .542275
4 1 .185009 .011078 .495718
5 1 .007854 .623043 .484599
6 1 .491025 .462981 .982612
7 1 .499796 .438691 .012093
ITEM: TIMESTEP
350
ITEM: NUMBER OF ATOMS
7
ITEM: BOX BOUNDS ss ss ss
-3.3239 2.9900
-2.6212 3.3382
-1.9812 2.0571
ITEM: ATOMS id type xs ys zs
1 1 .501998 .993019 .464276
2 1 .990852 .613936 .494229
3 1 .788378 .007146 .541692
4 1 .185057 .014129 .498801
5 1 .008072 .623527 .483899
6 1 .491879 .463652 .984078
7 1 .500964 .440057 .012882
ITEM: TIMESTEP
400
ITEM: NUMBER OF ATOMS
7
ITEM: BOX BOUNDS ss ss ss
-3.3239 2.9889
-2.6103 3.3376
-1.9794 2.0668
ITEM: ATOMS id type xs ys zs
1 1 .502682 .994274 .462456
2 1 .990055 .613873 .495695
3 1 .789837 .005911 .540768
4 1 .186437 .014128 .498626
5 1 .008340 .623149 .484698
6 1 .492232 .464247 .983260
7 1 .501386 .440213 .013419
ITEM: TIMESTEP
1
ITEM: NUMBER OF ATOMS
7
ITEM: BOX BOUNDS ss ss ss
-3.3092 2.9566
-2.6014 3.3376
-1.9580 2.0288
ITEM: ATOMS id type xs ys zs
1 1 .505217 .987144 .468740
2 1 .997668 .615548 .499418
3 1 .796551 .009443 .543925
4 1 .183097 .010404 .493303
5 1 .002321 .619348 .484735
6 1 .498875 .463415 .991591
7 1 .500409 .433615 .011212
ITEM: TIMESTEP
50
ITEM: NUMBER OF ATOMS
7
ITEM: BOX BOUNDS ss ss ss
-3.3279 2.9721
-2.6014 3.3376
-1.9580 2.0310
ITEM: ATOMS id type xs ys zs
1 1 .505514 .988336 .467912
2 1 .994601 .614723 .499009
3 1 .794204 .007913 .544750
4 1 .185302 .011125 .492452
5 1 .006626 .619055 .486104
6 1 .497711 .461940 .992897
7 1 .502435 .433584 .013181
ITEM: TIMESTEP
100
ITEM: NUMBER OF ATOMS
7
ITEM: BOX BOUNDS ss ss ss
-3.3360 2.9915
-2.6014 3.3376
-1.9580 2.0356
ITEM: ATOMS id type xs ys zs
1 1 .504927 .988245 .467266
2 1 .990351 .615291 .498598
3 1 .791679 .005450 .544276
4 1 .186672 .009166 .492752
5 1 .008554 .618534 .487414
6 1 .494887 .460642 .991179
7 1 .501694 .435089 .012503
ITEM: TIMESTEP
150
ITEM: NUMBER OF ATOMS
7
ITEM: BOX BOUNDS ss ss ss
-3.3300 2.9974
-2.6014 3.3376
-1.9580 2.0420
ITEM: ATOMS id type xs ys zs
1 1 .503517 .990308 .466245
2 1 .989535 .614642 .496749
3 1 .791209 .005286 .544525
4 1 .184399 .009137 .494601
5 1 .007728 .617949 .486953
6 1 .492934 .462039 .989720
7 1 .501408 .435037 .012185
ITEM: TIMESTEP
200
ITEM: NUMBER OF ATOMS
7
ITEM: BOX BOUNDS ss ss ss
-3.3314 2.9796
-2.6054 3.3376
-1.9625 2.0467
ITEM: ATOMS id type xs ys zs
1 1 .504866 .990750 .468589
2 1 .993635 .613544 .496198
3 1 .793272 .006446 .545697
4 1 .188165 .009650 .496233
5 1 .009250 .619150 .490187
6 1 .494798 .462206 .986777
7 1 .503474 .434569 .015129
ITEM: TIMESTEP
250
ITEM: NUMBER OF ATOMS
7
ITEM: BOX BOUNDS ss ss ss
-3.3222 2.9876
-2.6181 3.3376
-1.9580 2.0592
ITEM: ATOMS id type xs ys zs
1 1 .502492 .987922 .465060
2 1 .991140 .613572 .499117
3 1 .791685 .006730 .542183
4 1 .186996 .013308 .495155
5 1 .007987 .621151 .485515
6 1 .492975 .462255 .982924
7 1 .501298 .436554 .008566
ITEM: TIMESTEP
300
ITEM: NUMBER OF ATOMS
7
ITEM: BOX BOUNDS ss ss ss
-3.3271 2.9908
-2.6169 3.3376
-1.9649 2.0559
ITEM: ATOMS id type xs ys zs
1 1 .502698 .993498 .467695
2 1 .990488 .614766 .497044
3 1 .790324 .007422 .543247
4 1 .187992 .010762 .493564
5 1 .006926 .620963 .488548
6 1 .491084 .461996 .987334
7 1 .503118 .437034 .010550
ITEM: TIMESTEP
350
ITEM: NUMBER OF ATOMS
7
ITEM: BOX BOUNDS ss ss ss
-3.3231 2.9906
-2.6173 3.3376
-1.9634 2.0576
ITEM: ATOMS id type xs ys zs
1 1 .502623 .994483 .467377
2 1 .990909 .615215 .496295
3 1 .791593 .007877 .543180
4 1 .188125 .009406 .496464
5 1 .007723 .619314 .489305
6 1 .490659 .462143 .987829
7 1 .502947 .438186 .011925
ITEM: TIMESTEP
400
ITEM: NUMBER OF ATOMS
7
ITEM: BOX BOUNDS ss ss ss
-3.3247 2.9898
-2.6207 3.3376
-1.9650 2.0586
ITEM: ATOMS id type xs ys zs
1 1 .503109 .994118 .466485
2 1 .990416 .614670 .498742
3 1 .791772 .007848 .539625
4 1 .188020 .011075 .494309
5 1 .006790 .619959 .487660
6 1 .491638 .462669 .984017
7 1 .502444 .438608 .012494
ITEM: TIMESTEP
1
ITEM: NUMBER OF ATOMS
7
ITEM: BOX BOUNDS ss ss ss
-3.3074 2.9592
-2.5963 3.3239
-1.9409 2.0453
ITEM: ATOMS id type xs ys zs
1 1 .504816 .989514 .464548
2 1 .997188 .616597 .495204
3 1 .796184 .008641 .539660
4 1 .182835 .009581 .489172
5 1 .002009 .620423 .480500
6 1 .498483 .463970 .987376
7 1 .500091 .434136 .006976
ITEM: TIMESTEP
50
ITEM: NUMBER OF ATOMS
7
ITEM: BOX BOUNDS ss ss ss
-3.3313 2.9748
-2.5963 3.3239
-1.9409 2.0453
ITEM: ATOMS id type xs ys zs
1 1 .505449 .991594 .465066
2 1 .995295 .616418 .492112
3 1 .794090 .007607 .540083
4 1 .185361 .008565 .491317
5 1 .005543 .621122 .481334
6 1 .498818 .463337 .987169
7 1 .500655 .434847 .007191
ITEM: TIMESTEP
100
ITEM: NUMBER OF ATOMS
7
ITEM: BOX BOUNDS ss ss ss
-3.3335 2.9914
-2.5963 3.3239
-1.9512 2.0453
ITEM: ATOMS id type xs ys zs
1 1 .503414 .991603 .463446
2 1 .992786 .617861 .497610
3 1 .791045 .007881 .540516
4 1 .185971 .009159 .494007
5 1 .006206 .620548 .481138
6 1 .494703 .463120 .991153
7 1 .501623 .434340 .008457
ITEM: TIMESTEP
150
ITEM: NUMBER OF ATOMS
7
ITEM: BOX BOUNDS ss ss ss
-3.3377 3.0029
-2.5963 3.3239
-1.9608 2.0574
ITEM: ATOMS id type xs ys zs
1 1 .500744 .991074 .462034
2 1 .989337 .617877 .500097
3 1 .790173 .007838 .537776
4 1 .187772 .008412 .494661
5 1 .007431 .620896 .480399
6 1 .493869 .465261 .988664
7 1 .502504 .433733 .011452
ITEM: TIMESTEP
200
ITEM: NUMBER OF ATOMS
7
ITEM: BOX BOUNDS ss ss ss
-3.3393 2.9981
-2.5994 3.3239
-1.9710 2.0648
ITEM: ATOMS id type xs ys zs
1 1 .502194 .991411 .467566
2 1 .991359 .614465 .494787
3 1 .792547 .006455 .541104
4 1 .186672 .009779 .494756
5 1 .009480 .620803 .482012
6 1 .497296 .462356 .983669
7 1 .502355 .437757 .012661
ITEM: TIMESTEP
250
ITEM: NUMBER OF ATOMS
7
ITEM: BOX BOUNDS ss ss ss
-3.3379 3.0021
-2.5963 3.3239
-1.9816 2.0675
ITEM: ATOMS id type xs ys zs
1 1 .502868 .991899 .462555
2 1 .986614 .615494 .494529
3 1 .790545 .006785 .541234
4 1 .186743 .010336 .497582
5 1 .007733 .622434 .493410
6 1 .491674 .463689 .981858
7 1 .498490 .435789 .014165
ITEM: TIMESTEP
300
ITEM: NUMBER OF ATOMS
7
ITEM: BOX BOUNDS ss ss ss
-3.3330 2.9900
-2.5982 3.3239
-1.9716 2.0658
ITEM: ATOMS id type xs ys zs
1 1 .502484 .993772 .461852
2 1 .987229 .615449 .493201
3 1 .791596 .006823 .537945
4 1 .185958 .010174 .495435
5 1 .006381 .622564 .491508
6 1 .492970 .460418 .983039
7 1 .499609 .436003 .011554
ITEM: TIMESTEP
350
ITEM: NUMBER OF ATOMS
7
ITEM: BOX BOUNDS ss ss ss
-3.3340 2.9917
-2.5963 3.3239
-1.9693 2.0453
ITEM: ATOMS id type xs ys zs
1 1 .501600 .995769 .469101
2 1 .986650 .612739 .498902
3 1 .792732 .003324 .539618
4 1 .185926 .009758 .496419
5 1 .007845 .622883 .490743
6 1 .494717 .459993 .986392
7 1 .500464 .436129 .008076
ITEM: TIMESTEP
400
ITEM: NUMBER OF ATOMS
7
ITEM: BOX BOUNDS ss ss ss
-3.3441 2.9920
-2.6044 3.3239
-1.9766 2.0453
ITEM: ATOMS id type xs ys zs
1 1 .501811 .995661 .472397
2 1 .985181 .612752 .499197
3 1 .790294 .004400 .537838
4 1 .188931 .011988 .498966
5 1 .010014 .621912 .492882
6 1 .495220 .460837 .985755
7 1 .501295 .436188 .009234
ITEM: TIMESTEP
1
ITEM: NUMBER OF ATOMS
7
ITEM: BOX BOUNDS ss ss ss
-3.3205 2.9545
-2.5898 3.3113
-1.9597 2.0230
ITEM: ATOMS id type xs ys zs
1 1 .506265 .991552 .469645
2 1 .998024 .617494 .500371
3 1 .797182 .007553 .544866
4 1 .184633 .008495 .494280
5 1 .004073 .621335 .485656
6 1 .499919 .464420 .993058
7 1 .501441 .434439 .011663
ITEM: TIMESTEP
50
ITEM: NUMBER OF ATOMS
7
ITEM: BOX BOUNDS ss ss ss
-3.3305 2.9738
-2.5898 3.3113
-1.9597 2.0230
ITEM: ATOMS id type xs ys zs
1 1 .506245 .992490 .468520
2 1 .995055 .617509 .499318
3 1 .795948 .006154 .546735
4 1 .184188 .007928 .499301
5 1 .006687 .622983 .485359
6 1 .497800 .465826 .991828
7 1 .500904 .432858 .009079
ITEM: TIMESTEP
100
ITEM: NUMBER OF ATOMS
7
ITEM: BOX BOUNDS ss ss ss
-3.3360 2.9864
-2.5898 3.3113
-1.9597 2.0405
ITEM: ATOMS id type xs ys zs
1 1 .503582 .994368 .471505
2 1 .995135 .616692 .500853
3 1 .792691 .006009 .544203
4 1 .187266 .008461 .499541
5 1 .006691 .620365 .485205
6 1 .496618 .465707 .991413
7 1 .500256 .433338 .011435
ITEM: TIMESTEP
150
ITEM: NUMBER OF ATOMS
7
ITEM: BOX BOUNDS ss ss ss
-3.3382 2.9949
-2.5898 3.3113
-1.9615 2.0525
ITEM: ATOMS id type xs ys zs
1 1 .503248 .994882 .472036
2 1 .994849 .617295 .500903
3 1 .791831 .005957 .543487
4 1 .189283 .006936 .498077
5 1 .007807 .620541 .482106
6 1 .497325 .464263 .987614
7 1 .500677 .434748 .012238
ITEM: TIMESTEP
200
ITEM: NUMBER OF ATOMS
7
ITEM: BOX BOUNDS ss ss ss
-3.3356 3.0045
-2.5927 3.3113
-1.9601 2.0560
ITEM: ATOMS id type xs ys zs
1 1 .503042 .992062 .461925
2 1 .992741 .614799 .497442
3 1 .791152 .006543 .543541
4 1 .186027 .007106 .491867
5 1 .007954 .620858 .481863
6 1 .491138 .461846 .985449
7 1 .499605 .436539 .011334
ITEM: TIMESTEP
250
ITEM: NUMBER OF ATOMS
7
ITEM: BOX BOUNDS ss ss ss
-3.3273 3.0094
-2.5967 3.3113
-1.9758 2.0606
ITEM: ATOMS id type xs ys zs
1 1 .503885 .995044 .462800
2 1 .989386 .616941 .497641
3 1 .789829 .004726 .547706
4 1 .185416 .009449 .486035
5 1 .011039 .626345 .486584
6 1 .492971 .463543 .982669
7 1 .502365 .437725 .011363
ITEM: TIMESTEP
300
ITEM: NUMBER OF ATOMS
7
ITEM: BOX BOUNDS ss ss ss
-3.3323 3.0134
-2.6023 3.3233
-1.9707 2.0654
ITEM: ATOMS id type xs ys zs
1 1 .503963 .993375 .461150
2 1 .989279 .615890 .497305
3 1 .789115 .005207 .544461
4 1 .187652 .010985 .484873
5 1 .012307 .624857 .485800
6 1 .493910 .462342 .982903
7 1 .502860 .436350 .009237
ITEM: TIMESTEP
350
ITEM: NUMBER OF ATOMS
7
ITEM: BOX BOUNDS ss ss ss
-3.3324 2.9971
-2.6070 3.3252
-1.9789 2.0440
ITEM: ATOMS id type xs ys zs
1 1 .506397 .993062 .465458
2 1 .989794 .615675 .500635
3 1 .791264 .006559 .546184
4 1 .188021 .010556 .491706
5 1 .011323 .625957 .488003
6 1 .494120 .462870 .987848
7 1 .503291 .437741 .011838
ITEM: TIMESTEP
400
ITEM: NUMBER OF ATOMS
7
ITEM: BOX BOUNDS ss ss ss
-3.3312 3.0004
-2.6135 3.3282
-1.9891 2.0449
ITEM: ATOMS id type xs ys zs
1 1 .502631 .992523 .463842
2 1 .989474 .614588 .504269
3 1 .790318 .007292 .543850
4 1 .189127 .012308 .494955
5 1 .010598 .624966 .488316
6 1 .496340 .462891 .987804
7 1 .504249 .435473 .011074
ITEM: TIMESTEP
1
ITEM: NUMBER OF ATOMS
7
ITEM: BOX BOUNDS ss ss ss
-3.3205 2.9657
-2.6021 3.3113
-1.9607 2.0314
ITEM: ATOMS id type xs ys zs
1 1 .505370 .991513 .468806
2 1 .996216 .618335 .499393
3 1 .795772 .009609 .543905
4 1 .184294 .010563 .493391
5 1 .004080 .622176 .484773
6 1 .499038 .465540 .990961
7 1 .500573 .435631 .011890
ITEM: TIMESTEP
50
ITEM: NUMBER OF ATOMS
7
ITEM: BOX BOUNDS ss ss ss
-3.3243 2.9725
-2.6021 3.3113
-1.9607 2.0314
ITEM: ATOMS id type xs ys zs
1 1 .503539 .992591 .466051
2 1 .996247 .617755 .497600
3 1 .794484 .007715 .543520
4 1 .185282 .009799 .493619
5 1 .004188 .621833 .486665
6 1 .498128 .465007 .992182
7 1 .500870 .435101 .009220
ITEM: TIMESTEP
100
ITEM: NUMBER OF ATOMS
7
ITEM: BOX BOUNDS ss ss ss
-3.3390 2.9849
-2.6021 3.3113
-1.9607 2.0448
ITEM: ATOMS id type xs ys zs
1 1 .504528 .994197 .464240
2 1 .993858 .616823 .496717
3 1 .795471 .007115 .541051
4 1 .187381 .008669 .490191
5 1 .007086 .619644 .481152
6 1 .496205 .465014 .988536
7 1 .499893 .436981 .007511
ITEM: TIMESTEP
150
ITEM: NUMBER OF ATOMS
7
ITEM: BOX BOUNDS ss ss ss
-3.3363 3.0008
-2.6021 3.3113
-1.9684 2.0564
ITEM: ATOMS id type xs ys zs
1 1 .501513 .994244 .466666
2 1 .989437 .615993 .495548
3 1 .792884 .008130 .541029
4 1 .187375 .006882 .490413
5 1 .006934 .620349 .479311
6 1 .494647 .465851 .986445
7 1 .498741 .437515 .008837
ITEM: TIMESTEP
200
ITEM: NUMBER OF ATOMS
7
ITEM: BOX BOUNDS ss ss ss
-3.3356 3.0007
-2.6021 3.3113
-1.9692 2.0535
ITEM: ATOMS id type xs ys zs
1 1 .501645 .993359 .465005
2 1 .988060 .614760 .495317
3 1 .793003 .009073 .540676
4 1 .187993 .006675 .493382
5 1 .008303 .620121 .480392
6 1 .493386 .465118 .985765
7 1 .499621 .440128 .006535
ITEM: TIMESTEP
250
ITEM: NUMBER OF ATOMS
7
ITEM: BOX BOUNDS ss ss ss
-3.3372 3.0070
-2.6041 3.3143
-1.9729 2.0612
ITEM: ATOMS id type xs ys zs
1 1 .500868 .995020 .465608
2 1 .987557 .614387 .494002
3 1 .791538 .010266 .541391
4 1 .187755 .006428 .492646
5 1 .007277 .619722 .481773
6 1 .491823 .464828 .983114
7 1 .499047 .440934 .008761
ITEM: TIMESTEP
300
ITEM: NUMBER OF ATOMS
7
ITEM: BOX BOUNDS ss ss ss
-3.3417 3.0134
-2.6049 3.3113
-1.9828 2.0567
ITEM: ATOMS id type xs ys zs
1 1 .502663 .993877 .466921
2 1 .985728 .616296 .495475
3 1 .788870 .007317 .543752
4 1 .189620 .009324 .492406
5 1 .007786 .623267 .483221
6 1 .490522 .464298 .984652
7 1 .499122 .437847 .011564
ITEM: TIMESTEP
350
ITEM: NUMBER OF ATOMS
7
ITEM: BOX BOUNDS ss ss ss
-3.3329 3.0042
-2.6100 3.3187
-1.9844 2.0624
ITEM: ATOMS id type xs ys zs
1 1 .502831 .992592 .464224