ITEM: TIMESTEP
1
ITEM: NUMBER OF ATOMS
7
ITEM: BOX BOUNDS ss ss ss
-3.2993 2.9462
-2.5483 3.2641
-1.9171 1.9994
ITEM: ATOMS id type xs ys zs
1 1 .505323 .999337 .466740
2 1 .999347 .619830 .497966
3 1 .797541 .000650 .543314
4 1 .182059 .001528 .491523
5 1 .000653 .623661 .482940
6 1 .499082 .464446 .998938
7 1 .500366 .433851 .001039
ITEM: TIMESTEP
50
ITEM: NUMBER OF ATOMS
7
ITEM: BOX BOUNDS ss ss ss
-3.3289 2.9717
-2.5740 3.2859
-1.9470 2.0289
ITEM: ATOMS id type xs ys zs
1 1 .505502 .995843 .467085
2 1 .995675 .619262 .497793
3 1 .795330 .004894 .542857
4 1 .184946 .005752 .491519
5 1 .005313 .622970 .483421
6 1 .499121 .465036 .992180
7 1 .500735 .434800 .008063
ITEM: TIMESTEP
100
ITEM: NUMBER OF ATOMS
7
ITEM: BOX BOUNDS ss ss ss
-3.3285 2.9904
-2.5891 3.2989
-1.9515 2.0365
ITEM: ATOMS id type xs ys zs
1 1 .503473 .994763 .466439
2 1 .992888 .618927 .496917
3 1 .793211 .006945 .542240
4 1 .184335 .008160 .491688
5 1 .005674 .622817 .483643
6 1 .496096 .464681 .990937
7 1 .499958 .435838 .008654
ITEM: TIMESTEP
150
ITEM: NUMBER OF ATOMS
7
ITEM: BOX BOUNDS ss ss ss
-3.3355 2.9913
-2.5891 3.3109
-1.9525 2.0397
ITEM: ATOMS id type xs ys zs
1 1 .503671 .993558 .466121
2 1 .992537 .617775 .496327
3 1 .793510 .006409 .542067
4 1 .185275 .008208 .492259
5 1 .007134 .622043 .483760
6 1 .495126 .463232 .990144
7 1 .501293 .435360 .008904
ITEM: TIMESTEP
200
ITEM: NUMBER OF ATOMS
7
ITEM: BOX BOUNDS ss ss ss
-3.3326 2.9858
-2.5998 3.3209
-1.9640 2.0395
ITEM: ATOMS id type xs ys zs
1 1 .503567 .992852 .467902
2 1 .992581 .617855 .497788
3 1 .794238 .007451 .544454
4 1 .185232 .009889 .494684
5 1 .007086 .622428 .485546
6 1 .493681 .462954 .989701
7 1 .502418 .435658 .011790
ITEM: TIMESTEP
250
ITEM: NUMBER OF ATOMS
7
ITEM: BOX BOUNDS ss ss ss
-3.3349 2.9823
-2.6046 3.3235
-1.9607 2.0413
ITEM: ATOMS id type xs ys zs
1 1 .503667 .993706 .467626
2 1 .992233 .618266 .497549
3 1 .794819 .007340 .545707
4 1 .185976 .010755 .494581
5 1 .007949 .623478 .484966
6 1 .492828 .462694 .988007
7 1 .503847 .436413 .011195
ITEM: TIMESTEP
300
ITEM: NUMBER OF ATOMS
7
ITEM: BOX BOUNDS ss ss ss
-3.3349 2.9765
-2.6094 3.3400
-1.9711 2.0468
ITEM: ATOMS id type xs ys zs
1 1 .503797 .992126 .468231
2 1 .992657 .616673 .498680
3 1 .795584 .007432 .547121
4 1 .186665 .011800 .495693
5 1 .008511 .622905 .486057
6 1 .492763 .461697 .986127
7 1 .505002 .436132 .014072
ITEM: TIMESTEP
350
ITEM: NUMBER OF ATOMS
7
ITEM: BOX BOUNDS ss ss ss
-3.3240 2.9781
-2.6156 3.3499
-1.9621 2.0428
ITEM: ATOMS id type xs ys zs
1 1 .502666 .991400 .467243
2 1 .992098 .615611 .498540
3 1 .795274 .008070 .546581
4 1 .185832 .012847 .495641
5 1 .007276 .622632 .485906
6 1 .491633 .461389 .986727
7 1 .504366 .436370 .012320
ITEM: TIMESTEP
400
ITEM: NUMBER OF ATOMS
7
ITEM: BOX BOUNDS ss ss ss
-3.3255 2.9782
-2.6199 3.3537
-1.9627 2.0350
ITEM: ATOMS id type xs ys zs
1 1 .502738 .991397 .468130
2 1 .991857 .615077 .500137
3 1 .795548 .008617 .547101
4 1 .186520 .013354 .497406
5 1 .007665 .622609 .486961
6 1 .491642 .461290 .988437
7 1 .504484 .436944 .012910
ITEM: TIMESTEP
1
ITEM: NUMBER OF ATOMS
7
ITEM: BOX BOUNDS ss ss ss
-3.3127 2.9528
-2.5993 3.3416
-1.9435 2.0140
ITEM: ATOMS id type xs ys zs
1 1 .505848 .986304 .468573
2 1 .998287 .615014 .499476
3 1 .797123 .009232 .544352
4 1 .183615 .010091 .493093
5 1 .002786 .618762 .484605
6 1 .499623 .462990 .995257
7 1 .500903 .433055 .007702
ITEM: TIMESTEP
50
ITEM: NUMBER OF ATOMS
7
ITEM: BOX BOUNDS ss ss ss
-3.3241 2.9689
-2.5993 3.3416
-1.9435 2.0257
ITEM: ATOMS id type xs ys zs
1 1 .505420 .986414 .467037
2 1 .996197 .615107 .497763
3 1 .795497 .009180 .542895
4 1 .184353 .009900 .491292
5 1 .004538 .618701 .483404
6 1 .499166 .462994 .993034
7 1 .500508 .433079 .007337
ITEM: TIMESTEP
100
ITEM: NUMBER OF ATOMS
7
ITEM: BOX BOUNDS ss ss ss
-3.3367 2.9870
-2.5993 3.3416
-1.9497 2.0376
ITEM: ATOMS id type xs ys zs
1 1 .504694 .987537 .466030
2 1 .993523 .614988 .496541
3 1 .793541 .008619 .541758
4 1 .185219 .009545 .490495
5 1 .006901 .619034 .483407
6 1 .497230 .462552 .990838
7 1 .500627 .433696 .008306
ITEM: TIMESTEP
150
ITEM: NUMBER OF ATOMS
7
ITEM: BOX BOUNDS ss ss ss
-3.3356 3.0033
-2.5993 3.3416
-1.9587 2.0495
ITEM: ATOMS id type xs ys zs
1 1 .502787 .988408 .466000
2 1 .990516 .614491 .495907
3 1 .791524 .007978 .540584
4 1 .184566 .009486 .490981
5 1 .006948 .619478 .483778
6 1 .494130 .461669 .987816
7 1 .499427 .434326 .010459
ITEM: TIMESTEP
200
ITEM: NUMBER OF ATOMS
7
ITEM: BOX BOUNDS ss ss ss
-3.3408 2.9893
-2.5993 3.3416
-1.9565 2.0519
ITEM: ATOMS id type xs ys zs
1 1 .503958 .989606 .466223
2 1 .991884 .613980 .495064
3 1 .793326 .007456 .539889
4 1 .186081 .009540 .491829
5 1 .008573 .619606 .483486
6 1 .494477 .460928 .987568
7 1 .501766 .434960 .010346
ITEM: TIMESTEP
250
ITEM: NUMBER OF ATOMS
7
ITEM: BOX BOUNDS ss ss ss
-3.3364 2.9823
-2.6024 3.3416
-1.9565 2.0469
ITEM: ATOMS id type xs ys zs
1 1 .504191 .990199 .468192
2 1 .992555 .614173 .496393
3 1 .793773 .007158 .540379
4 1 .185999 .010121 .493187
5 1 .008682 .620392 .484342
6 1 .493689 .460204 .988333
7 1 .503001 .435911 .010223
ITEM: TIMESTEP
300
ITEM: NUMBER OF ATOMS
7
ITEM: BOX BOUNDS ss ss ss
-3.3391 2.9757
-2.6124 3.3416
-1.9628 2.0398
ITEM: ATOMS id type xs ys zs
1 1 .504868 .990778 .470494
2 1 .993107 .614504 .498356
3 1 .794567 .008129 .542354
4 1 .187202 .011690 .495288
5 1 .009551 .621429 .486391
6 1 .493726 .460654 .989271
7 1 .504249 .437363 .011574
ITEM: TIMESTEP
350
ITEM: NUMBER OF ATOMS
7
ITEM: BOX BOUNDS ss ss ss
-3.3373 2.9751
-2.6068 3.3416
-1.9596 2.0498
ITEM: ATOMS id type xs ys zs
1 1 .504378 .991627 .469014
2 1 .992332 .613723 .496202
3 1 .794700 .006298 .540512
4 1 .187851 .010559 .494074
5 1 .009299 .621477 .484863
6 1 .493120 .459752 .985814
7 1 .504165 .437202 .010535
ITEM: TIMESTEP
400
ITEM: NUMBER OF ATOMS
7
ITEM: BOX BOUNDS ss ss ss
-3.3447 2.9840
-2.6182 3.3448
-1.9623 2.0475
ITEM: ATOMS id type xs ys zs
1 1 .503824 .991916 .469368
2 1 .990189 .613632 .495231
3 1 .794087 .007371 .540296
4 1 .189144 .012104 .494962
5 1 .010070 .622117 .485241
6 1 .492743 .460264 .985222
7 1 .503424 .438253 .010897
ITEM: TIMESTEP
1
ITEM: NUMBER OF ATOMS
7
ITEM: BOX BOUNDS ss ss ss
-3.3116 2.9511
-2.6098 3.3323
-1.9424 2.0153
ITEM: ATOMS id type xs ys zs
1 1 .505898 .987867 .468279
2 1 .998556 .616650 .499179
3 1 .797303 .010984 .544056
4 1 .183514 .011846 .492799
5 1 .002608 .620396 .484309
6 1 .499670 .464659 .994940
7 1 .500947 .434725 .007429
ITEM: TIMESTEP
50
ITEM: NUMBER OF ATOMS
7
ITEM: BOX BOUNDS ss ss ss
-3.3247 2.9708
-2.6098 3.3323
-1.9424 2.0232
ITEM: ATOMS id type xs ys zs
1 1 .505353 .987916 .467176
2 1 .995929 .616822 .498077
3 1 .795340 .011022 .543242
4 1 .184296 .011707 .491299
5 1 .004545 .620370 .483642
6 1 .499131 .464686 .993575
7 1 .500387 .434702 .007107
ITEM: TIMESTEP
100
ITEM: NUMBER OF ATOMS
7
ITEM: BOX BOUNDS ss ss ss
-3.3323 2.9834
-2.6098 3.3323
-1.9522 2.0342
ITEM: ATOMS id type xs ys zs
1 1 .504845 .988998 .466182
2 1 .994660 .616881 .497577
3 1 .794357 .010605 .542733
4 1 .184577 .011326 .491407
5 1 .006133 .620667 .484119
6 1 .497599 .464118 .991212
7 1 .500394 .434923 .009050
ITEM: TIMESTEP
150
ITEM: NUMBER OF ATOMS
7
ITEM: BOX BOUNDS ss ss ss
-3.3302 2.9920
-2.6098 3.3323
-1.9636 2.0371
ITEM: ATOMS id type xs ys zs
1 1 .503977 .989792 .466681
2 1 .993627 .616857 .498152
3 1 .792821 .010111 .542982
4 1 .183974 .011071 .492830
5 1 .006552 .621006 .485696
6 1 .495540 .463816 .990238
7 1 .500100 .435139 .011271
ITEM: TIMESTEP
200
ITEM: NUMBER OF ATOMS
7
ITEM: BOX BOUNDS ss ss ss
-3.3363 2.9933
-2.6098 3.3323
-1.9717 2.0421
ITEM: ATOMS id type xs ys zs
1 1 .504352 .990741 .466604
2 1 .993337 .616605 .497441
3 1 .792011 .009433 .542004
4 1 .184663 .010847 .493949
5 1 .008144 .621260 .486779
6 1 .494756 .463655 .988729
7 1 .501237 .435603 .013371
ITEM: TIMESTEP
250
ITEM: NUMBER OF ATOMS
7
ITEM: BOX BOUNDS ss ss ss
-3.3335 2.9926
-2.6098 3.3323
-1.9734 2.0407
ITEM: ATOMS id type xs ys zs
1 1 .503978 .991783 .465992
2 1 .992852 .616179 .497518
3 1 .791826 .008985 .541749
4 1 .185223 .010807 .494703
5 1 .008047 .621308 .487418
6 1 .493789 .463423 .988764
7 1 .501539 .436585 .013995
ITEM: TIMESTEP
300
ITEM: NUMBER OF ATOMS
7
ITEM: BOX BOUNDS ss ss ss
-3.3289 3.0009
-2.6098 3.3387
-1.9757 2.0425
ITEM: ATOMS id type xs ys zs
1 1 .502326 .990985 .465015
2 1 .990361 .615366 .498665
3 1 .790796 .008843 .541055
4 1 .185847 .010958 .495398
5 1 .007585 .620569 .489968
6 1 .492167 .462028 .988272
7 1 .500489 .437011 .013290
ITEM: TIMESTEP
350
ITEM: NUMBER OF ATOMS
7
ITEM: BOX BOUNDS ss ss ss
-3.3243 2.9921
-2.6069 3.3503
-1.9701 2.0336
ITEM: ATOMS id type xs ys zs
1 1 .502042 .989593 .464782
2 1 .990744 .613753 .499828
3 1 .791818 .007903 .540978
4 1 .186413 .010361 .496070
5 1 .007138 .619270 .491918
6 1 .492150 .460308 .990437
7 1 .501046 .436575 .011412
ITEM: TIMESTEP
400
ITEM: NUMBER OF ATOMS
7
ITEM: BOX BOUNDS ss ss ss
-3.3252 2.9808
-2.6083 3.3475
-1.9734 2.0418
ITEM: ATOMS id type xs ys zs
1 1 .502794 .990955 .464390
2 1 .991464 .613782 .499390
3 1 .793435 .007649 .539724
4 1 .187550 .010016 .495972
5 1 .007707 .619810 .491437
6 1 .492887 .460486 .988109
7 1 .502014 .437250 .011912
ITEM: TIMESTEP
1
ITEM: NUMBER OF ATOMS
7
ITEM: BOX BOUNDS ss ss ss
-3.3092 2.9508
-2.6014 3.3376
-1.9575 2.0288
ITEM: ATOMS id type xs ys zs
1 1 .505732 .986971 .468721
2 1 .998608 .615560 .499393
3 1 .797266 .009580 .543948
4 1 .183213 .010434 .493054
5 1 .002231 .619311 .484637
6 1 .499509 .463488 .991590
7 1 .500781 .433538 .011181
ITEM: TIMESTEP
50
ITEM: NUMBER OF ATOMS
7
ITEM: BOX BOUNDS ss ss ss
-3.3236 2.9718
-2.6014 3.3376
-1.9575 2.0288
ITEM: ATOMS id type xs ys zs
1 1 .505210 .986856 .468616
2 1 .995800 .615753 .499277
3 1 .795083 .009733 .544237
4 1 .184088 .010321 .492431
5 1 .004343 .619215 .484886
6 1 .499091 .463571 .992249
7 1 .500149 .433487 .010897
ITEM: TIMESTEP
100
ITEM: NUMBER OF ATOMS
7
ITEM: BOX BOUNDS ss ss ss
-3.3305 2.9849
-2.6014 3.3376
-1.9575 2.0353
ITEM: ATOMS id type xs ys zs
1 1 .504676 .987598 .467557
2 1 .994345 .615907 .497955
3 1 .793664 .009425 .543757
4 1 .184567 .009829 .491779
5 1 .005690 .619225 .484856
6 1 .497404 .463286 .991250
7 1 .500044 .433834 .010209
ITEM: TIMESTEP
150
ITEM: NUMBER OF ATOMS
7
ITEM: BOX BOUNDS ss ss ss
-3.3329 2.9920
-2.6014 3.3376
-1.9616 2.0490
ITEM: ATOMS id type xs ys zs
1 1 .503595 .988362 .466747
2 1 .993035 .615986 .495296
3 1 .792904 .008734 .541975
4 1 .183797 .009880 .490154
5 1 .006472 .619832 .484373
6 1 .495110 .462185 .988338
7 1 .500559 .433890 .012368
ITEM: TIMESTEP
200
ITEM: NUMBER OF ATOMS
7
ITEM: BOX BOUNDS ss ss ss
-3.3339 3.0033
-2.6014 3.3376
-1.9664 2.0509
ITEM: ATOMS id type xs ys zs
1 1 .501935 .989061 .466732
2 1 .990998 .616081 .494332
3 1 .791342 .007977 .542918
4 1 .183095 .009780 .489468
5 1 .007152 .620669 .485095
6 1 .493296 .461551 .987563
7 1 .500705 .434134 .014263
ITEM: TIMESTEP
250
ITEM: NUMBER OF ATOMS
7
ITEM: BOX BOUNDS ss ss ss
-3.3368 3.0020
-2.6014 3.3376
-1.9679 2.0506
ITEM: ATOMS id type xs ys zs
1 1 .502362 .990323 .465731
2 1 .991279 .615901 .495160
3 1 .791111 .007307 .543557
4 1 .183805 .009880 .489225
5 1 .008242 .621679 .485492
6 1 .492776 .461429 .986774
7 1 .501749 .435047 .014050
ITEM: TIMESTEP
300
ITEM: NUMBER OF ATOMS
7
ITEM: BOX BOUNDS ss ss ss
-3.3310 2.9898
-2.6122 3.3376
-1.9602 2.0498
ITEM: ATOMS id type xs ys zs
1 1 .503316 .992116 .464764
2 1 .992688 .616721 .494489
3 1 .792086 .008354 .542047
4 1 .183797 .011688 .488597
5 1 .007761 .623077 .484863
6 1 .493000 .462460 .986195
7 1 .502646 .437155 .012595
ITEM: TIMESTEP
350
ITEM: NUMBER OF ATOMS
7
ITEM: BOX BOUNDS ss ss ss
-3.3275 2.9879
-2.6094 3.3510
-1.9629 2.0425
ITEM: ATOMS id type xs ys zs
1 1 .503218 .991804 .466210
2 1 .992177 .615285 .494803
3 1 .792284 .007629 .542372
4 1 .184151 .011412 .490101
5 1 .007174 .621844 .486051
6 1 .492578 .461619 .986301
7 1 .502696 .436996 .013549
ITEM: TIMESTEP
400
ITEM: NUMBER OF ATOMS
7
ITEM: BOX BOUNDS ss ss ss
-3.3296 2.9818
-2.6168 3.3623
-1.9603 2.0298
ITEM: ATOMS id type xs ys zs
1 1 .504077 .991706 .467151
2 1 .992803 .614442 .494486
3 1 .793794 .009537 .543571
4 1 .185807 .012819 .491370
5 1 .007819 .621830 .487253
6 1 .492889 .462567 .987304
7 1 .503488 .437965 .011738
ITEM: TIMESTEP
1
ITEM: NUMBER OF ATOMS
7
ITEM: BOX BOUNDS ss ss ss
-3.3092 2.9508
-2.6014 3.3383
-1.9575 2.0288
ITEM: ATOMS id type xs ys zs
1 1 .505731 .986853 .468717
2 1 .998607 .615483 .499401
3 1 .797266 .009578 .543950
4 1 .183217 .010435 .493055
5 1 .002227 .619236 .484629
6 1 .499513 .463435 .991587
7 1 .500781 .433488 .011182
ITEM: TIMESTEP
50
ITEM: NUMBER OF ATOMS
7
ITEM: BOX BOUNDS ss ss ss
-3.3226 2.9728
-2.6014 3.3383
-1.9575 2.0288
ITEM: ATOMS id type xs ys zs
1 1 .505089 .986645 .468591
2 1 .995697 .615683 .499361
3 1 .794944 .009687 .544214
4 1 .183931 .010361 .492346
5 1 .004094 .619108 .484836
6 1 .499043 .463511 .992265
7 1 .499956 .433446 .010881
ITEM: TIMESTEP
100
ITEM: NUMBER OF ATOMS
7
ITEM: BOX BOUNDS ss ss ss
-3.3312 2.9868
-2.6014 3.3383
-1.9575 2.0415
ITEM: ATOMS id type xs ys zs
1 1 .503879 .987506 .466793
2 1 .994157 .615618 .497339
3 1 .793694 .009444 .542928
4 1 .184737 .010403 .491209
5 1 .005598 .619040 .484242
6 1 .497472 .463182 .989165
7 1 .500436 .433865 .009809
ITEM: TIMESTEP
150
ITEM: NUMBER OF ATOMS
7
ITEM: BOX BOUNDS ss ss ss
-3.3447 2.9868
-2.6014 3.3383
-1.9575 2.0368
ITEM: ATOMS id type xs ys zs
1 1 .502226 .989427 .467491
2 1 .993517 .615172 .496978
3 1 .794581 .008544 .544538
4 1 .187501 .011659 .491651
5 1 .007134 .618459 .485276
6 1 .496727 .463422 .988208
7 1 .503771 .434942 .009506
ITEM: TIMESTEP
200
ITEM: NUMBER OF ATOMS
7
ITEM: BOX BOUNDS ss ss ss
-3.3535 2.9886
-2.6014 3.3383
-1.9603 2.0382
ITEM: ATOMS id type xs ys zs
1 1 .502244 .989942 .467044
2 1 .993184 .615212 .495366
3 1 .794293 .008018 .544662
4 1 .189106 .011299 .492380
5 1 .008383 .618365 .485677
6 1 .496149 .463302 .987651
7 1 .504872 .435581 .009502
ITEM: TIMESTEP
250
ITEM: NUMBER OF ATOMS
7
ITEM: BOX BOUNDS ss ss ss
-3.3423 2.9877
-2.6034 3.3383
-1.9623 2.0349
ITEM: ATOMS id type xs ys zs
1 1 .501327 .990464 .467228
2 1 .992751 .614930 .495436
3 1 .793997 .007871 .545878
4 1 .188041 .011393 .493206
5 1 .006791 .618807 .486916
6 1 .494170 .462609 .988544
7 1 .504391 .436148 .009640
ITEM: TIMESTEP
300
ITEM: NUMBER OF ATOMS
7
ITEM: BOX BOUNDS ss ss ss
-3.3456 2.9920
-2.6014 3.3383
-1.9664 2.0364
ITEM: ATOMS id type xs ys zs
1 1 .501260 .990978 .467469
2 1 .991540 .614412 .495926
3 1 .793777 .007163 .546643
4 1 .188590 .010908 .493828
5 1 .007576 .619080 .487512
6 1 .493196 .461990 .987877
7 1 .504418 .436283 .010732
ITEM: TIMESTEP
350
ITEM: NUMBER OF ATOMS
7
ITEM: BOX BOUNDS ss ss ss
-3.3433 2.9884
-2.6080 3.3376
-1.9661 2.0354
ITEM: ATOMS id type xs ys zs
1 1 .501311 .991748 .467574
2 1 .991637 .614694 .496099
3 1 .794584 .008065 .546672
4 1 .188755 .011917 .494484
5 1 .007598 .620105 .487125
6 1 .492868 .462536 .987534
7 1 .504433 .437353 .010671
ITEM: TIMESTEP
400
ITEM: NUMBER OF ATOMS
7
ITEM: BOX BOUNDS ss ss ss
-3.3512 2.9917
-2.6098 3.3376
-1.9741 2.0371
ITEM: ATOMS id type xs ys zs
1 1 .501636 .992282 .468160
2 1 .990718 .614732 .497175
3 1 .794393 .008125 .547279
4 1 .190183 .012046 .496071
5 1 .008891 .620432 .487670
6 1 .492951 .462866 .986599
7 1 .504783 .437848 .012390
ITEM: TIMESTEP
1
ITEM: NUMBER OF ATOMS
7
ITEM: BOX BOUNDS ss ss ss
-3.3239 2.9696
-2.6014 3.3376
-1.9575 2.0288
ITEM: ATOMS id type xs ys zs
1 1 .505373 .986971 .468717
2 1 .995625 .615564 .499402
3 1 .795359 .009579 .543952
4 1 .184566 .010436 .493053
5 1 .004544 .619309 .484633
6 1 .499187 .463491 .991590
7 1 .500445 .433539 .011180
ITEM: TIMESTEP
50
ITEM: NUMBER OF ATOMS
7
ITEM: BOX BOUNDS ss ss ss
-3.3256 2.9746
-2.6014 3.3376
-1.9575 2.0288
ITEM: ATOMS id type xs ys zs
1 1 .505213 .986626 .468589
2 1 .995403 .615799 .499326
3 1 .794826 .009755 .544372
4 1 .184182 .010410 .492172
5 1 .004534 .619111 .484839
6 1 .499207 .463631 .992281
7 1 .500023 .433368 .010896
ITEM: TIMESTEP
100
ITEM: NUMBER OF ATOMS
7
ITEM: BOX BOUNDS ss ss ss
-3.3312 2.9916
-2.6014 3.3376
-1.9575 2.0360
ITEM: ATOMS id type xs ys zs
1 1 .504187 .987375 .466793
2 1 .993636 .615711 .497900
3 1 .793011 .009467 .544296
4 1 .183924 .010505 .491156
5 1 .005519 .619029 .484959
6 1 .497254 .463455 .991287
7 1 .500070 .433990 .010083
ITEM: TIMESTEP
150
ITEM: NUMBER OF ATOMS
7
ITEM: BOX BOUNDS ss ss ss
-3.3414 2.9939
-2.6014 3.3376
-1.9587 2.0430
ITEM: ATOMS id type xs ys zs
1 1 .505014 .987995 .465607
2 1 .993682 .614696 .496984
3 1 .792332 .009419 .544025
4 1 .185334 .010967 .490993
5 1 .008176 .620188 .485633
6 1 .496726 .463816 .990508
7 1 .501594 .434238 .009598
ITEM: TIMESTEP
200
ITEM: NUMBER OF ATOMS
7
ITEM: BOX BOUNDS ss ss ss
-3.3442 2.9995
-2.6014 3.3376
-1.9690 2.0503
ITEM: ATOMS id type xs ys zs
1 1 .504994 .988566 .465645
2 1 .992717 .613358 .497185
3 1 .790486 .008976 .543873
4 1 .185560 .011547 .491659
5 1 .009958 .621257 .486042
6 1 .495506 .464395 .990001
7 1 .502329 .434527 .011082
ITEM: TIMESTEP
250
ITEM: NUMBER OF ATOMS
7
ITEM: BOX BOUNDS ss ss ss
-3.3275 2.9993
-2.6014 3.3376
-1.9713 2.0588
ITEM: ATOMS id type xs ys zs
1 1 .503318 .989574 .464098
2 1 .992099 .612112 .495978
3 1 .788645 .008073 .543481
4 1 .183333 .011999 .491002
5 1 .008652 .621810 .484510
6 1 .493597 .464973 .988583
7 1 .502276 .435167 .010502
ITEM: TIMESTEP
300
ITEM: NUMBER OF ATOMS
7
ITEM: BOX BOUNDS ss ss ss
-3.3239 3.0007
-2.6035 3.3376
-1.9835 2.0618
ITEM: ATOMS id type xs ys zs
1 1 .502722 .990161 .464456
2 1 .991398 .611829 .496921
3 1 .787436 .007912 .544983
4 1 .183205 .012863 .492388
5 1 .008522 .621879 .485436
6 1 .492757 .465698 .988205
7 1 .502760 .435916 .012862
ITEM: TIMESTEP
350
ITEM: NUMBER OF ATOMS
7
ITEM: BOX BOUNDS ss ss ss
-3.3239 2.9900
-2.6212 3.3382
-1.9812 2.0571
ITEM: ATOMS id type xs ys zs
1 1 .503212 .990921 .464218
2 1 .992417 .612821 .496979
3 1 .787893 .009996 .545308
4 1 .184202 .015197 .493263
5 1 .008427 .622821 .485711
6 1 .492824 .466891 .987915
7 1 .503562 .438194 .012502
ITEM: TIMESTEP
400
ITEM: NUMBER OF ATOMS
7
ITEM: BOX BOUNDS ss ss ss
-3.3239 2.9889
-2.6103 3.3376
-1.9794 2.0668
ITEM: ATOMS id type xs ys zs
1 1 .502310 .991665 .462804
2 1 .991982 .612592 .494293
3 1 .788009 .007237 .542967
4 1 .184894 .012128 .492067
5 1 .007722 .621980 .484265
6 1 .492160 .464691 .982695
7 1 .502607 .437828 .012200
ITEM: TIMESTEP
1
ITEM: NUMBER OF ATOMS
7
ITEM: BOX BOUNDS ss ss ss
-3.3092 2.9566
-2.6014 3.3376
-1.9580 2.0288
ITEM: ATOMS id type xs ys zs
1 1 .505267 .986969 .468781
2 1 .997684 .615563 .499449
3 1 .796530 .009580 .544001
4 1 .183043 .010437 .493104
5 1 .002225 .619303 .484685
6 1 .499051 .463491 .991591
7 1 .500315 .433538 .011290
ITEM: TIMESTEP
50
ITEM: NUMBER OF ATOMS
7
ITEM: BOX BOUNDS ss ss ss
-3.3279 2.9721
-2.6014 3.3376
-1.9580 2.0310
ITEM: ATOMS id type xs ys zs
1 1 .505541 .986607 .468447
2 1 .995812 .615787 .499036
3 1 .795143 .009855 .544188
4 1 .184536 .010410 .491869
5 1 .004816 .619135 .484550
6 1 .499695 .463741 .991741
7 1 .500371 .433351 .011126
ITEM: TIMESTEP
100
ITEM: NUMBER OF ATOMS
7
ITEM: BOX BOUNDS ss ss ss
-3.3360 2.9915
-2.6014 3.3376
-1.9580 2.0356
ITEM: ATOMS id type xs ys zs
1 1 .504263 .987265 .467050
2 1 .993246 .615961 .497723
3 1 .793047 .009515 .543656
4 1 .184610 .010082 .491046
5 1 .006374 .619254 .484456
6 1 .497820 .463480 .991652
7 1 .499960 .433348 .010496
ITEM: TIMESTEP
150
ITEM: NUMBER OF ATOMS
7
ITEM: BOX BOUNDS ss ss ss
-3.3300 2.9974
-2.6014 3.3376
-1.9580 2.0420
ITEM: ATOMS id type xs ys zs
1 1 .504041 .988169 .466358
2 1 .990639 .615856 .497249
3 1 .790781 .006519 .544412
4 1 .184485 .009440 .490687
5 1 .007251 .618300 .486498
6 1 .494786 .461777 .990910
7 1 .500663 .434500 .012393
ITEM: TIMESTEP
200
ITEM: NUMBER OF ATOMS
7
ITEM: BOX BOUNDS ss ss ss
-3.3314 2.9796
-2.6054 3.3376
-1.9625 2.0467
ITEM: ATOMS id type xs ys zs
1 1 .505466 .988819 .466427
2 1 .993420 .616010 .496840
3 1 .792625 .006523 .545188
4 1 .185553 .009587 .491010
5 1 .007768 .618332 .488352
6 1 .495134 .461636 .990229
7 1 .503217 .435077 .013611
ITEM: TIMESTEP
250
ITEM: NUMBER OF ATOMS
7
ITEM: BOX BOUNDS ss ss ss
-3.3222 2.9876
-2.6181 3.3376
-1.9580 2.0592
ITEM: ATOMS id type xs ys zs
1 1 .503821 .989466 .464533
2 1 .992257 .616485 .494002
3 1 .790919 .008607 .543455
4 1 .184274 .011414 .489075
5 1 .006654 .619405 .487874
6 1 .493107 .462595 .987248
7 1 .502320 .436488 .012005
ITEM: TIMESTEP
300
ITEM: NUMBER OF ATOMS
7
ITEM: BOX BOUNDS ss ss ss
-3.3271 2.9908
-2.6169 3.3376
-1.9649 2.0559
ITEM: ATOMS id type xs ys zs
1 1 .503507 .990224 .465799
2 1 .991774 .616013 .494591
3 1 .790630 .008401 .545067
4 1 .185188 .010776 .490756
5 1 .007755 .619533 .490289
6 1 .493011 .462616 .987740
7 1 .502603 .436539 .013368
ITEM: TIMESTEP
350
ITEM: NUMBER OF ATOMS
7
ITEM: BOX BOUNDS ss ss ss
-3.3231 2.9906
-2.6173 3.3376
-1.9634 2.0576
ITEM: ATOMS id type xs ys zs
1 1 .502919 .991151 .465916
2 1 .991746 .615596 .493666
3 1 .790456 .008476 .544919
4 1 .185309 .010388 .491046
5 1 .007329 .619721 .490994
6 1 .492526 .462881 .986902
7 1 .502271 .436933 .012658
ITEM: TIMESTEP
400
ITEM: NUMBER OF ATOMS
7
ITEM: BOX BOUNDS ss ss ss
-3.3247 2.9898
-2.6207 3.3376
-1.9650 2.0586
ITEM: ATOMS id type xs ys zs
1 1 .502939 .991865 .466971
2 1 .991056 .615214 .494350
3 1 .790726 .009077 .545264
4 1 .186328 .011074 .491135
5 1 .007528 .620044 .491594
6 1 .492077 .463086 .986961
7 1 .502377 .438118 .012681
ITEM: TIMESTEP
1
ITEM: NUMBER OF ATOMS
7
ITEM: BOX BOUNDS ss ss ss
-3.3074 2.9592
-2.5963 3.3239
-1.9409 2.0453
ITEM: ATOMS id type xs ys zs
1 1 .504906 .989243 .464559
2 1 .997261 .616656 .495238
3 1 .796135 .008750 .539788
4 1 .182720 .009610 .488885
5 1 .001924 .620419 .480470
6 1 .498692 .464104 .987438
7 1 .499956 .434056 .007016
ITEM: TIMESTEP
50
ITEM: NUMBER OF ATOMS
7
ITEM: BOX BOUNDS ss ss ss
-3.3313 2.9748
-2.5963 3.3239
-1.9409 2.0453
ITEM: ATOMS id type xs ys zs
1 1 .505678 .988838 .464421
2 1 .995399 .616936 .495143
3 1 .794965 .009102 .540230
4 1 .184816 .009556 .487856
5 1 .005332 .620244 .480617
6 1 .499785 .464345 .988115
7 1 .500381 .433908 .006853
ITEM: TIMESTEP
100
ITEM: NUMBER OF ATOMS
7
ITEM: BOX BOUNDS ss ss ss
-3.3335 2.9914
-2.5963 3.3239
-1.9512 2.0453
ITEM: ATOMS id type xs ys zs
1 1 .504672 .989408 .464251
2 1 .993606 .617237 .496169
3 1 .792814 .008655 .541621
4 1 .184139 .009209 .489816
5 1 .005673 .620542 .482833
6 1 .497337 .463687 .989108
7 1 .499560 .434154 .008780
ITEM: TIMESTEP
150
ITEM: NUMBER OF ATOMS
7
ITEM: BOX BOUNDS ss ss ss
-3.3377 3.0029
-2.5963 3.3239
-1.9608 2.0574
ITEM: ATOMS id type xs ys zs
1 1 .503610 .989717 .463111
2 1 .991969 .617692 .495693
3 1 .790803 .008424 .541490
4 1 .184823 .009102 .490620
5 1 .006711 .620674 .482707
6 1 .495422 .463513 .987326
7 1 .499924 .434330 .010863
ITEM: TIMESTEP
200
ITEM: NUMBER OF ATOMS
7
ITEM: BOX BOUNDS ss ss ss
-3.3393 2.9981
-2.5994 3.3239
-1.9710 2.0648
ITEM: ATOMS id type xs ys zs
1 1 .503570 .990293 .463211
2 1 .992591 .617704 .495415
3 1 .791395 .009076 .542061
4 1 .185072 .009310 .491076
5 1 .007829 .620807 .484380
6 1 .495360 .463859 .986565
7 1 .500901 .434983 .013568
ITEM: TIMESTEP
250
ITEM: NUMBER OF ATOMS
7
ITEM: BOX BOUNDS ss ss ss
-3.3379 3.0021
-2.5963 3.3239
-1.9816 2.0675
ITEM: ATOMS id type xs ys zs
1 1 .502476 .990992 .463072
2 1 .991460 .617084 .494324
3 1 .790539 .007808 .543870
4 1 .184465 .008617 .491875
5 1 .007914 .620922 .486854
6 1 .494539 .463187 .983901
7 1 .500950 .434168 .015536
ITEM: TIMESTEP
300
ITEM: NUMBER OF ATOMS
7
ITEM: BOX BOUNDS ss ss ss
-3.3330 2.9900
-2.5982 3.3239
-1.9716 2.0658
ITEM: ATOMS id type xs ys zs
1 1 .502891 .991113 .460747
2 1 .992829 .616672 .491589
3 1 .791567 .007459 .542780
4 1 .184073 .009191 .490868
5 1 .006994 .621639 .487959
6 1 .493999 .462952 .982437
7 1 .501488 .434014 .012232
ITEM: TIMESTEP
350
ITEM: NUMBER OF ATOMS
7
ITEM: BOX BOUNDS ss ss ss
-3.3340 2.9917
-2.5963 3.3239
-1.9693 2.0453
ITEM: ATOMS id type xs ys zs
1 1 .502908 .991746 .463286
2 1 .990569 .615690 .493977
3 1 .791659 .006908 .543991
4 1 .185091 .010248 .494400
5 1 .006722 .622412 .493537
6 1 .493031 .462784 .987523
7 1 .500512 .434806 .010757
ITEM: TIMESTEP
400
ITEM: NUMBER OF ATOMS
7
ITEM: BOX BOUNDS ss ss ss
-3.3441 2.9920
-2.6044 3.3239
-1.9766 2.0453
ITEM: ATOMS id type xs ys zs
1 1 .503422 .992164 .464187
2 1 .989806 .615663 .495058
3 1 .792331 .008048 .544298
4 1 .186921 .011999 .495822
5 1 .008285 .623605 .495403
6 1 .493137 .463383 .987539
7 1 .501176 .436036 .011405
ITEM: TIMESTEP
1
ITEM: NUMBER OF ATOMS
7
ITEM: BOX BOUNDS ss ss ss
-3.3205 2.9545
-2.5898 3.3113
-1.9597 2.0230
ITEM: ATOMS id type xs ys zs
1 1 .506319 .991331 .469690
2 1 .998016 .617544 .500402
3 1 .797153 .007680 .544990
4 1 .184564 .008540 .494034
5 1 .004009 .621313 .485614
6 1 .500116 .464502 .993027
7 1 .501372 .434353 .011742
ITEM: TIMESTEP
50
ITEM: NUMBER OF ATOMS
7
ITEM: BOX BOUNDS ss ss ss
-3.3305 2.9738
-2.5898 3.3113
-1.9597 2.0230
ITEM: ATOMS id type xs ys zs
1 1 .505675 .990815 .469636
2 1 .995573 .617879 .500298
3 1 .795051 .008057 .545596
4 1 .184756 .008561 .492819
5 1 .005183 .621094 .485810
6 1 .499864 .464809 .993709
7 1 .500336 .434165 .011573
ITEM: TIMESTEP
100
ITEM: NUMBER OF ATOMS
7
ITEM: BOX BOUNDS ss ss ss
-3.3360 2.9864
-2.5898 3.3113
-1.9597 2.0405
ITEM: ATOMS id type xs ys zs
1 1 .504987 .991379 .466391
2 1 .994399 .618278 .497474
3 1 .793960 .007762 .543695
4 1 .184852 .007822 .490526
5 1 .006191 .621272 .484184
6 1 .498251 .464546 .990321
7 1 .499908 .434488 .010726
ITEM: TIMESTEP
150
ITEM: NUMBER OF ATOMS
7
ITEM: BOX BOUNDS ss ss ss
-3.3382 2.9949
-2.5898 3.3113
-1.9615 2.0525
ITEM: ATOMS id type xs ys zs
1 1 .504370 .991561 .464899
2 1 .993724 .618464 .495303
3 1 .793288 .007799 .542400
4 1 .184522 .007463 .489480
5 1 .007468 .621677 .483461
6 1 .497101 .463944 .988324
7 1 .499872 .434242 .010415
ITEM: TIMESTEP
200
ITEM: NUMBER OF ATOMS
7
ITEM: BOX BOUNDS ss ss ss
-3.3356 3.0045
-2.5927 3.3113
-1.9601 2.0560
ITEM: ATOMS id type xs ys zs
1 1 .503339 .992098 .463325
2 1 .992740 .618514 .493854
3 1 .791396 .007699 .542655
4 1 .183700 .008169 .488318
5 1 .008406 .622005 .483285
6 1 .495914 .463790 .987409
7 1 .500489 .434991 .009161
ITEM: TIMESTEP
250
ITEM: NUMBER OF ATOMS
7
ITEM: BOX BOUNDS ss ss ss
-3.3273 3.0094
-2.5967 3.3113
-1.9758 2.0606
ITEM: ATOMS id type xs ys zs
1 1 .502624 .993355 .464014
2 1 .992059 .618587 .494464
3 1 .790220 .007313 .546207
4 1 .182286 .009202 .486758
5 1 .008594 .622651 .484364
6 1 .494127 .463885 .984812
7 1 .501140 .436064 .012766
ITEM: TIMESTEP
300
ITEM: NUMBER OF ATOMS
7
ITEM: BOX BOUNDS ss ss ss
-3.3323 3.0134
-2.6023 3.3233
-1.9707 2.0654
ITEM: ATOMS id type xs ys zs
1 1 .502891 .992457 .462174
2 1 .990752 .617588 .493190
3 1 .789609 .007389 .546900
4 1 .183252 .010291 .482901
5 1 .010588 .623161 .484337
6 1 .493576 .463302 .982177
7 1 .502641 .436162 .010753
ITEM: TIMESTEP
350
ITEM: NUMBER OF ATOMS
7
ITEM: BOX BOUNDS ss ss ss
-3.3324 2.9971
-2.6070 3.3252
-1.9789 2.0440
ITEM: ATOMS id type xs ys zs
1 1 .504605 .992634 .464787
2 1 .992576 .617529 .497922
3 1 .790998 .007925 .551249
4 1 .184978 .011235 .485528
5 1 .011703 .624415 .489805
6 1 .494269 .463827 .987350
7 1 .504874 .436899 .011525
ITEM: TIMESTEP
400
ITEM: NUMBER OF ATOMS
7
ITEM: BOX BOUNDS ss ss ss
-3.3312 3.0004
-2.6135 3.3282
-1.9891 2.0449
ITEM: ATOMS id type xs ys zs
1 1 .504257 .992465 .465507
2 1 .991363 .617595 .499558
3 1 .790455 .009310 .551818
4 1 .185532 .012897 .486351
5 1 .011875 .625242 .492238
6 1 .493402 .464492 .987603
7 1 .505192 .437407 .012722
ITEM: TIMESTEP
1
ITEM: NUMBER OF ATOMS
7
ITEM: BOX BOUNDS ss ss ss
-3.3205 2.9657
-2.6021 3.3113
-1.9607 2.0314
ITEM: ATOMS id type xs ys zs
1 1 .505420 .991347 .468837
2 1 .996245 .618345 .499471
3 1 .795740 .009753 .543960
4 1 .184235 .010616 .493130
5 1 .004003 .622106 .484723
6 1 .499230 .465623 .990950
7 1 .500481 .435535 .011957
ITEM: TIMESTEP
50
ITEM: NUMBER OF ATOMS
7
ITEM: BOX BOUNDS ss ss ss
-3.3243 2.9725
-2.6021 3.3113
-1.9607 2.0314
ITEM: ATOMS id type xs ys zs
1 1 .505303 .990842 .468788
2 1 .995796 .618632 .499333
3 1 .795015 .010155 .544429
4 1 .183968 .010613 .491939
5 1 .004139 .621810 .484960
6 1 .499606 .465925 .991613
7 1 .499925 .435305 .011829
ITEM: TIMESTEP
100
ITEM: NUMBER OF ATOMS
7
ITEM: BOX BOUNDS ss ss ss
-3.3390 2.9849
-2.6021 3.3113
-1.9607 2.0448
ITEM: ATOMS id type xs ys zs
1 1 .504720 .991290 .466495
2 1 .994573 .618695 .497061
3 1 .794078 .009529 .542686
4 1 .185331 .010388 .489654
5 1 .006463 .621421 .484655
6 1 .499161 .465695 .989744
7 1 .500134 .435306 .010198
ITEM: TIMESTEP
150
ITEM: NUMBER OF ATOMS
7
ITEM: BOX BOUNDS ss ss ss
-3.3363 3.0008
-2.6021 3.3113
-1.9684 2.0564
ITEM: ATOMS id type xs ys zs
1 1 .502752 .991737 .464717
2 1 .992385 .617895 .496042
3 1 .791506 .008614 .542017
4 1 .184727 .009855 .489321
5 1 .006588 .620626 .484885
6 1 .496530 .465536 .987941
7 1 .499185 .435428 .010530
ITEM: TIMESTEP
200
ITEM: NUMBER OF ATOMS
7
ITEM: BOX BOUNDS ss ss ss
-3.3356 3.0007
-2.6021 3.3113
-1.9692 2.0535
ITEM: ATOMS id type xs ys zs
1 1 .503315 .992021 .465394
2 1 .992731 .617419 .495360
3 1 .791340 .008570 .543609
4 1 .184560 .009245 .490394
5 1 .007037 .620488 .486018
6 1 .495598 .465339 .988402
7 1 .499492 .435764 .011394
ITEM: TIMESTEP
250
ITEM: NUMBER OF ATOMS
7
ITEM: BOX BOUNDS ss ss ss
-3.3372 3.0070
-2.6041 3.3143
-1.9729 2.0612
ITEM: ATOMS id type xs ys zs
1 1 .502911 .991758 .464865
2 1 .991359 .616975 .493678
3 1 .790624 .009187 .543825
4 1 .185211 .009196 .489945
5 1 .007642 .620232 .484628
6 1 .494198 .465236 .986316
7 1 .499445 .436433 .011926
ITEM: TIMESTEP
300
ITEM: NUMBER OF ATOMS
7
ITEM: BOX BOUNDS ss ss ss
-3.3417 3.0134
-2.6049 3.3113
-1.9828 2.0567
ITEM: ATOMS id type xs ys zs
1 1 .502783 .992743 .467120
2 1 .989557 .616856 .494194
3 1 .790116 .009551 .546599
4 1 .186224 .009054 .491599
5 1 .008872 .621074 .486360
6 1 .492525 .465592 .988054
7 1 .499589 .437381 .014177
ITEM: TIMESTEP
350
ITEM: NUMBER OF ATOMS
7
ITEM: BOX BOUNDS ss ss ss
-3.3329 3.0042
-2.6100 3.3187
-1.9844 2.0624
ITEM: ATOMS id type xs ys zs
1 1 .502669 .992473 .466933