ITEM: TIMESTEP
1
ITEM: NUMBER OF ATOMS
7
ITEM: BOX BOUNDS ss ss ss
-3.2993 2.9462
-2.5483 3.2641
-1.9171 1.9994
ITEM: ATOMS id type xs ys zs
1 1 .505126 .999588 .466942
2 1 .999253 .619697 .498132
3 1 .797505 .000574 .543628
4 1 .182262 .001735 .491259
5 1 .000621 .623427 .482786
6 1 .499054 .464559 .999167
7 1 .500457 .434046 .001326
ITEM: TIMESTEP
50
ITEM: NUMBER OF ATOMS
7
ITEM: BOX BOUNDS ss ss ss
-3.3289 2.9717
-2.5740 3.2859
-1.9470 2.0289
ITEM: ATOMS id type xs ys zs
1 1 .507249 .996861 .463972
2 1 .995068 .620577 .496384
3 1 .795469 .005289 .544243
4 1 .182964 .008002 .491475
5 1 .002664 .623561 .485958
6 1 .499739 .465585 .992447
7 1 .500119 .435958 .007199
ITEM: TIMESTEP
100
ITEM: NUMBER OF ATOMS
7
ITEM: BOX BOUNDS ss ss ss
-3.3285 2.9904
-2.5891 3.2989
-1.9515 2.0365
ITEM: ATOMS id type xs ys zs
1 1 .503391 .995628 .467868
2 1 .991860 .619207 .498290
3 1 .792668 .010517 .541362
4 1 .181997 .008734 .490182
5 1 .005031 .624843 .486116
6 1 .496499 .466661 .991942
7 1 .500282 .436821 .007527
ITEM: TIMESTEP
150
ITEM: NUMBER OF ATOMS
7
ITEM: BOX BOUNDS ss ss ss
-3.3355 2.9913
-2.5891 3.3109
-1.9525 2.0397
ITEM: ATOMS id type xs ys zs
1 1 .502605 .994935 .466591
2 1 .991034 .620664 .494362
3 1 .792634 .005317 .540335
4 1 .182178 .010180 .496293
5 1 .006405 .621850 .484656
6 1 .496153 .464403 .988306
7 1 .501740 .436296 .014428
ITEM: TIMESTEP
200
ITEM: NUMBER OF ATOMS
7
ITEM: BOX BOUNDS ss ss ss
-3.3326 2.9858
-2.5998 3.3209
-1.9640 2.0395
ITEM: ATOMS id type xs ys zs
1 1 .503468 .995910 .471940
2 1 .994550 .619247 .499432
3 1 .795323 .008898 .542788
4 1 .185399 .010713 .496802
5 1 .007417 .619335 .479060
6 1 .492190 .465673 .991477
7 1 .500893 .437087 .008758
ITEM: TIMESTEP
250
ITEM: NUMBER OF ATOMS
7
ITEM: BOX BOUNDS ss ss ss
-3.3349 2.9823
-2.6046 3.3235
-1.9607 2.0413
ITEM: ATOMS id type xs ys zs
1 1 .503082 .993906 .462665
2 1 .992748 .619062 .500516
3 1 .793891 .008222 .539469
4 1 .186073 .010747 .493671
5 1 .006209 .625909 .485952
6 1 .494305 .465102 .991707
7 1 .504198 .435837 .010866
ITEM: TIMESTEP
300
ITEM: NUMBER OF ATOMS
7
ITEM: BOX BOUNDS ss ss ss
-3.3349 2.9765
-2.6094 3.3400
-1.9711 2.0468
ITEM: ATOMS id type xs ys zs
1 1 .502051 .995067 .466594
2 1 .990526 .618476 .503354
3 1 .791822 .006670 .549900
4 1 .186572 .012252 .495048
5 1 .009270 .621740 .491544
6 1 .493943 .464080 .987958
7 1 .507095 .437023 .017911
ITEM: TIMESTEP
350
ITEM: NUMBER OF ATOMS
7
ITEM: BOX BOUNDS ss ss ss
-3.3240 2.9781
-2.6156 3.3499
-1.9621 2.0428
ITEM: ATOMS id type xs ys zs
1 1 .501230 .994068 .462825
2 1 .989552 .619729 .504173
3 1 .791321 .007575 .546212
4 1 .183974 .012042 .494866
5 1 .007996 .622006 .490487
6 1 .493526 .463303 .989594
7 1 .505576 .437548 .017585
ITEM: TIMESTEP
400
ITEM: NUMBER OF ATOMS
7
ITEM: BOX BOUNDS ss ss ss
-3.3255 2.9782
-2.6199 3.3537
-1.9627 2.0350
ITEM: ATOMS id type xs ys zs
1 1 .499409 .990072 .465142
2 1 .992816 .614637 .492007
3 1 .795637 .008758 .548156
4 1 .187956 .013346 .499944
5 1 .003902 .618458 .487206
6 1 .491558 .462153 .983858
7 1 .506746 .436812 .009812
ITEM: TIMESTEP
1
ITEM: NUMBER OF ATOMS
7
ITEM: BOX BOUNDS ss ss ss
-3.3127 2.9528
-2.5993 3.3416
-1.9435 2.0140
ITEM: ATOMS id type xs ys zs
1 1 .505832 .986086 .468892
2 1 .998097 .615180 .499228
3 1 .797042 .008919 .544752
4 1 .183497 .009956 .492983
5 1 .002874 .618884 .484805
6 1 .499715 .462918 .995024
7 1 .500719 .433054 .007986
ITEM: TIMESTEP
50
ITEM: NUMBER OF ATOMS
7
ITEM: BOX BOUNDS ss ss ss
-3.3241 2.9689
-2.5993 3.3416
-1.9435 2.0257
ITEM: ATOMS id type xs ys zs
1 1 .504549 .985497 .467756
2 1 .995668 .616196 .495640
3 1 .794993 .009067 .544011
4 1 .183745 .010971 .492578
5 1 .003725 .618563 .483057
6 1 .498425 .463841 .992948
7 1 .500526 .433090 .008791
ITEM: TIMESTEP
100
ITEM: NUMBER OF ATOMS
7
ITEM: BOX BOUNDS ss ss ss
-3.3367 2.9870
-2.5993 3.3416
-1.9497 2.0376
ITEM: ATOMS id type xs ys zs
1 1 .507040 .988236 .461874
2 1 .991743 .614051 .497639
3 1 .793087 .008482 .546399
4 1 .184548 .012260 .489211
5 1 .005063 .618233 .481732
6 1 .496280 .464979 .992798
7 1 .502675 .435574 .006974
ITEM: TIMESTEP
150
ITEM: NUMBER OF ATOMS
7
ITEM: BOX BOUNDS ss ss ss
-3.3356 3.0033
-2.5993 3.3416
-1.9587 2.0495
ITEM: ATOMS id type xs ys zs
1 1 .505248 .989115 .468233
2 1 .989658 .612047 .498436
3 1 .792073 .004888 .538868
4 1 .187445 .008268 .490670
5 1 .004669 .618585 .487877
6 1 .493946 .461198 .987779
7 1 .498550 .436102 .011130
ITEM: TIMESTEP
200
ITEM: NUMBER OF ATOMS
7
ITEM: BOX BOUNDS ss ss ss
-3.3408 2.9893
-2.5993 3.3416
-1.9565 2.0519
ITEM: ATOMS id type xs ys zs
1 1 .504233 .988663 .469897
2 1 .991727 .613872 .498340
3 1 .791593 .005991 .539162
4 1 .186135 .007801 .492610
5 1 .008702 .620354 .481371
6 1 .493210 .459208 .987401
7 1 .505168 .435636 .010094
ITEM: TIMESTEP
250
ITEM: NUMBER OF ATOMS
7
ITEM: BOX BOUNDS ss ss ss
-3.3364 2.9823
-2.6024 3.3416
-1.9565 2.0469
ITEM: ATOMS id type xs ys zs
1 1 .504687 .987525 .473720
2 1 .994911 .614572 .501264
3 1 .791173 .008009 .538910
4 1 .186028 .006171 .495482
5 1 .007931 .622575 .484460
6 1 .492493 .462421 .987839
7 1 .504682 .435378 .007419
ITEM: TIMESTEP
300
ITEM: NUMBER OF ATOMS
7
ITEM: BOX BOUNDS ss ss ss
-3.3391 2.9757
-2.6124 3.3416
-1.9628 2.0398
ITEM: ATOMS id type xs ys zs
1 1 .508562 .989873 .472697
2 1 .994323 .618217 .497557
3 1 .792104 .008840 .542771
4 1 .186869 .007975 .498774
5 1 .010370 .622199 .481705
6 1 .493878 .462225 .989879
7 1 .504300 .437398 .013829
ITEM: TIMESTEP
350
ITEM: NUMBER OF ATOMS
7
ITEM: BOX BOUNDS ss ss ss
-3.3373 2.9751
-2.6068 3.3416
-1.9596 2.0498
ITEM: ATOMS id type xs ys zs
1 1 .504403 .993219 .466674
2 1 .992970 .615413 .497204
3 1 .798247 .005294 .539732
4 1 .191988 .010169 .494814
5 1 .006129 .620234 .494444
6 1 .493959 .462270 .986597
7 1 .501867 .438118 .013229
ITEM: TIMESTEP
400
ITEM: NUMBER OF ATOMS
7
ITEM: BOX BOUNDS ss ss ss
-3.3447 2.9840
-2.6182 3.3448
-1.9623 2.0475
ITEM: ATOMS id type xs ys zs
1 1 .502952 .995710 .466306
2 1 .987717 .615033 .499623
3 1 .793084 .008261 .542873
4 1 .192285 .012669 .496089
5 1 .012252 .620456 .484739
6 1 .492788 .464097 .991008
7 1 .505848 .439367 .011570
ITEM: TIMESTEP
1
ITEM: NUMBER OF ATOMS
7
ITEM: BOX BOUNDS ss ss ss
-3.3116 2.9511
-2.6098 3.3323
-1.9424 2.0153
ITEM: ATOMS id type xs ys zs
1 1 .506044 .987810 .468456
2 1 .998687 .616923 .498768
3 1 .797235 .010730 .544344
4 1 .183841 .011711 .493076
5 1 .002440 .620408 .484420
6 1 .499668 .464669 .994442
7 1 .500805 .434869 .007377
ITEM: TIMESTEP
50
ITEM: NUMBER OF ATOMS
7
ITEM: BOX BOUNDS ss ss ss
-3.3247 2.9708
-2.6098 3.3323
-1.9424 2.0232
ITEM: ATOMS id type xs ys zs
1 1 .505076 .989181 .465530
2 1 .995467 .618314 .496546
3 1 .793506 .010350 .545493
4 1 .184924 .013328 .491022
5 1 .004776 .622082 .482657
6 1 .500487 .465014 .992394
7 1 .502117 .434518 .005405
ITEM: TIMESTEP
100
ITEM: NUMBER OF ATOMS
7
ITEM: BOX BOUNDS ss ss ss
-3.3323 2.9834
-2.6098 3.3323
-1.9522 2.0342
ITEM: ATOMS id type xs ys zs
1 1 .504153 .989792 .462067
2 1 .993338 .618055 .496028
3 1 .790916 .010764 .546683
4 1 .185602 .014113 .493664
5 1 .007339 .623638 .483587
6 1 .499629 .464523 .990826
7 1 .501632 .434573 .005740
ITEM: TIMESTEP
150
ITEM: NUMBER OF ATOMS
7
ITEM: BOX BOUNDS ss ss ss
-3.3302 2.9920
-2.6098 3.3323
-1.9636 2.0371
ITEM: ATOMS id type xs ys zs
1 1 .502475 .989067 .464532
2 1 .992993 .615670 .493870
3 1 .794507 .010692 .541817
4 1 .183367 .013257 .491869
5 1 .003822 .624918 .486116
6 1 .496938 .465496 .991175
7 1 .498618 .433656 .013455
ITEM: TIMESTEP
200
ITEM: NUMBER OF ATOMS
7
ITEM: BOX BOUNDS ss ss ss
-3.3363 2.9933
-2.6098 3.3323
-1.9717 2.0421
ITEM: ATOMS id type xs ys zs
1 1 .505234 .993842 .468509
2 1 .993592 .618879 .493909
3 1 .792669 .007081 .541382
4 1 .184381 .013760 .491124
5 1 .009709 .622561 .483613
6 1 .493799 .463927 .986127
7 1 .504323 .436873 .019675
ITEM: TIMESTEP
250
ITEM: NUMBER OF ATOMS
7
ITEM: BOX BOUNDS ss ss ss
-3.3335 2.9926
-2.6098 3.3323
-1.9734 2.0407
ITEM: ATOMS id type xs ys zs
1 1 .504806 .990339 .468938
2 1 .988910 .614043 .498085
3 1 .797857 .011446 .546224
4 1 .185902 .011893 .498377
5 1 .009978 .622950 .491252
6 1 .491432 .463741 .986191
7 1 .500642 .437805 .006982
ITEM: TIMESTEP
300
ITEM: NUMBER OF ATOMS
7
ITEM: BOX BOUNDS ss ss ss
-3.3289 3.0009
-2.6098 3.3387
-1.9757 2.0425
ITEM: ATOMS id type xs ys zs
1 1 .502102 .988579 .468402
2 1 .989356 .616518 .498024
3 1 .790644 .005313 .543753
4 1 .186146 .013357 .495030
5 1 .007036 .623614 .490570
6 1 .493770 .462026 .985857
7 1 .503036 .437366 .016137
ITEM: TIMESTEP
350
ITEM: NUMBER OF ATOMS
7
ITEM: BOX BOUNDS ss ss ss
-3.3243 2.9921
-2.6069 3.3503
-1.9701 2.0336
ITEM: ATOMS id type xs ys zs
1 1 .501869 .987990 .464106
2 1 .989939 .614232 .495736
3 1 .792343 .007750 .540568
4 1 .188515 .010161 .494780
5 1 .008600 .617909 .494080
6 1 .492966 .456809 .985457
7 1 .500536 .432827 .003738
ITEM: TIMESTEP
400
ITEM: NUMBER OF ATOMS
7
ITEM: BOX BOUNDS ss ss ss
-3.3252 2.9808
-2.6083 3.3475
-1.9734 2.0418
ITEM: ATOMS id type xs ys zs
1 1 .503847 .987468 .462216
2 1 .990626 .615354 .494907
3 1 .792632 .006109 .540015
4 1 .188553 .009143 .495407
5 1 .008315 .617669 .494393
6 1 .491805 .457007 .982119
7 1 .501529 .434899 .004713
ITEM: TIMESTEP
1
ITEM: NUMBER OF ATOMS
7
ITEM: BOX BOUNDS ss ss ss
-3.3092 2.9508
-2.6014 3.3376
-1.9575 2.0288
ITEM: ATOMS id type xs ys zs
1 1 .505860 .986828 .468577
2 1 .998364 .615244 .499027
3 1 .797200 .009854 .544170
4 1 .183394 .010639 .492981
5 1 .002074 .619310 .484412
6 1 .499464 .463601 .991454
7 1 .500666 .433458 .011403
ITEM: TIMESTEP
50
ITEM: NUMBER OF ATOMS
7
ITEM: BOX BOUNDS ss ss ss
-3.3236 2.9718
-2.6014 3.3376
-1.9575 2.0288
ITEM: ATOMS id type xs ys zs
1 1 .505407 .989465 .469076
2 1 .998104 .613903 .499670
3 1 .794833 .009380 .544401
4 1 .185319 .009333 .494119
5 1 .004165 .620877 .485963
6 1 .499174 .465675 .992888
7 1 .498178 .431205 .009884
ITEM: TIMESTEP
100
ITEM: NUMBER OF ATOMS
7
ITEM: BOX BOUNDS ss ss ss
-3.3305 2.9849
-2.6014 3.3376
-1.9575 2.0353
ITEM: ATOMS id type xs ys zs
1 1 .505423 .989083 .468702
2 1 .996879 .614420 .501136
3 1 .795194 .008709 .544096
4 1 .185512 .010026 .489887
5 1 .006220 .621159 .483651
6 1 .499053 .467442 .990492
7 1 .494017 .429279 .010750
ITEM: TIMESTEP
150
ITEM: NUMBER OF ATOMS
7
ITEM: BOX BOUNDS ss ss ss
-3.3329 2.9920
-2.6014 3.3376
-1.9616 2.0490
ITEM: ATOMS id type xs ys zs
1 1 .502484 .988951 .466795
2 1 .992087 .618070 .496597
3 1 .792461 .007205 .539965
4 1 .186267 .008908 .487576
5 1 .007761 .623316 .481606
6 1 .493867 .462059 .986622
7 1 .501842 .435414 .017762
ITEM: TIMESTEP
200
ITEM: NUMBER OF ATOMS
7
ITEM: BOX BOUNDS ss ss ss
-3.3339 3.0033
-2.6014 3.3376
-1.9664 2.0509
ITEM: ATOMS id type xs ys zs
1 1 .504222 .989696 .464641
2 1 .993283 .617415 .497240
3 1 .791947 .009974 .541552
4 1 .181820 .010646 .488247
5 1 .010876 .621760 .483732
6 1 .492425 .461631 .985445
7 1 .500392 .435362 .014175
ITEM: TIMESTEP
250
ITEM: NUMBER OF ATOMS
7
ITEM: BOX BOUNDS ss ss ss
-3.3368 3.0020
-2.6014 3.3376
-1.9679 2.0506
ITEM: ATOMS id type xs ys zs
1 1 .504264 .988025 .465409
2 1 .990437 .613458 .496286
3 1 .792603 .005771 .544473
4 1 .184435 .008815 .487531
5 1 .008948 .620875 .489284
6 1 .491809 .458716 .985967
7 1 .500743 .434546 .015931
ITEM: TIMESTEP
300
ITEM: NUMBER OF ATOMS
7
ITEM: BOX BOUNDS ss ss ss
-3.3310 2.9898
-2.6122 3.3376
-1.9602 2.0498
ITEM: ATOMS id type xs ys zs
1 1 .504217 .986563 .465836
2 1 .992715 .611596 .496269
3 1 .794660 .008606 .542502
4 1 .183999 .010579 .486975
5 1 .008940 .620707 .488041
6 1 .492138 .459037 .985208
7 1 .500969 .434032 .013741
ITEM: TIMESTEP
350
ITEM: NUMBER OF ATOMS
7
ITEM: BOX BOUNDS ss ss ss
-3.3275 2.9879
-2.6094 3.3510
-1.9629 2.0425
ITEM: ATOMS id type xs ys zs
1 1 .501767 .990864 .473679
2 1 .990911 .615199 .500605
3 1 .790773 .005826 .539570
4 1 .185530 .009822 .489989
5 1 .006226 .620204 .486038
6 1 .494027 .462314 .984578
7 1 .504013 .434660 .016278
ITEM: TIMESTEP
400
ITEM: NUMBER OF ATOMS
7
ITEM: BOX BOUNDS ss ss ss
-3.3296 2.9818
-2.6168 3.3623
-1.9603 2.0298
ITEM: ATOMS id type xs ys zs
1 1 .505446 .991389 .475487
2 1 .994445 .614651 .503126
3 1 .793206 .006036 .540837
4 1 .185830 .010886 .489174
5 1 .008125 .618493 .489300
6 1 .494996 .461460 .987437
7 1 .504128 .434936 .016593
ITEM: TIMESTEP
1
ITEM: NUMBER OF ATOMS
7
ITEM: BOX BOUNDS ss ss ss
-3.3092 2.9508
-2.6014 3.3383
-1.9575 2.0288
ITEM: ATOMS id type xs ys zs
1 1 .505738 .986653 .468609
2 1 .998797 .615394 .499848
3 1 .797284 .009946 .543832
4 1 .182988 .010623 .493194
5 1 .002234 .619147 .484408
6 1 .499455 .463343 .991603
7 1 .500581 .433540 .011330
ITEM: TIMESTEP
50
ITEM: NUMBER OF ATOMS
7
ITEM: BOX BOUNDS ss ss ss
-3.3226 2.9728
-2.6014 3.3383
-1.9575 2.0288
ITEM: ATOMS id type xs ys zs
1 1 .504900 .986275 .466208
2 1 .995810 .613789 .498535
3 1 .795027 .011860 .545177
4 1 .182438 .009545 .494109
5 1 .003136 .617540 .488276
6 1 .499655 .465359 .991401
7 1 .499664 .432429 .012553
ITEM: TIMESTEP
100
ITEM: NUMBER OF ATOMS
7
ITEM: BOX BOUNDS ss ss ss
-3.3312 2.9868
-2.6014 3.3383
-1.9575 2.0415
ITEM: ATOMS id type xs ys zs
1 1 .505233 .983269 .466882
2 1 .994250 .614685 .500294
3 1 .795424 .008404 .542556
4 1 .182249 .011313 .489594
5 1 .006080 .618387 .485607
6 1 .495776 .462155 .987315
7 1 .499954 .434925 .009982
ITEM: TIMESTEP
150
ITEM: NUMBER OF ATOMS
7
ITEM: BOX BOUNDS ss ss ss
-3.3447 2.9868
-2.6014 3.3383
-1.9575 2.0368
ITEM: ATOMS id type xs ys zs
1 1 .504121 .990213 .469947
2 1 .990608 .616605 .498103
3 1 .794797 .009813 .545822
4 1 .187137 .013538 .487976
5 1 .009534 .614278 .483981
6 1 .498510 .463568 .984963
7 1 .501922 .431501 .011414
ITEM: TIMESTEP
200
ITEM: NUMBER OF ATOMS
7
ITEM: BOX BOUNDS ss ss ss
-3.3535 2.9886
-2.6014 3.3383
-1.9603 2.0382
ITEM: ATOMS id type xs ys zs
1 1 .506481 .990206 .471170
2 1 .995217 .614656 .497974
3 1 .794450 .008667 .547561
4 1 .185259 .011696 .496555
5 1 .006981 .616147 .488185
6 1 .494997 .461194 .985314
7 1 .503911 .435495 .004739
ITEM: TIMESTEP
250
ITEM: NUMBER OF ATOMS
7
ITEM: BOX BOUNDS ss ss ss
-3.3423 2.9877
-2.6034 3.3383
-1.9623 2.0349
ITEM: ATOMS id type xs ys zs
1 1 .503176 .993379 .469895
2 1 .992794 .616061 .489391
3 1 .794804 .008705 .543835
4 1 .186999 .009323 .498297
5 1 .005162 .619421 .484509
6 1 .494514 .465298 .986318
7 1 .501552 .437199 .009899
ITEM: TIMESTEP
300
ITEM: NUMBER OF ATOMS
7
ITEM: BOX BOUNDS ss ss ss
-3.3456 2.9920
-2.6014 3.3383
-1.9664 2.0364
ITEM: ATOMS id type xs ys zs
1 1 .504384 .994976 .471044
2 1 .993228 .614840 .492681
3 1 .792868 .008179 .545780
4 1 .186527 .007175 .496487
5 1 .004555 .619762 .486920
6 1 .494606 .464215 .985065
7 1 .501224 .436415 .009630
ITEM: TIMESTEP
350
ITEM: NUMBER OF ATOMS
7
ITEM: BOX BOUNDS ss ss ss
-3.3433 2.9884
-2.6080 3.3376
-1.9661 2.0354
ITEM: ATOMS id type xs ys zs
1 1 .502209 .990586 .466927
2 1 .989318 .616139 .501903
3 1 .789524 .008338 .550718
4 1 .189458 .014510 .502042
5 1 .005353 .615845 .491907
6 1 .489141 .459621 .987798
7 1 .507136 .436202 .005264
ITEM: TIMESTEP
400
ITEM: NUMBER OF ATOMS
7
ITEM: BOX BOUNDS ss ss ss
-3.3512 2.9917
-2.6098 3.3376
-1.9741 2.0371
ITEM: ATOMS id type xs ys zs
1 1 .502436 .991113 .465279
2 1 .988643 .614579 .495577
3 1 .794067 .007490 .546341
4 1 .192601 .009637 .503309
5 1 .009782 .616796 .484318
6 1 .496534 .464686 .990519
7 1 .503778 .434157 .008479
ITEM: TIMESTEP
1
ITEM: NUMBER OF ATOMS
7
ITEM: BOX BOUNDS ss ss ss
-3.3239 2.9696
-2.6014 3.3376
-1.9575 2.0288
ITEM: ATOMS id type xs ys zs
1 1 .505326 .986655 .468546
2 1 .995563 .615588 .499415
3 1 .795003 .009610 .544495
4 1 .184352 .010148 .493380
5 1 .004263 .619457 .484290
6 1 .499322 .463425 .991824
7 1 .500464 .433691 .011160
ITEM: TIMESTEP
50
ITEM: NUMBER OF ATOMS
7
ITEM: BOX BOUNDS ss ss ss
-3.3256 2.9746
-2.6014 3.3376
-1.9575 2.0288
ITEM: ATOMS id type xs ys zs
1 1 .505410 .985941 .469037
2 1 .997132 .617515 .500299
3 1 .793480 .004561 .544922
4 1 .185514 .009503 .495533
5 1 .005944 .618400 .481691
6 1 .500469 .464712 .995229
7 1 .499042 .432782 .009907
ITEM: TIMESTEP
100
ITEM: NUMBER OF ATOMS
7
ITEM: BOX BOUNDS ss ss ss
-3.3312 2.9916
-2.6014 3.3376
-1.9575 2.0360
ITEM: ATOMS id type xs ys zs
1 1 .506869 .986445 .466662
2 1 .992346 .616797 .499323
3 1 .792808 .010679 .545273
4 1 .182057 .009286 .488315
5 1 .007423 .618771 .484498
6 1 .497687 .466047 .992267
7 1 .497342 .433130 .004819
ITEM: TIMESTEP
150
ITEM: NUMBER OF ATOMS
7
ITEM: BOX BOUNDS ss ss ss
-3.3414 2.9939
-2.6014 3.3376
-1.9587 2.0430
ITEM: ATOMS id type xs ys zs
1 1 .507955 .984858 .468482
2 1 .995801 .613971 .490888
3 1 .793146 .011377 .546468
4 1 .187010 .007638 .492383
5 1 .007984 .619705 .493009
6 1 .493534 .461998 .993843
7 1 .500571 .432460 .006110
ITEM: TIMESTEP
200
ITEM: NUMBER OF ATOMS
7
ITEM: BOX BOUNDS ss ss ss
-3.3442 2.9995
-2.6014 3.3376
-1.9690 2.0503
ITEM: ATOMS id type xs ys zs
1 1 .507643 .985661 .471369
2 1 .995201 .614648 .489372
3 1 .791691 .011081 .544262
4 1 .187050 .007555 .490771
5 1 .008839 .619619 .493224
6 1 .492630 .461747 .991696
7 1 .497198 .432535 .011129
ITEM: TIMESTEP
250
ITEM: NUMBER OF ATOMS
7
ITEM: BOX BOUNDS ss ss ss
-3.3275 2.9993
-2.6014 3.3376
-1.9713 2.0588
ITEM: ATOMS id type xs ys zs
1 1 .502208 .989891 .462640
2 1 .991314 .614520 .488837
3 1 .789743 .008659 .551172
4 1 .183781 .014488 .494676
5 1 .008434 .623234 .485026
6 1 .495189 .465146 .989895
7 1 .501825 .435273 .009794
ITEM: TIMESTEP
300
ITEM: NUMBER OF ATOMS
7
ITEM: BOX BOUNDS ss ss ss
-3.3239 3.0007
-2.6035 3.3376
-1.9835 2.0618
ITEM: ATOMS id type xs ys zs
1 1 .501255 .990171 .460799
2 1 .986084 .615802 .494356
3 1 .784902 .008048 .550861
4 1 .181215 .014597 .493321
5 1 .010017 .623782 .486869
6 1 .493405 .469978 .989558
7 1 .503772 .433648 .009516
ITEM: TIMESTEP
350
ITEM: NUMBER OF ATOMS
7
ITEM: BOX BOUNDS ss ss ss
-3.3239 2.9900
-2.6212 3.3382
-1.9812 2.0571
ITEM: ATOMS id type xs ys zs
1 1 .499211 .987310 .464304
2 1 .991165 .614160 .495772
3 1 .786064 .008580 .545301
4 1 .184749 .011041 .492080
5 1 .005679 .622158 .488383
6 1 .491014 .464706 .980379
7 1 .501447 .438369 .011806
ITEM: TIMESTEP
400
ITEM: NUMBER OF ATOMS
7
ITEM: BOX BOUNDS ss ss ss
-3.3239 2.9889
-2.6103 3.3376
-1.9794 2.0668
ITEM: ATOMS id type xs ys zs
1 1 .506934 .993251 .460534
2 1 .994012 .614472 .493188
3 1 .789169 .011747 .547555
4 1 .185545 .013008 .493022
5 1 .012959 .623943 .484407
6 1 .493521 .465957 .990088
7 1 .502774 .435502 .015662
ITEM: TIMESTEP
1
ITEM: NUMBER OF ATOMS
7
ITEM: BOX BOUNDS ss ss ss
-3.3092 2.9566
-2.6014 3.3376
-1.9580 2.0288
ITEM: ATOMS id type xs ys zs
1 1 .505172 .986882 .469176
2 1 .997921 .615689 .499376
3 1 .796633 .009463 .544379
4 1 .183046 .010149 .492922
5 1 .002407 .619551 .484566
6 1 .498835 .463607 .991503
7 1 .500345 .433545 .010979
ITEM: TIMESTEP
50
ITEM: NUMBER OF ATOMS
7
ITEM: BOX BOUNDS ss ss ss
-3.3279 2.9721
-2.6014 3.3376
-1.9580 2.0310
ITEM: ATOMS id type xs ys zs
1 1 .505581 .986140 .467441
2 1 .993711 .615944 .493647
3 1 .796198 .010092 .544113
4 1 .183970 .009884 .490966
5 1 .004264 .622740 .485869
6 1 .497273 .464058 .991674
7 1 .498765 .433168 .011159
ITEM: TIMESTEP
100
ITEM: NUMBER OF ATOMS
7
ITEM: BOX BOUNDS ss ss ss
-3.3360 2.9915
-2.6014 3.3376
-1.9580 2.0356
ITEM: ATOMS id type xs ys zs
1 1 .502171 .986454 .463903
2 1 .993403 .616870 .493537
3 1 .792213 .010809 .543369
4 1 .185434 .010003 .492032
5 1 .006263 .621852 .478419
6 1 .497917 .464340 .987845
7 1 .499776 .433955 .012570
ITEM: TIMESTEP
150
ITEM: NUMBER OF ATOMS
7
ITEM: BOX BOUNDS ss ss ss
-3.3300 2.9974
-2.6014 3.3376
-1.9580 2.0420
ITEM: ATOMS id type xs ys zs
1 1 .500152 .985813 .465331
2 1 .992700 .613662 .498237
3 1 .793673 .006745 .545552
4 1 .180762 .011856 .485999
5 1 .006674 .617293 .483036
6 1 .494254 .463266 .991627
7 1 .502494 .433811 .009195
ITEM: TIMESTEP
200
ITEM: NUMBER OF ATOMS
7
ITEM: BOX BOUNDS ss ss ss
-3.3314 2.9796
-2.6054 3.3376
-1.9625 2.0467
ITEM: ATOMS id type xs ys zs
1 1 .505147 .987589 .464641
2 1 .991665 .614349 .494143
3 1 .791282 .007784 .548819
4 1 .187190 .008670 .491949
5 1 .007673 .620129 .489607
6 1 .495310 .461752 .987599
7 1 .504058 .435782 .014080
ITEM: TIMESTEP
250
ITEM: NUMBER OF ATOMS
7
ITEM: BOX BOUNDS ss ss ss
-3.3222 2.9876
-2.6181 3.3376
-1.9580 2.0592
ITEM: ATOMS id type xs ys zs
1 1 .501549 .991270 .465830
2 1 .991231 .617812 .492391
3 1 .791348 .008504 .540383
4 1 .187155 .008190 .486696
5 1 .005386 .621284 .490443
6 1 .493088 .462833 .985172
7 1 .503044 .435082 .015565
ITEM: TIMESTEP
300
ITEM: NUMBER OF ATOMS
7
ITEM: BOX BOUNDS ss ss ss
-3.3271 2.9908
-2.6169 3.3376
-1.9649 2.0559
ITEM: ATOMS id type xs ys zs
1 1 .501627 .991969 .467981
2 1 .990939 .617739 .491869
3 1 .791164 .006075 .540453
4 1 .187265 .007752 .485772
5 1 .006016 .621134 .489244
6 1 .492223 .461921 .986908
7 1 .504180 .435566 .015768
ITEM: TIMESTEP
350
ITEM: NUMBER OF ATOMS
7
ITEM: BOX BOUNDS ss ss ss
-3.3231 2.9906
-2.6173 3.3376
-1.9634 2.0576
ITEM: ATOMS id type xs ys zs
1 1 .501997 .993670 .466302
2 1 .990846 .619513 .490581
3 1 .788663 .004971 .540402
4 1 .187012 .007255 .484739
5 1 .004250 .621369 .492674
6 1 .492957 .461465 .987233
7 1 .505582 .434596 .016908
ITEM: TIMESTEP
400
ITEM: NUMBER OF ATOMS
7
ITEM: BOX BOUNDS ss ss ss
-3.3247 2.9898
-2.6207 3.3376
-1.9650 2.0586
ITEM: ATOMS id type xs ys zs
1 1 .506110 .989872 .471068
2 1 .989925 .610509 .488407
3 1 .793607 .008498 .547167
4 1 .188175 .016103 .489659
5 1 .005570 .624160 .487728
6 1 .489432 .458383 .986815
7 1 .502697 .439857 .012606
ITEM: TIMESTEP
1
ITEM: NUMBER OF ATOMS
7
ITEM: BOX BOUNDS ss ss ss
-3.3074 2.9592
-2.5963 3.3239
-1.9409 2.0453
ITEM: ATOMS id type xs ys zs
1 1 .504908 .989249 .464312
2 1 .997293 .616816 .495483
3 1 .796211 .008818 .539490
4 1 .182665 .009751 .488735
5 1 .002046 .620517 .480358
6 1 .498617 .464075 .987989
7 1 .499963 .434336 .006940
ITEM: TIMESTEP
50
ITEM: NUMBER OF ATOMS
7
ITEM: BOX BOUNDS ss ss ss
-3.3313 2.9748
-2.5963 3.3239
-1.9409 2.0453
ITEM: ATOMS id type xs ys zs
1 1 .505066 .989564 .464186
2 1 .995384 .617575 .496000
3 1 .793238 .008890 .536654
4 1 .185394 .007509 .492842
5 1 .006333 .620084 .482849
6 1 .499766 .465752 .989007
7 1 .501313 .434132 .008234
ITEM: TIMESTEP
100
ITEM: NUMBER OF ATOMS
7
ITEM: BOX BOUNDS ss ss ss
-3.3335 2.9914
-2.5963 3.3239
-1.9512 2.0453
ITEM: ATOMS id type xs ys zs
1 1 .503150 .988054 .460013
2 1 .992305 .618604 .500303
3 1 .790999 .009385 .544430
4 1 .186910 .011259 .491818
5 1 .006189 .621779 .479915
6 1 .495217 .463641 .990502
7 1 .501475 .433468 .009674
ITEM: TIMESTEP
150
ITEM: NUMBER OF ATOMS
7
ITEM: BOX BOUNDS ss ss ss
-3.3377 3.0029
-2.5963 3.3239
-1.9608 2.0574
ITEM: ATOMS id type xs ys zs
1 1 .501547 .989873 .456436
2 1 .991566 .618667 .498512
3 1 .789506 .010160 .540108
4 1 .184935 .007939 .495081
5 1 .004178 .620296 .483636
6 1 .492276 .463505 .987399
7 1 .502628 .433445 .009336
ITEM: TIMESTEP
200
ITEM: NUMBER OF ATOMS
7
ITEM: BOX BOUNDS ss ss ss
-3.3393 2.9981
-2.5994 3.3239
-1.9710 2.0648
ITEM: ATOMS id type xs ys zs
1 1 .502232 .989385 .458152
2 1 .992947 .620477 .498509
3 1 .790626 .010088 .539154
4 1 .184352 .008743 .494125
5 1 .005942 .617356 .485713
6 1 .493045 .462401 .986569
7 1 .505162 .434818 .012039
ITEM: TIMESTEP
250
ITEM: NUMBER OF ATOMS
7
ITEM: BOX BOUNDS ss ss ss
-3.3379 3.0021
-2.5963 3.3239
-1.9816 2.0675
ITEM: ATOMS id type xs ys zs
1 1 .504858 .993414 .465588
2 1 .993382 .616374 .499351
3 1 .791061 .007857 .547297
4 1 .180691 .007610 .490665
5 1 .008896 .618031 .491064
6 1 .495277 .464416 .983988
7 1 .505638 .436504 .021036
ITEM: TIMESTEP
300
ITEM: NUMBER OF ATOMS
7
ITEM: BOX BOUNDS ss ss ss
-3.3330 2.9900
-2.5982 3.3239
-1.9716 2.0658
ITEM: ATOMS id type xs ys zs
1 1 .498468 .991409 .461041
2 1 .992423 .619812 .492707
3 1 .793356 .005903 .547002
4 1 .182745 .009564 .495457
5 1 .005052 .619467 .483062
6 1 .494370 .466157 .982199
7 1 .501196 .431083 .011204
ITEM: TIMESTEP
350
ITEM: NUMBER OF ATOMS
7
ITEM: BOX BOUNDS ss ss ss
-3.3340 2.9917
-2.5963 3.3239
-1.9693 2.0453
ITEM: ATOMS id type xs ys zs
1 1 .502651 .994015 .466242
2 1 .992920 .616821 .492861
3 1 .795450 .006088 .545923
4 1 .184277 .008486 .489976
5 1 .011384 .621442 .487107
6 1 .496458 .460994 .985498
7 1 .502794 .432513 .013958
ITEM: TIMESTEP
400
ITEM: NUMBER OF ATOMS
7
ITEM: BOX BOUNDS ss ss ss
-3.3441 2.9920
-2.6044 3.3239
-1.9766 2.0453
ITEM: ATOMS id type xs ys zs
1 1 .502564 .993285 .467357
2 1 .991755 .618088 .494064
3 1 .794516 .006890 .546016
4 1 .184512 .012246 .488214
5 1 .013547 .622110 .488301
6 1 .497831 .464418 .986140
7 1 .504236 .431514 .015121
ITEM: TIMESTEP
1
ITEM: NUMBER OF ATOMS
7
ITEM: BOX BOUNDS ss ss ss
-3.3205 2.9545
-2.5898 3.3113
-1.9597 2.0230
ITEM: ATOMS id type xs ys zs
1 1 .506458 .991412 .469224
2 1 .998192 .617698 .500380
3 1 .797307 .007803 .544494
4 1 .184643 .008514 .493889
5 1 .003801 .621369 .485328
6 1 .499796 .464367 .993544
7 1 .501335 .434668 .012068
ITEM: TIMESTEP
50
ITEM: NUMBER OF ATOMS
7
ITEM: BOX BOUNDS ss ss ss
-3.3305 2.9738
-2.5898 3.3113
-1.9597 2.0230
ITEM: ATOMS id type xs ys zs
1 1 .505671 .990715 .469835
2 1 .994589 .617822 .496788
3 1 .795963 .006505 .542529
4 1 .185063 .006861 .494260
5 1 .004322 .623058 .484548
6 1 .501514 .465465 .996929
7 1 .500131 .432948 .011674
ITEM: TIMESTEP
100
ITEM: NUMBER OF ATOMS
7
ITEM: BOX BOUNDS ss ss ss
-3.3360 2.9864
-2.5898 3.3113
-1.9597 2.0405
ITEM: ATOMS id type xs ys zs
1 1 .503953 .990539 .468849
2 1 .993777 .619528 .498659
3 1 .790499 .010504 .546113
4 1 .185694 .009496 .491360
5 1 .010703 .620182 .482659
6 1 .499482 .463750 .990646
7 1 .498511 .434192 .009485
ITEM: TIMESTEP
150
ITEM: NUMBER OF ATOMS
7
ITEM: BOX BOUNDS ss ss ss
-3.3382 2.9949
-2.5898 3.3113
-1.9615 2.0525
ITEM: ATOMS id type xs ys zs
1 1 .503831 .989686 .469430
2 1 .992572 .620889 .489795
3 1 .793160 .009260 .541521
4 1 .186899 .006679 .495401
5 1 .006095 .622866 .484185
6 1 .495715 .460515 .984114
7 1 .500608 .433141 .013043
ITEM: TIMESTEP
200
ITEM: NUMBER OF ATOMS
7
ITEM: BOX BOUNDS ss ss ss
-3.3356 3.0045
-2.5927 3.3113
-1.9601 2.0560
ITEM: ATOMS id type xs ys zs
1 1 .504853 .993122 .457821
2 1 .994028 .621537 .492906
3 1 .788371 .005871 .537168
4 1 .181755 .010159 .489139
5 1 .010622 .621252 .484989
6 1 .495738 .463277 .992365
7 1 .503205 .434929 .006890
ITEM: TIMESTEP
250
ITEM: NUMBER OF ATOMS
7
ITEM: BOX BOUNDS ss ss ss
-3.3273 3.0094
-2.5967 3.3113
-1.9758 2.0606
ITEM: ATOMS id type xs ys zs
1 1 .503111 .997566 .464693
2 1 .990934 .618949 .494844
3 1 .790243 .006466 .547410
4 1 .180437 .011686 .486302
5 1 .009936 .626124 .485558
6 1 .497501 .459981 .987426
7 1 .501881 .436929 .013068
ITEM: TIMESTEP
300
ITEM: NUMBER OF ATOMS
7
ITEM: BOX BOUNDS ss ss ss
-3.3323 3.0134
-2.6023 3.3233
-1.9707 2.0654
ITEM: ATOMS id type xs ys zs
1 1 .501061 .991279 .468144
2 1 .991970 .617039 .492704
3 1 .790492 .006134 .545856
4 1 .181649 .012881 .487719
5 1 .011443 .621455 .480897
6 1 .494186 .461594 .984785
7 1 .501398 .434609 .012240
ITEM: TIMESTEP
350
ITEM: NUMBER OF ATOMS
7
ITEM: BOX BOUNDS ss ss ss
-3.3324 2.9971
-2.6070 3.3252
-1.9789 2.0440
ITEM: ATOMS id type xs ys zs
1 1 .503853 .989134 .468775
2 1 .996334 .616527 .494713
3 1 .788902 .006777 .551454
4 1 .186330 .009658 .491199
5 1 .010863 .621854 .485146
6 1 .493435 .463043 .987199
7 1 .501880 .438474 .010074
ITEM: TIMESTEP
400
ITEM: NUMBER OF ATOMS
7
ITEM: BOX BOUNDS ss ss ss
-3.3312 3.0004
-2.6135 3.3282
-1.9891 2.0449
ITEM: ATOMS id type xs ys zs
1 1 .504297 .994393 .463059
2 1 .988582 .616741 .500532
3 1 .788290 .010465 .554549
4 1 .183727 .012020 .487254
5 1 .014209 .624849 .491531
6 1 .497663 .465932 .986976
7 1 .503844 .437304 .014065
ITEM: TIMESTEP
1
ITEM: NUMBER OF ATOMS
7
ITEM: BOX BOUNDS ss ss ss
-3.3205 2.9657
-2.6021 3.3113
-1.9607 2.0314
ITEM: ATOMS id type xs ys zs
1 1 .505323 .991163 .469105
2 1 .996332 .618086 .499744
3 1 .795594 .009803 .543944
4 1 .184543 .010450 .493166
5 1 .003655 .622023 .484918
6 1 .499247 .465716 .991629
7 1 .500219 .435833 .011599
ITEM: TIMESTEP
50
ITEM: NUMBER OF ATOMS
7
ITEM: BOX BOUNDS ss ss ss
-3.3243 2.9725
-2.6021 3.3113
-1.9607 2.0314
ITEM: ATOMS id type xs ys zs
1 1 .506291 .989804 .471199
2 1 .995239 .620698 .497393
3 1 .794063 .011748 .544391
4 1 .184024 .010389 .495918
5 1 .003442 .619453 .480827
6 1 .497888 .466313 .988315
7 1 .499212 .436202 .007679
ITEM: TIMESTEP
100
ITEM: NUMBER OF ATOMS
7
ITEM: BOX BOUNDS ss ss ss
-3.3390 2.9849
-2.6021 3.3113
-1.9607 2.0448
ITEM: ATOMS id type xs ys zs
1 1 .503586 .990361 .468581
2 1 .995911 .616942 .496204
3 1 .794503 .009324 .543152
4 1 .182441 .012451 .492437
5 1 .007153 .618065 .484797
6 1 .497820 .467084 .990874
7 1 .498322 .435877 .012219
ITEM: TIMESTEP
150
ITEM: NUMBER OF ATOMS
7
ITEM: BOX BOUNDS ss ss ss
-3.3363 3.0008
-2.6021 3.3113
-1.9684 2.0564
ITEM: ATOMS id type xs ys zs
1 1 .501281 .989356 .463799
2 1 .996154 .618583 .495337
3 1 .793013 .013281 .537004
4 1 .183957 .008159 .486848
5 1 .006174 .617369 .489798
6 1 .499450 .463124 .990391
7 1 .500025 .431845 .010342
ITEM: TIMESTEP
200
ITEM: NUMBER OF ATOMS
7
ITEM: BOX BOUNDS ss ss ss
-3.3356 3.0007
-2.6021 3.3113
-1.9692 2.0535
ITEM: ATOMS id type xs ys zs
1 1 .505092 .991665 .461135
2 1 .994665 .617060 .497243
3 1 .790921 .007997 .537942
4 1 .184516 .010205 .487341
5 1 .007365 .618249 .483772
6 1 .495056 .465662 .995083
7 1 .500063 .438309 .012466
ITEM: TIMESTEP
250
ITEM: NUMBER OF ATOMS
7
ITEM: BOX BOUNDS ss ss ss
-3.3372 3.0070
-2.6041 3.3143
-1.9729 2.0612
ITEM: ATOMS id type xs ys zs
1 1 .503931 .990333 .466186
2 1 .991170 .617926 .488836
3 1 .791000 .010846 .542160
4 1 .187720 .011412 .496565
5 1 .007699 .623369 .491579
6 1 .493265 .467532 .984354
7 1 .501664 .435452 .010068
ITEM: TIMESTEP
300
ITEM: NUMBER OF ATOMS
7
ITEM: BOX BOUNDS ss ss ss
-3.3417 3.0134
-2.6049 3.3113
-1.9828 2.0567
ITEM: ATOMS id type xs ys zs
1 1 .501220 .994637 .465570
2 1 .989211 .619212 .494530
3 1 .792519 .012649 .545495
4 1 .188244 .008039 .496602
5 1 .008815 .616312 .483581
6 1 .492010 .466651 .989187
7 1 .496134 .438722 .010823
ITEM: TIMESTEP
350
ITEM: NUMBER OF ATOMS
7
ITEM: BOX BOUNDS ss ss ss
-3.3329 3.0042
-2.6100 3.3187
-1.9844 2.0624
ITEM: ATOMS id type xs ys zs
1 1 .499105 .992590 .466327