ITEM: TIMESTEP
1
ITEM: NUMBER OF ATOMS
7
ITEM: BOX BOUNDS ss ss ss
-2.8596 3.3548
-2.5045 3.3202
-1.9586 1.9965
ITEM: ATOMS id type xs ys zs
1 1 .507354 .999386 .503913
2 1 .999319 .614767 .581560
3 1 .799655 .000698 .494693
4 1 .183526 .001083 .475253
5 1 .000689 .626924 .474842
6 1 .479809 .440841 .998808
7 1 .507378 .453042 .001152
ITEM: TIMESTEP
50
ITEM: NUMBER OF ATOMS
7
ITEM: BOX BOUNDS ss ss ss
-2.8824 3.3772
-2.5240 3.3429
-1.9832 2.0178
ITEM: ATOMS id type xs ys zs
1 1 .506524 .996122 .505519
2 1 .994580 .613799 .578282
3 1 .797465 .003392 .496571
4 1 .186462 .003859 .475074
5 1 .004389 .625946 .475271
6 1 .479648 .441654 .994578
7 1 .508882 .453962 .009363
ITEM: TIMESTEP
100
ITEM: NUMBER OF ATOMS
7
ITEM: BOX BOUNDS ss ss ss
-2.8931 3.3867
-2.5392 3.3523
-1.9939 2.0296
ITEM: ATOMS id type xs ys zs
1 1 .507892 .994602 .503504
2 1 .993552 .613464 .577042
3 1 .798394 .005951 .500022
4 1 .188292 .006588 .475013
5 1 .006238 .623078 .476190
6 1 .479859 .441438 .990967
7 1 .510487 .454576 .012822
ITEM: TIMESTEP
150
ITEM: NUMBER OF ATOMS
7
ITEM: BOX BOUNDS ss ss ss
-2.8978 3.3911
-2.5430 3.3597
-2.0008 2.0351
ITEM: ATOMS id type xs ys zs
1 1 .506677 .994801 .500909
2 1 .989641 .614361 .573375
3 1 .798031 .005539 .505192
4 1 .188158 .004540 .477271
5 1 .008381 .624209 .481186
6 1 .480294 .442328 .991890
7 1 .510031 .451743 .013858
ITEM: TIMESTEP
200
ITEM: NUMBER OF ATOMS
7
ITEM: BOX BOUNDS ss ss ss
-2.9092 3.3972
-2.5482 3.3657
-1.9906 2.0347
ITEM: ATOMS id type xs ys zs
1 1 .505970 .995394 .503215
2 1 .990504 .614894 .568062
3 1 .795858 .003076 .493261
4 1 .189545 .008055 .475264
5 1 .011336 .626135 .473404
6 1 .483143 .444352 .987973
7 1 .508359 .454355 .014610
ITEM: TIMESTEP
250
ITEM: NUMBER OF ATOMS
7
ITEM: BOX BOUNDS ss ss ss
-2.8990 3.3929
-2.5559 3.3675
-2.0027 2.0350
ITEM: ATOMS id type xs ys zs
1 1 .506544 .994398 .505570
2 1 .987942 .614417 .573340
3 1 .797392 .005729 .504800
4 1 .190398 .006530 .474787
5 1 .009175 .621583 .474018
6 1 .479180 .440580 .992614
7 1 .509403 .454007 .018310
ITEM: TIMESTEP
300
ITEM: NUMBER OF ATOMS
7
ITEM: BOX BOUNDS ss ss ss
-2.8970 3.3906
-2.5598 3.3746
-1.9967 2.0397
ITEM: ATOMS id type xs ys zs
1 1 .506507 .995267 .501829
2 1 .993451 .613351 .563802
3 1 .796996 .006891 .494547
4 1 .189883 .009208 .472281
5 1 .008850 .624874 .471451
6 1 .482280 .443406 .986174
7 1 .509204 .454093 .015176
ITEM: TIMESTEP
350
ITEM: NUMBER OF ATOMS
7
ITEM: BOX BOUNDS ss ss ss
-2.8976 3.3864
-2.5615 3.3809
-1.9973 2.0453
ITEM: ATOMS id type xs ys zs
1 1 .508460 .994443 .500872
2 1 .991905 .611077 .569048
3 1 .799447 .005364 .506885
4 1 .189466 .010357 .474739
5 1 .009990 .625435 .473123
6 1 .480987 .440021 .986206
7 1 .513813 .453858 .017114
ITEM: TIMESTEP
400
ITEM: NUMBER OF ATOMS
7
ITEM: BOX BOUNDS ss ss ss
-2.8973 3.3859
-2.5666 3.3864
-1.9997 2.0541
ITEM: ATOMS id type xs ys zs
1 1 .505627 .993527 .506170
2 1 .991899 .611888 .563426
3 1 .798062 .005468 .495364
4 1 .187892 .011928 .477157
5 1 .008209 .624698 .472080
6 1 .482881 .441300 .985291
7 1 .512130 .454485 .019280
ITEM: TIMESTEP
1
ITEM: NUMBER OF ATOMS
7
ITEM: BOX BOUNDS ss ss ss
-2.8677 3.3645
-2.5476 3.3673
-1.9585 2.0206
ITEM: ATOMS id type xs ys zs
1 1 .507209 .991429 .500851
2 1 .997766 .612675 .578014
3 1 .798666 .007972 .491716
4 1 .184281 .008357 .472351
5 1 .001982 .624655 .471953
6 1 .479735 .441409 .992759
7 1 .507230 .453414 .001139
ITEM: TIMESTEP
50
ITEM: NUMBER OF ATOMS
7
ITEM: BOX BOUNDS ss ss ss
-2.8841 3.3768
-2.5476 3.3673
-1.9865 2.0225
ITEM: ATOMS id type xs ys zs
1 1 .507034 .993210 .504524
2 1 .994186 .611419 .578423
3 1 .797273 .005778 .495802
4 1 .185966 .008533 .475792
5 1 .006006 .625457 .474369
6 1 .479556 .441103 .993609
7 1 .508534 .453637 .007921
ITEM: TIMESTEP
100
ITEM: NUMBER OF ATOMS
7
ITEM: BOX BOUNDS ss ss ss
-2.8920 3.3873
-2.5476 3.3673
-1.9930 2.0265
ITEM: ATOMS id type xs ys zs
1 1 .506887 .991848 .508324
2 1 .993995 .611743 .577051
3 1 .795617 .007006 .499347
4 1 .186815 .009510 .475559
5 1 .007735 .626761 .471398
6 1 .479180 .440431 .994804
7 1 .508765 .454222 .011360
ITEM: TIMESTEP
150
ITEM: NUMBER OF ATOMS
7
ITEM: BOX BOUNDS ss ss ss
-2.9016 3.3973
-2.5476 3.3673
-1.9961 2.0286
ITEM: ATOMS id type xs ys zs
1 1 .505447 .994577 .510542
2 1 .990828 .611539 .575619
3 1 .793454 .005628 .502204
4 1 .185963 .010795 .477139
5 1 .008802 .627782 .469745
6 1 .478839 .439273 .993703
7 1 .508637 .454653 .014140
ITEM: TIMESTEP
200
ITEM: NUMBER OF ATOMS
7
ITEM: BOX BOUNDS ss ss ss
-2.9126 3.3949
-2.5476 3.3776
-2.0073 2.0400
ITEM: ATOMS id type xs ys zs
1 1 .509003 .992272 .507933
2 1 .991139 .610574 .571119
3 1 .795883 .003669 .498588
4 1 .190059 .009470 .476868
5 1 .010097 .625549 .475898
6 1 .479359 .441921 .988833
7 1 .511238 .452628 .017825
ITEM: TIMESTEP
250
ITEM: NUMBER OF ATOMS
7
ITEM: BOX BOUNDS ss ss ss
-2.9203 3.3980
-2.5488 3.3730
-1.9966 2.0443
ITEM: ATOMS id type xs ys zs
1 1 .508875 .991576 .504075
2 1 .990051 .610917 .566854
3 1 .796650 .001471 .495657
4 1 .192281 .007081 .474568
5 1 .010687 .622757 .475998
6 1 .480903 .441253 .986168
7 1 .511523 .453324 .016039
ITEM: TIMESTEP
300
ITEM: NUMBER OF ATOMS
7
ITEM: BOX BOUNDS ss ss ss
-2.8997 3.3915
-2.5588 3.3801
-1.9978 2.0514
ITEM: ATOMS id type xs ys zs
1 1 .505176 .989731 .502096
2 1 .989416 .612757 .565685
3 1 .797642 .004550 .499889
4 1 .191081 .007010 .467216
5 1 .006444 .621270 .476304
6 1 .479286 .438987 .981600
7 1 .511993 .452100 .012337
ITEM: TIMESTEP
350
ITEM: NUMBER OF ATOMS
7
ITEM: BOX BOUNDS ss ss ss
-2.9025 3.3895
-2.5659 3.3809
-1.9944 2.0510
ITEM: ATOMS id type xs ys zs
1 1 .504203 .990563 .501012
2 1 .989398 .613621 .563029
3 1 .798205 .005647 .500723
4 1 .192920 .008619 .465070
5 1 .007726 .622263 .476619
6 1 .479076 .439930 .983062
7 1 .511987 .453207 .014262
ITEM: TIMESTEP
400
ITEM: NUMBER OF ATOMS
7
ITEM: BOX BOUNDS ss ss ss
-2.9011 3.3853
-2.5722 3.3864
-1.9941 2.0437
ITEM: ATOMS id type xs ys zs
1 1 .506427 .993286 .502767
2 1 .989409 .613584 .562231
3 1 .797392 .009740 .501791
4 1 .190337 .010239 .466822
5 1 .007137 .622437 .477368
6 1 .480044 .443187 .985038
7 1 .511771 .455238 .013313
ITEM: TIMESTEP
1
ITEM: NUMBER OF ATOMS
7
ITEM: BOX BOUNDS ss ss ss
-2.8712 3.3621
-2.5643 3.3666
-1.9674 2.0151
ITEM: ATOMS id type xs ys zs
1 1 .507674 .991576 .502637
2 1 .998149 .613849 .579765
3 1 .799084 .010767 .493508
4 1 .184832 .011160 .474180
5 1 .002540 .625788 .473791
6 1 .480212 .443037 .994146
7 1 .507705 .455014 .003352
ITEM: TIMESTEP
50
ITEM: NUMBER OF ATOMS
7
ITEM: BOX BOUNDS ss ss ss
-2.8799 3.3790
-2.5643 3.3666
-1.9805 2.0237
ITEM: ATOMS id type xs ys zs
1 1 .506511 .991853 .504143
2 1 .995162 .613303 .577220
3 1 .798040 .009025 .493939
4 1 .186169 .011225 .474293
5 1 .004062 .625161 .474787
6 1 .479948 .442799 .992634
7 1 .508152 .454917 .007689
ITEM: TIMESTEP
100
ITEM: NUMBER OF ATOMS
7
ITEM: BOX BOUNDS ss ss ss
-2.8925 3.3928
-2.5643 3.3666
-1.9984 2.0305
ITEM: ATOMS id type xs ys zs
1 1 .506928 .993210 .505001
2 1 .990973 .614021 .578557
3 1 .794361 .010325 .497718
4 1 .185957 .011715 .475750
5 1 .006610 .625630 .476124
6 1 .477633 .444183 .991621
7 1 .508194 .455590 .013002
ITEM: TIMESTEP
150
ITEM: NUMBER OF ATOMS
7
ITEM: BOX BOUNDS ss ss ss
-2.9060 3.3977
-2.5643 3.3666
-1.9968 2.0331
ITEM: ATOMS id type xs ys zs
1 1 .505115 .993288 .508126
2 1 .989035 .614713 .578194
3 1 .795541 .010834 .497298
4 1 .187849 .009869 .473936
5 1 .007678 .626017 .477910
6 1 .480000 .441873 .990404
7 1 .507997 .454578 .013756
ITEM: TIMESTEP
200
ITEM: NUMBER OF ATOMS
7
ITEM: BOX BOUNDS ss ss ss
-2.9002 3.3960
-2.5643 3.3666
-2.0023 2.0407
ITEM: ATOMS id type xs ys zs
1 1 .506629 .995025 .504003
2 1 .991884 .615293 .572045
3 1 .797151 .005832 .494646
4 1 .185829 .011999 .477601
5 1 .008078 .627632 .475769
6 1 .482821 .440366 .984500
7 1 .508997 .452734 .015383
ITEM: TIMESTEP
250
ITEM: NUMBER OF ATOMS
7
ITEM: BOX BOUNDS ss ss ss
-2.9104 3.3890
-2.5643 3.3690
-2.0012 2.0451
ITEM: ATOMS id type xs ys zs
1 1 .508370 .995820 .505227
2 1 .992254 .609421 .574219
3 1 .796235 .006753 .499757
4 1 .190060 .012114 .475791
5 1 .009370 .627619 .473255
6 1 .482104 .445971 .983100
7 1 .510312 .454058 .012509
ITEM: TIMESTEP
300
ITEM: NUMBER OF ATOMS
7
ITEM: BOX BOUNDS ss ss ss
-2.9136 3.3913
-2.5643 3.3727
-1.9953 2.0412
ITEM: ATOMS id type xs ys zs
1 1 .505996 .992984 .505543
2 1 .990638 .613713 .573193
3 1 .797676 .006483 .497064
4 1 .188511 .010596 .476348
5 1 .009459 .626201 .475013
6 1 .480985 .441879 .985813
7 1 .510439 .455360 .013966
ITEM: TIMESTEP
350
ITEM: NUMBER OF ATOMS
7
ITEM: BOX BOUNDS ss ss ss
-2.8975 3.3930
-2.5714 3.3709
-1.9907 2.0458
ITEM: ATOMS id type xs ys zs
1 1 .503065 .992710 .507978
2 1 .987583 .615795 .573495
3 1 .794901 .009172 .500819
4 1 .187360 .008313 .476515
5 1 .006995 .624898 .474870
6 1 .477561 .442695 .986750
7 1 .508399 .455472 .012948
ITEM: TIMESTEP
400
ITEM: NUMBER OF ATOMS
7
ITEM: BOX BOUNDS ss ss ss
-2.9051 3.3924
-2.5715 3.3828
-1.9896 2.0383
ITEM: ATOMS id type xs ys zs
1 1 .502415 .989950 .510891
2 1 .987116 .613229 .575382
3 1 .794729 .010294 .504367
4 1 .190094 .008069 .475077
5 1 .007042 .625521 .472533
6 1 .475142 .441334 .991644
7 1 .508811 .455466 .013059
ITEM: TIMESTEP
1
ITEM: NUMBER OF ATOMS
7
ITEM: BOX BOUNDS ss ss ss
-2.8872 3.3621
-2.5643 3.3713
-1.9674 2.0151
ITEM: ATOMS id type xs ys zs
1 1 .508942 .990779 .502648
2 1 .998151 .613355 .579769
3 1 .799600 .010769 .493510
4 1 .186913 .011148 .474185
5 1 .005100 .625288 .473786
6 1 .481543 .442678 .994139
7 1 .508969 .454652 .003351
ITEM: TIMESTEP
50
ITEM: NUMBER OF ATOMS
7
ITEM: BOX BOUNDS ss ss ss
-2.8872 3.3819
-2.5643 3.3713
-1.9876 2.0200
ITEM: ATOMS id type xs ys zs
1 1 .507148 .992277 .507171
2 1 .994277 .613202 .579919
3 1 .798064 .010729 .496144
4 1 .186709 .010788 .476150
5 1 .004980 .625414 .474655
6 1 .479139 .443545 .992926
7 1 .508286 .455236 .009467
ITEM: TIMESTEP
100
ITEM: NUMBER OF ATOMS
7
ITEM: BOX BOUNDS ss ss ss
-2.8956 3.3912
-2.5643 3.3713
-1.9973 2.0284
ITEM: ATOMS id type xs ys zs
1 1 .504787 .992090 .506455
2 1 .991400 .613803 .576207
3 1 .795132 .008993 .494442
4 1 .183758 .011789 .481802
5 1 .004304 .622609 .479486
6 1 .478825 .442763 .989612
7 1 .508773 .457332 .014635
ITEM: TIMESTEP
150
ITEM: NUMBER OF ATOMS
7
ITEM: BOX BOUNDS ss ss ss
-2.9051 3.3948
-2.5643 3.3713
-2.0122 2.0379
ITEM: ATOMS id type xs ys zs
1 1 .505648 .994167 .506012
2 1 .992472 .611360 .580868
3 1 .797807 .010053 .501068
4 1 .187593 .012953 .476517
5 1 .006961 .624666 .478939
6 1 .479778 .442872 .988546
7 1 .509116 .455607 .020468
ITEM: TIMESTEP
200
ITEM: NUMBER OF ATOMS
7
ITEM: BOX BOUNDS ss ss ss
-2.9102 3.3958
-2.5643 3.3713
-2.0016 2.0380
ITEM: ATOMS id type xs ys zs
1 1 .505573 .993698 .506978
2 1 .992262 .610594 .577842
3 1 .795669 .008399 .497522
4 1 .189797 .010630 .473535
5 1 .009681 .626155 .477632
6 1 .481079 .442238 .990272
7 1 .508413 .456135 .015834
ITEM: TIMESTEP
250
ITEM: NUMBER OF ATOMS
7
ITEM: BOX BOUNDS ss ss ss
-2.9184 3.4124
-2.5643 3.3713
-2.0065 2.0553
ITEM: ATOMS id type xs ys zs
1 1 .505440 .995409 .505524
2 1 .989995 .613460 .572510
3 1 .796162 .011412 .495754
4 1 .189686 .012685 .471512
5 1 .009285 .622999 .470327
6 1 .480893 .443309 .982015
7 1 .508075 .456829 .020610
ITEM: TIMESTEP
300
ITEM: NUMBER OF ATOMS
7
ITEM: BOX BOUNDS ss ss ss
-2.9239 3.3992
-2.5643 3.3754
-1.9971 2.0433
ITEM: ATOMS id type xs ys zs
1 1 .506623 .994877 .505189
2 1 .992760 .615140 .572056
3 1 .796772 .009363 .495870
4 1 .189685 .012044 .469782
5 1 .011301 .623483 .472110
6 1 .483887 .440871 .983667
7 1 .510164 .457403 .017915
ITEM: TIMESTEP
350
ITEM: NUMBER OF ATOMS
7
ITEM: BOX BOUNDS ss ss ss
-2.9243 3.3971
-2.5643 3.3742
-1.9975 2.0415
ITEM: ATOMS id type xs ys zs
1 1 .506135 .993111 .504765
2 1 .992078 .614153 .572260
3 1 .796966 .009123 .496630
4 1 .190878 .012485 .469581
5 1 .011496 .623344 .475627
6 1 .483568 .440990 .984900
7 1 .511005 .458396 .016291
ITEM: TIMESTEP
400
ITEM: NUMBER OF ATOMS
7
ITEM: BOX BOUNDS ss ss ss
-2.9156 3.3923
-2.5734 3.3840
-1.9995 2.0447
ITEM: ATOMS id type xs ys zs
1 1 .505943 .995427 .508872
2 1 .990482 .613436 .576706
3 1 .795532 .010120 .498395
4 1 .192599 .011962 .478721
5 1 .012852 .622854 .471904
6 1 .482278 .442677 .992581
7 1 .512886 .458426 .018714
ITEM: TIMESTEP
1
ITEM: NUMBER OF ATOMS
7
ITEM: BOX BOUNDS ss ss ss
-2.8859 3.3693
-2.5643 3.3666
-1.9797 2.0249
ITEM: ATOMS id type xs ys zs
1 1 .508244 .991582 .502959
2 1 .996998 .613846 .579633
3 1 .798637 .010778 .493865
4 1 .186523 .011152 .474647
5 1 .004882 .625795 .474256
6 1 .480874 .443037 .991722
7 1 .508277 .455021 .006433
ITEM: TIMESTEP
50
ITEM: NUMBER OF ATOMS
7
ITEM: BOX BOUNDS ss ss ss
-2.8859 3.3799
-2.5643 3.3666
-1.9841 2.0249
ITEM: ATOMS id type xs ys zs
1 1 .506375 .992140 .505172
2 1 .994357 .613799 .578492
3 1 .798421 .012171 .496922
4 1 .186880 .010745 .470701
5 1 .006397 .625173 .474067
6 1 .479446 .441750 .993446
7 1 .508035 .454409 .012258
ITEM: TIMESTEP
100
ITEM: NUMBER OF ATOMS
7
ITEM: BOX BOUNDS ss ss ss
-2.8935 3.3892
-2.5643 3.3666
-1.9941 2.0320
ITEM: ATOMS id type xs ys zs
1 1 .502963 .992533 .505202
2 1 .991959 .613912 .580411
3 1 .797507 .010574 .496228
4 1 .187382 .011904 .473614
5 1 .005957 .625738 .472657
6 1 .479449 .442352 .993070
7 1 .509421 .456008 .010809
ITEM: TIMESTEP
150
ITEM: NUMBER OF ATOMS
7
ITEM: BOX BOUNDS ss ss ss
-2.9130 3.4019
-2.5643 3.3666
-2.0005 2.0356
ITEM: ATOMS id type xs ys zs
1 1 .503342 .991812 .505376
2 1 .989195 .613875 .578718
3 1 .796001 .011135 .494379
4 1 .189622 .011250 .473018
5 1 .008223 .625037 .473383
6 1 .479659 .442416 .990261
7 1 .511056 .455477 .011226
ITEM: TIMESTEP
200
ITEM: NUMBER OF ATOMS
7
ITEM: BOX BOUNDS ss ss ss
-2.9076 3.4038
-2.5643 3.3666
-2.0057 2.0410
ITEM: ATOMS id type xs ys zs
1 1 .506402 .992010 .503571
2 1 .989849 .614369 .576756
3 1 .796072 .010083 .495639
4 1 .187538 .013333 .472192
5 1 .006962 .626789 .472018
6 1 .480041 .443056 .988573
7 1 .509927 .455873 .013619
ITEM: TIMESTEP
250
ITEM: NUMBER OF ATOMS
7
ITEM: BOX BOUNDS ss ss ss
-2.9161 3.4253
-2.5643 3.3666
-2.0076 2.0421
ITEM: ATOMS id type xs ys zs
1 1 .505415 .992432 .505144
2 1 .986425 .612734 .577949
3 1 .793510 .007423 .500211
4 1 .188913 .014695 .474067
5 1 .010628 .631888 .477927
6 1 .478316 .443287 .988928
7 1 .508337 .454093 .015513
ITEM: TIMESTEP
300
ITEM: NUMBER OF ATOMS
7
ITEM: BOX BOUNDS ss ss ss
-2.9067 3.4060
-2.5643 3.3666
-2.0040 2.0397
ITEM: ATOMS id type xs ys zs
1 1 .505874 .993825 .503968
2 1 .987320 .614439 .574617
3 1 .797063 .008204 .493585
4 1 .189818 .013128 .468603
5 1 .005621 .626535 .468307
6 1 .478358 .442728 .986376
7 1 .509404 .455190 .013814
ITEM: TIMESTEP
350
ITEM: NUMBER OF ATOMS
7
ITEM: BOX BOUNDS ss ss ss
-2.9105 3.4133
-2.5643 3.3748
-1.9975 2.0438
ITEM: ATOMS id type xs ys zs
1 1 .505270 .991415 .503589
2 1 .986274 .613046 .573223
3 1 .795612 .010642 .497646
4 1 .188431 .011274 .472453
5 1 .009624 .627288 .469829
6 1 .477948 .445487 .989893
7 1 .510381 .455834 .015406
ITEM: TIMESTEP
400
ITEM: NUMBER OF ATOMS
7
ITEM: BOX BOUNDS ss ss ss
-2.9131 3.3899
-2.5643 3.3755
-2.0041 2.0398
ITEM: ATOMS id type xs ys zs
1 1 .501355 .993475 .500576
2 1 .987851 .614097 .575380
3 1 .797933 .008652 .501320
4 1 .189829 .008654 .478652
5 1 .006396 .621264 .474268
6 1 .480895 .441762 .988319
7 1 .510009 .453697 .017705
ITEM: TIMESTEP
1
ITEM: NUMBER OF ATOMS
7
ITEM: BOX BOUNDS ss ss ss
-2.8895 3.3609
-2.5395 3.3565
-1.9680 2.0258
ITEM: ATOMS id type xs ys zs
1 1 .509213 .993239 .501384
2 1 .998358 .613261 .578284
3 1 .799832 .006628 .492272
4 1 .187246 .007018 .472994
5 1 .005458 .625278 .472600
6 1 .481822 .441447 .991487
7 1 .509241 .453506 .003519
ITEM: TIMESTEP
50
ITEM: NUMBER OF ATOMS
7
ITEM: BOX BOUNDS ss ss ss
-2.8895 3.3861
-2.5395 3.3565
-1.9868 2.0258
ITEM: ATOMS id type xs ys zs
1 1 .506580 .994470 .508730
2 1 .994198 .611791 .576277
3 1 .797424 .005945 .494460
4 1 .186405 .009147 .476589
5 1 .005489 .626613 .475863
6 1 .479706 .441481 .990674
7 1 .507927 .453184 .008660
ITEM: TIMESTEP
100
ITEM: NUMBER OF ATOMS
7
ITEM: BOX BOUNDS ss ss ss
-2.9017 3.3885
-2.5395 3.3565
-2.0059 2.0338
ITEM: ATOMS id type xs ys zs
1 1 .506988 .993231 .507769
2 1 .991449 .611993 .573369
3 1 .798502 .007859 .498815
4 1 .186860 .004657 .478839
5 1 .009219 .626915 .479373
6 1 .479411 .441047 .987463
7 1 .507988 .452626 .016507
ITEM: TIMESTEP
150
ITEM: NUMBER OF ATOMS
7
ITEM: BOX BOUNDS ss ss ss
-2.8987 3.3950
-2.5442 3.3565
-2.0032 2.0382
ITEM: ATOMS id type xs ys zs
1 1 .504854 .995892 .507110
2 1 .989352 .611192 .576919
3 1 .796585 .006929 .499794
4 1 .188158 .009381 .475118
5 1 .004389 .623801 .481551
6 1 .480463 .441408 .992962
7 1 .507337 .453030 .015712
ITEM: TIMESTEP
200
ITEM: NUMBER OF ATOMS
7
ITEM: BOX BOUNDS ss ss ss
-2.9007 3.4009
-2.5562 3.3573
-2.0069 2.0419
ITEM: ATOMS id type xs ys zs
1 1 .506822 .993672 .505716
2 1 .992147 .616128 .578536
3 1 .795855 .005302 .496766
4 1 .189046 .010941 .479017
5 1 .009633 .626456 .474882
6 1 .480379 .443983 .989389
7 1 .510198 .454951 .017733
ITEM: TIMESTEP
250
ITEM: NUMBER OF ATOMS
7
ITEM: BOX BOUNDS ss ss ss
-2.9021 3.4040
-2.5502 3.3655
-1.9962 2.0404
ITEM: ATOMS id type xs ys zs
1 1 .505113 .993567 .508630
2 1 .988752 .616125 .577042
3 1 .795798 .007020 .490933
4 1 .190234 .006767 .473407
5 1 .007885 .625142 .477597
6 1 .479976 .439251 .992995
7 1 .509767 .456015 .015959
ITEM: TIMESTEP
300
ITEM: NUMBER OF ATOMS
7
ITEM: BOX BOUNDS ss ss ss
-2.9036 3.4000
-2.5564 3.3627
-2.0057 2.0510
ITEM: ATOMS id type xs ys zs
1 1 .506817 .993550 .506063
2 1 .989402 .616970 .575054
3 1 .795824 .007893 .494657
4 1 .189438 .008946 .471985
5 1 .007759 .624030 .473275
6 1 .481383 .440978 .987144
7 1 .510281 .456634 .018646
ITEM: TIMESTEP
350
ITEM: NUMBER OF ATOMS
7
ITEM: BOX BOUNDS ss ss ss
-2.9102 3.4077
-2.5578 3.3670
-2.0136 2.0467
ITEM: ATOMS id type xs ys zs
1 1 .505948 .994447 .509844
2 1 .987352 .616316 .574590
3 1 .793383 .008101 .494020
4 1 .189462 .007340 .474820
5 1 .009752 .624257 .477418
6 1 .480535 .441919 .990261
7 1 .506455 .455665 .021089
ITEM: TIMESTEP
400
ITEM: NUMBER OF ATOMS
7
ITEM: BOX BOUNDS ss ss ss
-2.9145 3.3997
-2.5627 3.3708
-1.9968 2.0586
ITEM: ATOMS id type xs ys zs
1 1 .504772 .993705 .513151
2 1 .989536 .614783 .572503
3 1 .793128 .007471 .486388
4 1 .191214 .007816 .469518
5 1 .009324 .621608 .469419
6 1 .479910 .440975 .988374
7 1 .511804 .456809 .019481
ITEM: TIMESTEP
1
ITEM: NUMBER OF ATOMS
7
ITEM: BOX BOUNDS ss ss ss
-2.8895 3.3725
-2.5445 3.3613
-1.9696 2.0323
ITEM: ATOMS id type xs ys zs
1 1 .508277 .992439 .500775
2 1 .996497 .613103 .577508
3 1 .798350 .007470 .491692
4 1 .186892 .007843 .472441
5 1 .005446 .625099 .472045
6 1 .480929 .441564 .989897
7 1 .508291 .453593 .003887
ITEM: TIMESTEP
50
ITEM: NUMBER OF ATOMS
7
ITEM: BOX BOUNDS ss ss ss
-2.8895 3.3793
-2.5445 3.3613
-1.9838 2.0323
ITEM: ATOMS id type xs ys zs
1 1 .508220 .993311 .504091
2 1 .993964 .613144 .576800
3 1 .798260 .007403 .495227
4 1 .186990 .007055 .473326
5 1 .005474 .626674 .473435
6 1 .480285 .440741 .988780
7 1 .508365 .454011 .008530
ITEM: TIMESTEP
100
ITEM: NUMBER OF ATOMS
7
ITEM: BOX BOUNDS ss ss ss
-2.8900 3.3954
-2.5445 3.3613
-1.9973 2.0323
ITEM: ATOMS id type xs ys zs
1 1 .507197 .991610 .505197
2 1 .992141 .614037 .576008
3 1 .796397 .007839 .494972
4 1 .187631 .006187 .473354
5 1 .006639 .625823 .474559
6 1 .479531 .441135 .988470
7 1 .507180 .454853 .012923
ITEM: TIMESTEP
150
ITEM: NUMBER OF ATOMS
7
ITEM: BOX BOUNDS ss ss ss
-2.9037 3.3949
-2.5445 3.3613
-2.0082 2.0397
ITEM: ATOMS id type xs ys zs
1 1 .507808 .993117 .505116
2 1 .992175 .614030 .576644
3 1 .796680 .007509 .495675
4 1 .189651 .007891 .478971
5 1 .006320 .624679 .473494
6 1 .481752 .441480 .989000
7 1 .509779 .455186 .015426
ITEM: TIMESTEP
200
ITEM: NUMBER OF ATOMS
7
ITEM: BOX BOUNDS ss ss ss
-2.9064 3.3999
-2.5475 3.3653
-2.0101 2.0407
ITEM: ATOMS id type xs ys zs
1 1 .508588 .994265 .507143
2 1 .990212 .613890 .578103
3 1 .795113 .006536 .493086
4 1 .187196 .007816 .478834
5 1 .008391 .625339 .471274
6 1 .478468 .441473 .989926
7 1 .510614 .454408 .016566
ITEM: TIMESTEP
250
ITEM: NUMBER OF ATOMS
7
ITEM: BOX BOUNDS ss ss ss
-2.9141 3.3980
-2.5510 3.3672
-2.0126 2.0409
ITEM: ATOMS id type xs ys zs
1 1 .508137 .994195 .500076
2 1 .990396 .609954 .578316
3 1 .794488 .006199 .500545
4 1 .189330 .010433 .479676
5 1 .008240 .625307 .470091
6 1 .478189 .445171 .983268
7 1 .509073 .453364 .013838
ITEM: TIMESTEP
300
ITEM: NUMBER OF ATOMS
7
ITEM: BOX BOUNDS ss ss ss
-2.9182 3.4005
-2.5484 3.3672
-2.0077 2.0459
ITEM: ATOMS id type xs ys zs
1 1 .509664 .993760 .497385
2 1 .989892 .609698 .576114
3 1 .792795 .005060 .499740
4 1 .189085 .010696 .475733
5 1 .009441 .625301 .464548
6 1 .479076 .446288 .984102
7 1 .509326 .453289 .013535
ITEM: TIMESTEP
350
ITEM: NUMBER OF ATOMS
7
ITEM: BOX BOUNDS ss ss ss
-2.9263 3.4076
-2.5542 3.3811
-2.0042 2.0537
ITEM: ATOMS id type xs ys zs
1 1 .507948 .992535 .507601
2 1 .989336 .605740 .574313
3 1 .794736 .002721 .494254
4 1 .187772 .014101 .477162
5 1 .008559 .628635 .473539
6 1 .478693 .441196 .979822
7 1 .510068 .454380 .015515
ITEM: TIMESTEP
400
ITEM: NUMBER OF ATOMS
7
ITEM: BOX BOUNDS ss ss ss
-2.9290 3.4202
-2.5609 3.3847
-1.9978 2.0466
ITEM: ATOMS id type xs ys zs
1 1 .502605 .991780 .505782
2 1 .983913 .612368 .575653
3 1 .795839 .010063 .493764
4 1 .189721 .006623 .475199
5 1 .005473 .623045 .475113
6 1 .476593 .442744 .985607
7 1 .507109 .454284 .016900
ITEM: TIMESTEP
450
ITEM: NUMBER OF ATOMS
7
ITEM: BOX BOUNDS ss ss ss
-2.9284 3.3997
-2.5619 3.3903
-2.0074 2.0360
ITEM: ATOMS id type xs ys zs
1 1 .506332 .993023 .511999
2 1 .986439 .607716 .580114
3 1 .791561 .006715 .493727
4 1 .189772 .006173 .472632
5 1 .007761 .621973 .479352
6 1 .476762 .441667 .984339
7 1 .509002 .455592 .020271
ITEM: TIMESTEP
500
ITEM: NUMBER OF ATOMS
7
ITEM: BOX BOUNDS ss ss ss
-2.9315 3.3976
-2.5619 3.3945
-2.0009 2.0368
ITEM: ATOMS id type xs ys zs
1 1 .507753 .992228 .507096
2 1 .986719 .609027 .578042
3 1 .792796 .007575 .494325
4 1 .189459 .008003 .472761
5 1 .009096 .621802 .475172
6 1 .478356 .442111 .985437
7 1 .511125 .456590 .018080
ITEM: TIMESTEP
550
ITEM: NUMBER OF ATOMS
7
ITEM: BOX BOUNDS ss ss ss
-2.9311 3.3857
-2.5671 3.3958
-2.0094 2.0357
ITEM: ATOMS id type xs ys zs
1 1 .508790 .991808 .501829
2 1 .991789 .607766 .575765
3 1 .794341 .008065 .499803
4 1 .190132 .014252 .474953
5 1 .008084 .623714 .472808
6 1 .479867 .443041 .984733
7 1 .514737 .456281 .017956
ITEM: TIMESTEP
600
ITEM: NUMBER OF ATOMS
7
ITEM: BOX BOUNDS ss ss ss
-2.9303 3.3977
-2.5721 3.3999
-2.0153 2.0262
ITEM: ATOMS id type xs ys zs
1 1 .511864 .989798 .504634
2 1 .989866 .606466 .582165
3 1 .790982 .007977 .501068
4 1 .189649 .017191 .476102
5 1 .010541 .626305 .467107
6 1 .478185 .445733 .986386
7 1 .513444 .455872 .013230
ITEM: TIMESTEP
650
ITEM: NUMBER OF ATOMS
7
ITEM: BOX BOUNDS ss ss ss
-2.9327 3.3867
-2.5717 3.3950
-2.0069 2.0248
ITEM: ATOMS id type xs ys zs
1 1 .505544 .991307 .510716
2 1 .987972 .610242 .583601
3 1 .796344 .007126 .494115
4 1 .193363 .004788 .473422
5 1 .007676 .622064 .477132
6 1 .477358 .442707 .987368
7 1 .509964 .456483 .021923
ITEM: TIMESTEP
700
ITEM: NUMBER OF ATOMS
7
ITEM: BOX BOUNDS ss ss ss
-2.9247 3.3815
-2.5764 3.3966
-2.0028 2.0253
ITEM: ATOMS id type xs ys zs
1 1 .504643 .991446 .504740
2 1 .987020 .610184 .579430
3 1 .794940 .007647 .488859
4 1 .189108 .011410 .475910
5 1 .006264 .627647 .475228
6 1 .478044 .443272 .990694
7 1 .507935 .456099 .017157
ITEM: TIMESTEP
750
ITEM: NUMBER OF ATOMS
7
ITEM: BOX BOUNDS ss ss ss
-2.9317 3.3800
-2.5758 3.4045
-2.0105 2.0335
ITEM: ATOMS id type xs ys zs
1 1 .503644 .989642 .504768
2 1 .987718 .609755 .579450
3 1 .793927 .006378 .489552
4 1 .189991 .011779 .476439
5 1 .008283 .626600 .476176
6 1 .478144 .443004 .988612
7 1 .509658 .454446 .019637
ITEM: TIMESTEP
800
ITEM: NUMBER OF ATOMS
7
ITEM: BOX BOUNDS ss ss ss
-2.9259 3.3828
-2.5841 3.4035
-1.9909 2.0299
ITEM: ATOMS id type xs ys zs
1 1 .503978 .989670 .501842
2 1 .987461 .609283 .574928
3 1 .795079 .008093 .486156
4 1 .187773 .014068 .471331
5 1 .004856 .628917 .474540
6 1 .476021 .441969 .986554
7 1 .508596 .455253 .013615
ITEM: TIMESTEP
850
ITEM: NUMBER OF ATOMS
7
ITEM: BOX BOUNDS ss ss ss
-2.9271 3.3932
-2.5860 3.4030
-1.9990 2.0277
ITEM: ATOMS id type xs ys zs
1 1 .504523 .991284 .504005
2 1 .985479 .608591 .573674
3 1 .792422 .007840 .488060
4 1 .186437 .015997 .468928
5 1 .006573 .630586 .474853
6 1 .475658 .443917 .984149
7 1 .505429 .453576 .015966
ITEM: TIMESTEP
900
ITEM: NUMBER OF ATOMS
7
ITEM: BOX BOUNDS ss ss ss
-2.9320 3.3847
-2.5828 3.4060
-1.9858 2.0317
ITEM: ATOMS id type xs ys zs
1 1 .502636 .990030 .501092
2 1 .985832 .608881 .572466
3 1 .795001 .007330 .486265
4 1 .188669 .015077 .466820
5 1 .005916 .627319 .469400
6 1 .476400 .443039 .985255
7 1 .507840 .455620 .014869
ITEM: TIMESTEP
1
ITEM: NUMBER OF ATOMS
7
ITEM: BOX BOUNDS ss ss ss
-2.9173 3.3588
-2.5633 3.3880
-1.9622 2.0058
ITEM: ATOMS id type xs ys zs
1 1 .511556 .988000 .503178
2 1 .998698 .611570 .580583
3 1 .800990 .010575 .494004
4 1 .190901 .010944 .474605
5 1 .009862 .623470 .474196
6 1 .484278 .441353 .996460
7 1 .511583 .453289 .002073
ITEM: TIMESTEP
50
ITEM: NUMBER OF ATOMS
7
ITEM: BOX BOUNDS ss ss ss
-2.9173 3.3807
-2.5633 3.3880
-1.9855 2.0209
ITEM: ATOMS id type xs ys zs
1 1 .508269 .987964 .505099
2 1 .993883 .610691 .578973
3 1 .797924 .010683 .497930
4 1 .189844 .010936 .474009
5 1 .008590 .622479 .474760
6 1 .483149 .441859 .992890
7 1 .511169 .453614 .008641
ITEM: TIMESTEP
100
ITEM: NUMBER OF ATOMS
7
ITEM: BOX BOUNDS ss ss ss
-2.9173 3.3897
-2.5633 3.3880
-2.0049 2.0341
ITEM: ATOMS id type xs ys zs
1 1 .509154 .988909 .506382
2 1 .992033 .611526 .580081
3 1 .797361 .007719 .496841
4 1 .190337 .010480 .476522
5 1 .008222 .623775 .478110
6 1 .482601 .441822 .988993
7 1 .510909 .454487 .016234
ITEM: TIMESTEP
150
ITEM: NUMBER OF ATOMS
7
ITEM: BOX BOUNDS ss ss ss
-2.9173 3.3962
-2.5633 3.3880
-2.0026 2.0421
ITEM: ATOMS id type xs ys zs
1 1 .507583 .990035 .505528
2 1 .990167 .613104 .576887
3 1 .795484 .009504 .492560
4 1 .188175 .008898 .478444
5 1 .008316 .624225 .474409
6 1 .481207 .439820 .988303
7 1 .508402 .452364 .017610
ITEM: TIMESTEP
200
ITEM: NUMBER OF ATOMS
7
ITEM: BOX BOUNDS ss ss ss
-2.9173 3.4014
-2.5633 3.3880
-2.0058 2.0345
ITEM: ATOMS id type xs ys zs
1 1 .510413 .989094 .499418
2 1 .991236 .610720 .575135
3 1 .797125 .009407 .498641
4 1 .191462 .008363 .477591
5 1 .010743 .623218 .481861
6 1 .482238 .440557 .987441
7 1 .509933 .451263 .015517
ITEM: TIMESTEP
250
ITEM: NUMBER OF ATOMS
7
ITEM: BOX BOUNDS ss ss ss
-2.9173 3.4042
-2.5633 3.3880
-2.0009 2.0413
ITEM: ATOMS id type xs ys zs
1 1 .509710 .988517 .500448
2 1 .991200 .611250 .573070
3 1 .795876 .008716 .498506
4 1 .190850 .009171 .474961
5 1 .009198 .623730 .482860
6 1 .480566 .439616 .986318
7 1 .509405 .450516 .015470
ITEM: TIMESTEP
300
ITEM: NUMBER OF ATOMS
7
ITEM: BOX BOUNDS ss ss ss
-2.9173 3.4017
-2.5633 3.3880
-1.9988 2.0420
ITEM: ATOMS id type xs ys zs
1 1 .507209 .988297 .495885
2 1 .988777 .609638 .575174
3 1 .796354 .004711 .497812
4 1 .190449 .010700 .478296
5 1 .012884 .623013 .481799
6 1 .480731 .439094 .992489
7 1 .509786 .448570 .017366
ITEM: TIMESTEP
350
ITEM: NUMBER OF ATOMS
7
ITEM: BOX BOUNDS ss ss ss
-2.9173 3.3979
-2.5672 3.3880
-1.9953 2.0427
ITEM: ATOMS id type xs ys zs
1 1 .507852 .990503 .500223
2 1 .990780 .608302 .573848
3 1 .797370 .006392 .494056
4 1 .189811 .010743 .479449
5 1 .008932 .625315 .483599
6 1 .480250 .438425 .989231
7 1 .508949 .451164 .019109
ITEM: TIMESTEP
400
ITEM: NUMBER OF ATOMS
7
ITEM: BOX BOUNDS ss ss ss
-2.9173 3.3927
-2.5704 3.3910
-1.9961 2.0448
ITEM: ATOMS id type xs ys zs
1 1 .509404 .989462 .490799
2 1 .991237 .606814 .575260
3 1 .796766 .005737 .497185
4 1 .191229 .010628 .477216
5 1 .011877 .623014 .477569
6 1 .481527 .441753 .986931
7 1 .512265 .450911 .014969
ITEM: TIMESTEP
450
ITEM: NUMBER OF ATOMS
7
ITEM: BOX BOUNDS ss ss ss
-2.9173 3.4031
-2.5740 3.3880
-1.9922 2.0454
ITEM: ATOMS id type xs ys zs
1 1 .509536 .990675 .492846
2 1 .989045 .607869 .573343
3 1 .795714 .003585 .497116
4 1 .188726 .010857 .479140
5 1 .010363 .621780 .476601
6 1 .480888 .440563 .987316
7 1 .510953 .450383 .015182
ITEM: TIMESTEP
500
ITEM: NUMBER OF ATOMS
7
ITEM: BOX BOUNDS ss ss ss
-2.9173 3.3868
-2.5888 3.3880
-2.0017 2.0511
ITEM: ATOMS id type xs ys zs
1 1 .511485 .990541 .496199
2 1 .994005 .609015 .574541
3 1 .802383 .009087 .496762
4 1 .194683 .014078 .473413
5 1 .012847 .624488 .477789
6 1 .484864 .441370 .987328
7 1 .512631 .450966 .020254
ITEM: TIMESTEP
550
ITEM: NUMBER OF ATOMS
7
ITEM: BOX BOUNDS ss ss ss
-2.9173 3.3853
-2.5841 3.3880
-2.0006 2.0700
ITEM: ATOMS id type xs ys zs
1 1 .508257 .991102 .497396
2 1 .992494 .614119 .571470
3 1 .799622 .011775 .493663
4 1 .193764 .014978 .468796
5 1 .011090 .624753 .478373
6 1 .483590 .443007 .983565
7 1 .512732 .454818 .016094
ITEM: TIMESTEP
600
ITEM: NUMBER OF ATOMS
7
ITEM: BOX BOUNDS ss ss ss
-2.9173 3.3939
-2.5831 3.3880
-1.9956 2.0497
ITEM: ATOMS id type xs ys zs
1 1 .506849 .992907 .503933
2 1 .989393 .610178 .575523
3 1 .795860 .007274 .489855
4 1 .185520 .012024 .477152
5 1 .008478 .622330 .479489
6 1 .480468 .442064 .988615
7 1 .507469 .453072 .021750
ITEM: TIMESTEP
650
ITEM: NUMBER OF ATOMS
7
ITEM: BOX BOUNDS ss ss ss
-2.9239 3.3902
-2.5851 3.3880
-1.9929 2.0552
ITEM: ATOMS id type xs ys zs
1 1 .509035 .990234 .503599
2 1 .990367 .611490 .573318
3 1 .798737 .007831 .488062
4 1 .190031 .013424 .474113
5 1 .009477 .625887 .481018
6 1 .483365 .442736 .986469
7 1 .507939 .453013 .018158
ITEM: TIMESTEP
700
ITEM: NUMBER OF ATOMS
7
ITEM: BOX BOUNDS ss ss ss
-2.9252 3.3920
-2.5891 3.3880
-1.9922 2.0429
ITEM: ATOMS id type xs ys zs
1 1 .507617 .991492 .505005
2 1 .991305 .611850 .573723
3 1 .797469 .010311 .489255
4 1 .191682 .013423 .472963
5 1 .009401 .626946 .482064
6 1 .483927 .442843 .986568
7 1 .506707 .454596 .018626
ITEM: TIMESTEP
750
ITEM: NUMBER OF ATOMS
7
ITEM: BOX BOUNDS ss ss ss
-2.9343 3.3984
-2.5879 3.3944
-1.9847 2.0407
ITEM: ATOMS id type xs ys zs
1 1 .506539 .989657 .503973