ITEM: TIMESTEP
1
ITEM: NUMBER OF ATOMS
7
ITEM: BOX BOUNDS ss ss ss
-2.8596 3.3548
-2.5045 3.3202
-1.9586 1.9965
ITEM: ATOMS id type xs ys zs
1 1 .507383 .999315 .503835
2 1 .999375 .614782 .581763
3 1 .799647 .000773 .494612
4 1 .183509 .001095 .475298
5 1 .000681 .626916 .474860
6 1 .479809 .440836 .998837
7 1 .507312 .453018 .001030
ITEM: TIMESTEP
50
ITEM: NUMBER OF ATOMS
7
ITEM: BOX BOUNDS ss ss ss
-2.8824 3.3772
-2.5240 3.3429
-1.9832 2.0178
ITEM: ATOMS id type xs ys zs
1 1 .507476 .995253 .503886
2 1 .995904 .613724 .581859
3 1 .797529 .004292 .494738
4 1 .185781 .004427 .476151
5 1 .004272 .625727 .475661
6 1 .479991 .440981 .993586
7 1 .507122 .453055 .006890
ITEM: TIMESTEP
100
ITEM: NUMBER OF ATOMS
7
ITEM: BOX BOUNDS ss ss ss
-2.8931 3.3867
-2.5392 3.3523
-1.9939 2.0296
ITEM: ATOMS id type xs ys zs
1 1 .507640 .993820 .503435
2 1 .994310 .613731 .581519
3 1 .796773 .006833 .494367
4 1 .186923 .006912 .476356
5 1 .005961 .625763 .475708
6 1 .480099 .441759 .990633
7 1 .507280 .453812 .009621
ITEM: TIMESTEP
150
ITEM: NUMBER OF ATOMS
7
ITEM: BOX BOUNDS ss ss ss
-2.8978 3.3911
-2.5430 3.3597
-2.0008 2.0351
ITEM: ATOMS id type xs ys zs
1 1 .507676 .993019 .503360
2 1 .993355 .613171 .581372
3 1 .796457 .007222 .494473
4 1 .187486 .007338 .476748
5 1 .006876 .625258 .476096
6 1 .480046 .441630 .989129
7 1 .507595 .453712 .011726
ITEM: TIMESTEP
200
ITEM: NUMBER OF ATOMS
7
ITEM: BOX BOUNDS ss ss ss
-2.9092 3.3972
-2.5482 3.3657
-1.9906 2.0347
ITEM: ATOMS id type xs ys zs
1 1 .507954 .992728 .501703
2 1 .991851 .613021 .579669
3 1 .796117 .007666 .493690
4 1 .189137 .007798 .475742
5 1 .008912 .624777 .475197
6 1 .480501 .441770 .989101
7 1 .508485 .453849 .010031
ITEM: TIMESTEP
250
ITEM: NUMBER OF ATOMS
7
ITEM: BOX BOUNDS ss ss ss
-2.8990 3.3929
-2.5559 3.3675
-2.0027 2.0350
ITEM: ATOMS id type xs ys zs
1 1 .507267 .993461 .502522
2 1 .991822 .613519 .579602
3 1 .796572 .008231 .496584
4 1 .188449 .008613 .477629
5 1 .007801 .625009 .477489
6 1 .480051 .442532 .989125
7 1 .508628 .454269 .014319
ITEM: TIMESTEP
300
ITEM: NUMBER OF ATOMS
7
ITEM: BOX BOUNDS ss ss ss
-2.8970 3.3906
-2.5598 3.3746
-1.9967 2.0397
ITEM: ATOMS id type xs ys zs
1 1 .507077 .993195 .501360
2 1 .991626 .613120 .576660
3 1 .797141 .008055 .495824
4 1 .188194 .009316 .476567
5 1 .008067 .625046 .476184
6 1 .480332 .442356 .987785
7 1 .509247 .453988 .013966
ITEM: TIMESTEP
350
ITEM: NUMBER OF ATOMS
7
ITEM: BOX BOUNDS ss ss ss
-2.8976 3.3864
-2.5615 3.3809
-1.9973 2.0453
ITEM: ATOMS id type xs ys zs
1 1 .507378 .993119 .501097
2 1 .991910 .612658 .573752
3 1 .797995 .007541 .495396
4 1 .188135 .010040 .475960
5 1 .008620 .625337 .475155
6 1 .481118 .442110 .986015
7 1 .510110 .453743 .015174
ITEM: TIMESTEP
400
ITEM: NUMBER OF ATOMS
7
ITEM: BOX BOUNDS ss ss ss
-2.8973 3.3859
-2.5666 3.3864
-1.9997 2.0541
ITEM: ATOMS id type xs ys zs
1 1 .507543 .992775 .500472
2 1 .991761 .612190 .571206
3 1 .798326 .007743 .495504
4 1 .188133 .010941 .474603
5 1 .008876 .625562 .474216
6 1 .481264 .442209 .983650
7 1 .510621 .453773 .016878
ITEM: TIMESTEP
1
ITEM: NUMBER OF ATOMS
7
ITEM: BOX BOUNDS ss ss ss
-2.8677 3.3645
-2.5476 3.3673
-1.9585 2.0206
ITEM: ATOMS id type xs ys zs
1 1 .507237 .991355 .500774
2 1 .997827 .612694 .578230
3 1 .798663 .008053 .491610
4 1 .184284 .008369 .472410
5 1 .001978 .624641 .471980
6 1 .479743 .441406 .992781
7 1 .507161 .453395 .001010
ITEM: TIMESTEP
50
ITEM: NUMBER OF ATOMS
7
ITEM: BOX BOUNDS ss ss ss
-2.8841 3.3768
-2.5476 3.3673
-1.9865 2.0225
ITEM: ATOMS id type xs ys zs
1 1 .507658 .991132 .503675
2 1 .996001 .612734 .581655
3 1 .797629 .008308 .494488
4 1 .186011 .008370 .476103
5 1 .004538 .624619 .475589
6 1 .480159 .441418 .992367
7 1 .507244 .453325 .007608
ITEM: TIMESTEP
100
ITEM: NUMBER OF ATOMS
7
ITEM: BOX BOUNDS ss ss ss
-2.8920 3.3873
-2.5476 3.3673
-1.9930 2.0265
ITEM: ATOMS id type xs ys zs
1 1 .507561 .991214 .503743
2 1 .994264 .612711 .582060
3 1 .796671 .008377 .494418
4 1 .186699 .008292 .476584
5 1 .005735 .624659 .476099
6 1 .479920 .441453 .991337
7 1 .507006 .453351 .009279
ITEM: TIMESTEP
150
ITEM: NUMBER OF ATOMS
7
ITEM: BOX BOUNDS ss ss ss
-2.9016 3.3973
-2.5476 3.3673
-1.9961 2.0286
ITEM: ATOMS id type xs ys zs
1 1 .507583 .991592 .503823
2 1 .992475 .612670 .581909
3 1 .795848 .008099 .494318
4 1 .187656 .008066 .476865
5 1 .007256 .624704 .476228
6 1 .479876 .441438 .990597
7 1 .507161 .453458 .010572
ITEM: TIMESTEP
200
ITEM: NUMBER OF ATOMS
7
ITEM: BOX BOUNDS ss ss ss
-2.9126 3.3949
-2.5476 3.3776
-2.0073 2.0400
ITEM: ATOMS id type xs ys zs
1 1 .508620 .990450 .503760
2 1 .992554 .611411 .580863
3 1 .796594 .007505 .494512
4 1 .189231 .007844 .477193
5 1 .009130 .623644 .475951
6 1 .480713 .440760 .987731
7 1 .508652 .452840 .014179
ITEM: TIMESTEP
250
ITEM: NUMBER OF ATOMS
7
ITEM: BOX BOUNDS ss ss ss
-2.9203 3.3980
-2.5488 3.3730
-1.9966 2.0443
ITEM: ATOMS id type xs ys zs
1 1 .509061 .991763 .501881
2 1 .991627 .611577 .577745
3 1 .796441 .006895 .493344
4 1 .190302 .007638 .475000
5 1 .010533 .624036 .473872
6 1 .480842 .441149 .986559
7 1 .509767 .453300 .012691
ITEM: TIMESTEP
300
ITEM: NUMBER OF ATOMS
7
ITEM: BOX BOUNDS ss ss ss
-2.8997 3.3915
-2.5588 3.3801
-1.9978 2.0514
ITEM: ATOMS id type xs ys zs
1 1 .507907 .990977 .501092
2 1 .992165 .610912 .574750
3 1 .796537 .007513 .493315
4 1 .188030 .008876 .473713
5 1 .007525 .623797 .473401
6 1 .479636 .441454 .984485
7 1 .509557 .453344 .013800
ITEM: TIMESTEP
350
ITEM: NUMBER OF ATOMS
7
ITEM: BOX BOUNDS ss ss ss
-2.9025 3.3895
-2.5659 3.3809
-1.9944 2.0510
ITEM: ATOMS id type xs ys zs
1 1 .508062 .990961 .501029
2 1 .992003 .610952 .572153
3 1 .797188 .007551 .493651
4 1 .188639 .009864 .472403
5 1 .008287 .624228 .473409
6 1 .480215 .441819 .984208
7 1 .510599 .453434 .013452
ITEM: TIMESTEP
400
ITEM: NUMBER OF ATOMS
7
ITEM: BOX BOUNDS ss ss ss
-2.9011 3.3853
-2.5722 3.3864
-1.9941 2.0437
ITEM: ATOMS id type xs ys zs
1 1 .507938 .990148 .502123
2 1 .992256 .610699 .571414
3 1 .797854 .007865 .495347
4 1 .188733 .011052 .472560
5 1 .008337 .624220 .474284
6 1 .480716 .441676 .986006
7 1 .511307 .453422 .013668
ITEM: TIMESTEP
1
ITEM: NUMBER OF ATOMS
7
ITEM: BOX BOUNDS ss ss ss
-2.8712 3.3621
-2.5643 3.3666
-1.9674 2.0151
ITEM: ATOMS id type xs ys zs
1 1 .507706 .991508 .502571
2 1 .998207 .613865 .579972
3 1 .799082 .010850 .493415
4 1 .184811 .011164 .474228
5 1 .002536 .625779 .473805
6 1 .480213 .443032 .994162
7 1 .507631 .454992 .003230
ITEM: TIMESTEP
50
ITEM: NUMBER OF ATOMS
7
ITEM: BOX BOUNDS ss ss ss
-2.8799 3.3790
-2.5643 3.3666
-1.9805 2.0237
ITEM: ATOMS id type xs ys zs
1 1 .507162 .991223 .502679
2 1 .995680 .613925 .580994
3 1 .797205 .011159 .493546
4 1 .185389 .011177 .475171
5 1 .003889 .625762 .474655
6 1 .479643 .443043 .992099
7 1 .506714 .454919 .006023
ITEM: TIMESTEP
100
ITEM: NUMBER OF ATOMS
7
ITEM: BOX BOUNDS ss ss ss
-2.8925 3.3928
-2.5643 3.3666
-1.9984 2.0305
ITEM: ATOMS id type xs ys zs
1 1 .507144 .991238 .503729
2 1 .993495 .613939 .582403
3 1 .795932 .011239 .494555
4 1 .186593 .011076 .476917
5 1 .005824 .625810 .476342
6 1 .479560 .443100 .990396
7 1 .506558 .454938 .010436
ITEM: TIMESTEP
150
ITEM: NUMBER OF ATOMS
7
ITEM: BOX BOUNDS ss ss ss
-2.9060 3.3977
-2.5643 3.3666
-1.9968 2.0331
ITEM: ATOMS id type xs ys zs
1 1 .507885 .991561 .502879
2 1 .992411 .613949 .581987
3 1 .795811 .010951 .493834
4 1 .188244 .010924 .476529
5 1 .008012 .625773 .476205
6 1 .480194 .443131 .989716
7 1 .507431 .454963 .010473
ITEM: TIMESTEP
200
ITEM: NUMBER OF ATOMS
7
ITEM: BOX BOUNDS ss ss ss
-2.9002 3.3960
-2.5643 3.3666
-2.0023 2.0407
ITEM: ATOMS id type xs ys zs
1 1 .507543 .992152 .502201
2 1 .992149 .613925 .581391
3 1 .795816 .010339 .493674
4 1 .187533 .010832 .476359
5 1 .007077 .625888 .476498
6 1 .479704 .443101 .987643
7 1 .507503 .455060 .012539
ITEM: TIMESTEP
250
ITEM: NUMBER OF ATOMS
7
ITEM: BOX BOUNDS ss ss ss
-2.9104 3.3890
-2.5643 3.3690
-2.0012 2.0451
ITEM: ATOMS id type xs ys zs
1 1 .508574 .992207 .501133
2 1 .992880 .613706 .580135
3 1 .796968 .009390 .493072
4 1 .188563 .010923 .475593
5 1 .008650 .625930 .476608
6 1 .481148 .442529 .986076
7 1 .509393 .454815 .013187
ITEM: TIMESTEP
300
ITEM: NUMBER OF ATOMS
7
ITEM: BOX BOUNDS ss ss ss
-2.9136 3.3913
-2.5643 3.3727
-1.9953 2.0412
ITEM: ATOMS id type xs ys zs
1 1 .508491 .992004 .500761
2 1 .992479 .613400 .579078
3 1 .797051 .008316 .492508
4 1 .188193 .010955 .475707
5 1 .009231 .626099 .476823
6 1 .481611 .441688 .986057
7 1 .509908 .454212 .012806
ITEM: TIMESTEP
350
ITEM: NUMBER OF ATOMS
7
ITEM: BOX BOUNDS ss ss ss
-2.8975 3.3930
-2.5714 3.3709
-1.9907 2.0458
ITEM: ATOMS id type xs ys zs
1 1 .506986 .992748 .499183
2 1 .992047 .613911 .576834
3 1 .796682 .008617 .490951
4 1 .185583 .012117 .475172
5 1 .006924 .627282 .476028
6 1 .480468 .442193 .984118
7 1 .508795 .454672 .012658
ITEM: TIMESTEP
400
ITEM: NUMBER OF ATOMS
7
ITEM: BOX BOUNDS ss ss ss
-2.9051 3.3924
-2.5715 3.3828
-1.9896 2.0383
ITEM: ATOMS id type xs ys zs
1 1 .507258 .991246 .499543
2 1 .991748 .612490 .576727
3 1 .797357 .007951 .491472
4 1 .186511 .012062 .475984
5 1 .008245 .626294 .477015
6 1 .481248 .441236 .985705
7 1 .509640 .453573 .013127
ITEM: TIMESTEP
1
ITEM: NUMBER OF ATOMS
7
ITEM: BOX BOUNDS ss ss ss
-2.8872 3.3621
-2.5643 3.3713
-1.9674 2.0151
ITEM: ATOMS id type xs ys zs
1 1 .508968 .990706 .502570
2 1 .998212 .613371 .579975
3 1 .799595 .010843 .493414
4 1 .186901 .011156 .474233
5 1 .005093 .625276 .473803
6 1 .481546 .442678 .994165
7 1 .508895 .454628 .003228
ITEM: TIMESTEP
50
ITEM: NUMBER OF ATOMS
7
ITEM: BOX BOUNDS ss ss ss
-2.8872 3.3819
-2.5643 3.3713
-1.9876 2.0200
ITEM: ATOMS id type xs ys zs
1 1 .507535 .990367 .504104
2 1 .995269 .613437 .582367
3 1 .797079 .011212 .494859
4 1 .186250 .011186 .476602
5 1 .005021 .625228 .476050
6 1 .480008 .442668 .993052
7 1 .506976 .454519 .007713
ITEM: TIMESTEP
100
ITEM: NUMBER OF ATOMS
7
ITEM: BOX BOUNDS ss ss ss
-2.8956 3.3912
-2.5643 3.3713
-1.9973 2.0284
ITEM: ATOMS id type xs ys zs
1 1 .507592 .990293 .503787
2 1 .993796 .613408 .582838
3 1 .796253 .011336 .494513
4 1 .187025 .011113 .477073
5 1 .006251 .625191 .476445
6 1 .479899 .442662 .990960
7 1 .506781 .454493 .009875
ITEM: TIMESTEP
150
ITEM: NUMBER OF ATOMS
7
ITEM: BOX BOUNDS ss ss ss
-2.9051 3.3948
-2.5643 3.3713
-2.0122 2.0379
ITEM: ATOMS id type xs ys zs
1 1 .508172 .990465 .503962
2 1 .993010 .613311 .583360
3 1 .796227 .011184 .494688
4 1 .188159 .010939 .478045
5 1 .007651 .625262 .477374
6 1 .480254 .442547 .988568
7 1 .507277 .454498 .013669
ITEM: TIMESTEP
200
ITEM: NUMBER OF ATOMS
7
ITEM: BOX BOUNDS ss ss ss
-2.9102 3.3958
-2.5643 3.3713
-2.0016 2.0380
ITEM: ATOMS id type xs ys zs
1 1 .508404 .990886 .502353
2 1 .992530 .613101 .582293
3 1 .796425 .010922 .492924
4 1 .188793 .010797 .476760
5 1 .008269 .625344 .476014
6 1 .480387 .442536 .988342
7 1 .507653 .454709 .011660
ITEM: TIMESTEP
250
ITEM: NUMBER OF ATOMS
7
ITEM: BOX BOUNDS ss ss ss
-2.9184 3.4124
-2.5643 3.3713
-2.0065 2.0553
ITEM: ATOMS id type xs ys zs
1 1 .507195 .991539 .500970
2 1 .989588 .612875 .580130
3 1 .794669 .010444 .491777
4 1 .189354 .010648 .475706
5 1 .009309 .625244 .474810
6 1 .479589 .442875 .984172
7 1 .507121 .454978 .014121
ITEM: TIMESTEP
300
ITEM: NUMBER OF ATOMS
7
ITEM: BOX BOUNDS ss ss ss
-2.9239 3.3992
-2.5643 3.3754
-1.9971 2.0433
ITEM: ATOMS id type xs ys zs
1 1 .508306 .991543 .502132
2 1 .991316 .612502 .580755
3 1 .796401 .009913 .493578
4 1 .190298 .010494 .476259
5 1 .009901 .624510 .475368
6 1 .480806 .442821 .987259
7 1 .508992 .454870 .013458
ITEM: TIMESTEP
350
ITEM: NUMBER OF ATOMS
7
ITEM: BOX BOUNDS ss ss ss
-2.9243 3.3971
-2.5643 3.3742
-1.9975 2.0415
ITEM: ATOMS id type xs ys zs
1 1 .508662 .992189 .503144
2 1 .991554 .612807 .580641
3 1 .796731 .009682 .495006
4 1 .190417 .010467 .476828
5 1 .009959 .624527 .476073
6 1 .480983 .442950 .988128
7 1 .509618 .455249 .014701
ITEM: TIMESTEP
400
ITEM: NUMBER OF ATOMS
7
ITEM: BOX BOUNDS ss ss ss
-2.9156 3.3923
-2.5734 3.3840
-1.9995 2.0447
ITEM: ATOMS id type xs ys zs
1 1 .508446 .991062 .503315
2 1 .992184 .612298 .580063
3 1 .796988 .010889 .494937
4 1 .189843 .012073 .476988
5 1 .008954 .624015 .475962
6 1 .480817 .443183 .987766
7 1 .510035 .455685 .015860
ITEM: TIMESTEP
1
ITEM: NUMBER OF ATOMS
7
ITEM: BOX BOUNDS ss ss ss
-2.8859 3.3693
-2.5643 3.3666
-1.9797 2.0249
ITEM: ATOMS id type xs ys zs
1 1 .508279 .991504 .502877
2 1 .997066 .613863 .579855
3 1 .798633 .010857 .493771
4 1 .186512 .011164 .474696
5 1 .004875 .625781 .474271
6 1 .480884 .443036 .991754
7 1 .508202 .454995 .006291
ITEM: TIMESTEP
50
ITEM: NUMBER OF ATOMS
7
ITEM: BOX BOUNDS ss ss ss
-2.8859 3.3799
-2.5643 3.3666
-1.9841 2.0249
ITEM: ATOMS id type xs ys zs
1 1 .507617 .991138 .502959
2 1 .995641 .613923 .581425
3 1 .797295 .011261 .493736
4 1 .186124 .011199 .475566
5 1 .004808 .625753 .475011
6 1 .480095 .443030 .991840
7 1 .507017 .454875 .006775
ITEM: TIMESTEP
100
ITEM: NUMBER OF ATOMS
7
ITEM: BOX BOUNDS ss ss ss
-2.8935 3.3892
-2.5643 3.3666
-1.9941 2.0320
ITEM: ATOMS id type xs ys zs
1 1 .507684 .991013 .502832
2 1 .994219 .613915 .582283
3 1 .796430 .011428 .493597
4 1 .186775 .011088 .476246
5 1 .005958 .625777 .475696
6 1 .479909 .443014 .990103
7 1 .506687 .454841 .009047
ITEM: TIMESTEP
150
ITEM: NUMBER OF ATOMS
7
ITEM: BOX BOUNDS ss ss ss
-2.9130 3.4019
-2.5643 3.3666
-2.0005 2.0356
ITEM: ATOMS id type xs ys zs
1 1 .508326 .991171 .502643
2 1 .992096 .613808 .582799
3 1 .795576 .011387 .493524
4 1 .188871 .010972 .476863
5 1 .008892 .625905 .476336
6 1 .480411 .442963 .989156
7 1 .507137 .454962 .010837
ITEM: TIMESTEP
200
ITEM: NUMBER OF ATOMS
7
ITEM: BOX BOUNDS ss ss ss
-2.9076 3.4038
-2.5643 3.3666
-2.0057 2.0410
ITEM: ATOMS id type xs ys zs
1 1 .507680 .991457 .502115
2 1 .991528 .613777 .582819
3 1 .795381 .011246 .493349
4 1 .188050 .010928 .476954
5 1 .007952 .626001 .476606
6 1 .479604 .442942 .987580
7 1 .506828 .455001 .012480
ITEM: TIMESTEP
250
ITEM: NUMBER OF ATOMS
7
ITEM: BOX BOUNDS ss ss ss
-2.9161 3.4253
-2.5643 3.3666
-2.0076 2.0421
ITEM: ATOMS id type xs ys zs
1 1 .506220 .991664 .501988
2 1 .987828 .613998 .582715
3 1 .793371 .011007 .493318
4 1 .188323 .011060 .476899
5 1 .009173 .625970 .476587
6 1 .478542 .442662 .987053
7 1 .506210 .454940 .013172
ITEM: TIMESTEP
300
ITEM: NUMBER OF ATOMS
7
ITEM: BOX BOUNDS ss ss ss
-2.9067 3.4060
-2.5643 3.3666
-2.0040 2.0397
ITEM: ATOMS id type xs ys zs
1 1 .506095 .991779 .502079
2 1 .990253 .614098 .582326
3 1 .795900 .010617 .493129
4 1 .187883 .011247 .476576
5 1 .007344 .625880 .475278
6 1 .478941 .442504 .987917
7 1 .507545 .454885 .012940
ITEM: TIMESTEP
350
ITEM: NUMBER OF ATOMS
7
ITEM: BOX BOUNDS ss ss ss
-2.9105 3.4133
-2.5643 3.3748
-1.9975 2.0438
ITEM: ATOMS id type xs ys zs
1 1 .504578 .990780 .500872
2 1 .988210 .613158 .580499
3 1 .795227 .010235 .491861
4 1 .188731 .011177 .475551
5 1 .007488 .624753 .472083
6 1 .478338 .442221 .987316
7 1 .507898 .454641 .012247
ITEM: TIMESTEP
400
ITEM: NUMBER OF ATOMS
7
ITEM: BOX BOUNDS ss ss ss
-2.9131 3.3899
-2.5643 3.3755
-2.0041 2.0398
ITEM: ATOMS id type xs ys zs
1 1 .506227 .991183 .502050
2 1 .991463 .613184 .580942
3 1 .798291 .009938 .493356
4 1 .189991 .011233 .476714
5 1 .007687 .624432 .472115
6 1 .480075 .442551 .988034
7 1 .510496 .454947 .014386
ITEM: TIMESTEP
1
ITEM: NUMBER OF ATOMS
7
ITEM: BOX BOUNDS ss ss ss
-2.8895 3.3609
-2.5395 3.3565
-1.9680 2.0258
ITEM: ATOMS id type xs ys zs
1 1 .509246 .993154 .501307
2 1 .998417 .613285 .578500
3 1 .799829 .006719 .492174
4 1 .187229 .007027 .473052
5 1 .005447 .625270 .472625
6 1 .481831 .441445 .991511
7 1 .509171 .453478 .003376
ITEM: TIMESTEP
50
ITEM: NUMBER OF ATOMS
7
ITEM: BOX BOUNDS ss ss ss
-2.8895 3.3861
-2.5395 3.3565
-1.9868 2.0258
ITEM: ATOMS id type xs ys zs
1 1 .507416 .992739 .503107
2 1 .994667 .613382 .581694
3 1 .796598 .007151 .493940
4 1 .186419 .007090 .475864
5 1 .005375 .625232 .475236
6 1 .479885 .441447 .991658
7 1 .506749 .453349 .007373
ITEM: TIMESTEP
100
ITEM: NUMBER OF ATOMS
7
ITEM: BOX BOUNDS ss ss ss
-2.9017 3.3885
-2.5395 3.3565
-2.0059 2.0338
ITEM: ATOMS id type xs ys zs
1 1 .508341 .992585 .503909
2 1 .994390 .613418 .583474
3 1 .796811 .007416 .494779
4 1 .187863 .007022 .477788
5 1 .007203 .625260 .477072
6 1 .480626 .441483 .989787
7 1 .507345 .453316 .011776
ITEM: TIMESTEP
150
ITEM: NUMBER OF ATOMS
7
ITEM: BOX BOUNDS ss ss ss
-2.8987 3.3950
-2.5442 3.3565
-2.0032 2.0382
ITEM: ATOMS id type xs ys zs
1 1 .507600 .992766 .502587
2 1 .993212 .613743 .583186
3 1 .796057 .008127 .493209
4 1 .187405 .007657 .477247
5 1 .006662 .625590 .476579
6 1 .479786 .441990 .988763
7 1 .506661 .453848 .011362
ITEM: TIMESTEP
200
ITEM: NUMBER OF ATOMS
7
ITEM: BOX BOUNDS ss ss ss
-2.9007 3.4009
-2.5562 3.3573
-2.0069 2.0419
ITEM: ATOMS id type xs ys zs
1 1 .507131 .993021 .502667
2 1 .991842 .614429 .582781
3 1 .795608 .009755 .492199
4 1 .187691 .009390 .477665
5 1 .006900 .626252 .477096
6 1 .479575 .442831 .987927
7 1 .506464 .455156 .012908
ITEM: TIMESTEP
250
ITEM: NUMBER OF ATOMS
7
ITEM: BOX BOUNDS ss ss ss
-2.9021 3.4040
-2.5502 3.3655
-1.9962 2.0404
ITEM: ATOMS id type xs ys zs
1 1 .506754 .992023 .502192
2 1 .990969 .613447 .581600
3 1 .795521 .008431 .490496
4 1 .187917 .007924 .476881
5 1 .007220 .624765 .476472
6 1 .479690 .441200 .988345
7 1 .506132 .454037 .011023
ITEM: TIMESTEP
300
ITEM: NUMBER OF ATOMS
7
ITEM: BOX BOUNDS ss ss ss
-2.9036 3.4000
-2.5564 3.3627
-2.0057 2.0510
ITEM: ATOMS id type xs ys zs
1 1 .507048 .992839 .502670
2 1 .991266 .614305 .581015
3 1 .796037 .009464 .490563
4 1 .188246 .008603 .476955
5 1 .007571 .625328 .476755
6 1 .480093 .441854 .985927
7 1 .506527 .454900 .013826
ITEM: TIMESTEP
350
ITEM: NUMBER OF ATOMS
7
ITEM: BOX BOUNDS ss ss ss
-2.9102 3.4077
-2.5578 3.3670
-2.0136 2.0467
ITEM: ATOMS id type xs ys zs
1 1 .507134 .992357 .504204
2 1 .990001 .613918 .582358
3 1 .795160 .009620 .492570
4 1 .188703 .008738 .478377
5 1 .008729 .624981 .478591
6 1 .479933 .441786 .987211
7 1 .506858 .454670 .016248
ITEM: TIMESTEP
400
ITEM: NUMBER OF ATOMS
7
ITEM: BOX BOUNDS ss ss ss
-2.9145 3.3997
-2.5627 3.3708
-1.9968 2.0586
ITEM: ATOMS id type xs ys zs
1 1 .508306 .991839 .500650
2 1 .991056 .613793 .579188
3 1 .796208 .010237 .489708
4 1 .189382 .009414 .474386
5 1 .009606 .624717 .475460
6 1 .480623 .441884 .984451
7 1 .508184 .454777 .012603
ITEM: TIMESTEP
1
ITEM: NUMBER OF ATOMS
7
ITEM: BOX BOUNDS ss ss ss
-2.8895 3.3725
-2.5445 3.3613
-1.9696 2.0323
ITEM: ATOMS id type xs ys zs
1 1 .508298 .992362 .500692
2 1 .996562 .613122 .577730
3 1 .798341 .007549 .491577
4 1 .186876 .007857 .472493
5 1 .005435 .625086 .472062
6 1 .480934 .441566 .989912
7 1 .508219 .453574 .003758
ITEM: TIMESTEP
50
ITEM: NUMBER OF ATOMS
7
ITEM: BOX BOUNDS ss ss ss
-2.8895 3.3793
-2.5445 3.3613
-1.9838 2.0323
ITEM: ATOMS id type xs ys zs
1 1 .507959 .991930 .501902
2 1 .995794 .613192 .580511
3 1 .797468 .008017 .492742
4 1 .186585 .007891 .474705
5 1 .005371 .625055 .474109
6 1 .480426 .441541 .990025
7 1 .507281 .453440 .006593
ITEM: TIMESTEP
100
ITEM: NUMBER OF ATOMS
7
ITEM: BOX BOUNDS ss ss ss
-2.8900 3.3954
-2.5445 3.3613
-1.9973 2.0323
ITEM: ATOMS id type xs ys zs
1 1 .506913 .991740 .503062
2 1 .993362 .613190 .582893
3 1 .795521 .008253 .493823
4 1 .186123 .007847 .476893
5 1 .005389 .625053 .476048
6 1 .479188 .441534 .990145
7 1 .505798 .453430 .009575
ITEM: TIMESTEP
150
ITEM: NUMBER OF ATOMS
7
ITEM: BOX BOUNDS ss ss ss
-2.9037 3.3949
-2.5445 3.3613
-2.0082 2.0397
ITEM: ATOMS id type xs ys zs
1 1 .508149 .991858 .502901
2 1 .993319 .613114 .583520
3 1 .796105 .008293 .493697
4 1 .187874 .007743 .477865
5 1 .007497 .625193 .476755
6 1 .480222 .441472 .988433
7 1 .506925 .453419 .012087
ITEM: TIMESTEP
200
ITEM: NUMBER OF ATOMS
7
ITEM: BOX BOUNDS ss ss ss
-2.9064 3.3999
-2.5475 3.3653
-2.0101 2.0407
ITEM: ATOMS id type xs ys zs
1 1 .507908 .991525 .502764
2 1 .992102 .612874 .583924
3 1 .795642 .008561 .493489
4 1 .188073 .008180 .478494
5 1 .007757 .625272 .477053
6 1 .479722 .441445 .988052
7 1 .506805 .453462 .012998
ITEM: TIMESTEP
250
ITEM: NUMBER OF ATOMS
7
ITEM: BOX BOUNDS ss ss ss
-2.9141 3.3980
-2.5510 3.3672
-2.0126 2.0409
ITEM: ATOMS id type xs ys zs
1 1 .508513 .991670 .502893
2 1 .991964 .612968 .584778
3 1 .796142 .008761 .493378
4 1 .189158 .008809 .478974
5 1 .008669 .625479 .477683
6 1 .480076 .441778 .987744
7 1 .507821 .453869 .014321
ITEM: TIMESTEP
300
ITEM: NUMBER OF ATOMS
7
ITEM: BOX BOUNDS ss ss ss
-2.9182 3.4005
-2.5484 3.3672
-2.0077 2.0459
ITEM: ATOMS id type xs ys zs
1 1 .508471 .992312 .501425
2 1 .991127 .612796 .584066
3 1 .795890 .008072 .491817
4 1 .189763 .008248 .477340
5 1 .008898 .625262 .476371
6 1 .479794 .441790 .985923
7 1 .507983 .453886 .013660
ITEM: TIMESTEP
350
ITEM: NUMBER OF ATOMS
7
ITEM: BOX BOUNDS ss ss ss
-2.9263 3.4076
-2.5542 3.3811
-2.0042 2.0537
ITEM: ATOMS id type xs ys zs
1 1 .507985 .991190 .499720
2 1 .989370 .611309 .581872
3 1 .795161 .008368 .490691
4 1 .190799 .008812 .475374
5 1 .008996 .624003 .474345
6 1 .479437 .441944 .982274
7 1 .507460 .453790 .013859
ITEM: TIMESTEP
400
ITEM: NUMBER OF ATOMS
7
ITEM: BOX BOUNDS ss ss ss
-2.9290 3.4202
-2.5609 3.3847
-1.9978 2.0466
ITEM: ATOMS id type xs ys zs
1 1 .506968 .991502 .499078
2 1 .987098 .610581 .581788
3 1 .793619 .008720 .490518
4 1 .190743 .009639 .475025
5 1 .008619 .623757 .473900
6 1 .478324 .442938 .982747
7 1 .506305 .454441 .013239
ITEM: TIMESTEP
450
ITEM: NUMBER OF ATOMS
7
ITEM: BOX BOUNDS ss ss ss
-2.9284 3.3997
-2.5619 3.3903
-2.0074 2.0360
ITEM: ATOMS id type xs ys zs
1 1 .508481 .991003 .500717
2 1 .990169 .609606 .584058
3 1 .796056 .008507 .492200
4 1 .191297 .009608 .477958
5 1 .008324 .623219 .475820
6 1 .479446 .442853 .985055
7 1 .508139 .454362 .016119
ITEM: TIMESTEP
500
ITEM: NUMBER OF ATOMS
7
ITEM: BOX BOUNDS ss ss ss
-2.9315 3.3976
-2.5619 3.3945
-2.0009 2.0368
ITEM: ATOMS id type xs ys zs
1 1 .508934 .990703 .499778
2 1 .990152 .608913 .583250
3 1 .796217 .008008 .490286
4 1 .191432 .009305 .477328
5 1 .009003 .623085 .474449
6 1 .479440 .442346 .984752
7 1 .508851 .454247 .015199
ITEM: TIMESTEP
550
ITEM: NUMBER OF ATOMS
7
ITEM: BOX BOUNDS ss ss ss
-2.9311 3.3857
-2.5671 3.3958
-2.0094 2.0357
ITEM: ATOMS id type xs ys zs
1 1 .509996 .991084 .501471
2 1 .991420 .609059 .584473
3 1 .797389 .008384 .490284
4 1 .191254 .009566 .478121
5 1 .009255 .623826 .476036
6 1 .479903 .442091 .984775
7 1 .509717 .454947 .017960
ITEM: TIMESTEP
600
ITEM: NUMBER OF ATOMS
7
ITEM: BOX BOUNDS ss ss ss
-2.9303 3.3977
-2.5721 3.3999
-2.0153 2.0262
ITEM: ATOMS id type xs ys zs
1 1 .509260 .991041 .503916
2 1 .989014 .609119 .586962
3 1 .795579 .008829 .491043
4 1 .190500 .009812 .479319
5 1 .009363 .624106 .478247
6 1 .478588 .441735 .986795
7 1 .508680 .455451 .019899
ITEM: TIMESTEP
650
ITEM: NUMBER OF ATOMS
7
ITEM: BOX BOUNDS ss ss ss
-2.9327 3.3867
-2.5717 3.3950
-2.0069 2.0248
ITEM: ATOMS id type xs ys zs
1 1 .510493 .992079 .503271
2 1 .990438 .609772 .586877
3 1 .796951 .008425 .489198
4 1 .191022 .009556 .477997
5 1 .009929 .624777 .477031
6 1 .479452 .441589 .987109
7 1 .509726 .455970 .018107
ITEM: TIMESTEP
700
ITEM: NUMBER OF ATOMS
7
ITEM: BOX BOUNDS ss ss ss
-2.9247 3.3815
-2.5764 3.3966
-2.0028 2.0253
ITEM: ATOMS id type xs ys zs
1 1 .510213 .991739 .502947
2 1 .991132 .609741 .586716
3 1 .797324 .008948 .487305
4 1 .189812 .010263 .477417
5 1 .008597 .625123 .475897
6 1 .479085 .441429 .986930
7 1 .509292 .456208 .017387
ITEM: TIMESTEP
750
ITEM: NUMBER OF ATOMS
7
ITEM: BOX BOUNDS ss ss ss
-2.9317 3.3800
-2.5758 3.4045
-2.0105 2.0335
ITEM: ATOMS id type xs ys zs
1 1 .510846 .990464 .502965
2 1 .991408 .608767 .586415
3 1 .797953 .008757 .486272
4 1 .190566 .010049 .477631
5 1 .009588 .624651 .475460
6 1 .479743 .440690 .984716
7 1 .509727 .455367 .019640
ITEM: TIMESTEP
800
ITEM: NUMBER OF ATOMS
7
ITEM: BOX BOUNDS ss ss ss
-2.9259 3.3828
-2.5841 3.4035
-1.9909 2.0299
ITEM: ATOMS id type xs ys zs
1 1 .510213 .990767 .501203
2 1 .990915 .609460 .584813
3 1 .797546 .010163 .484000
4 1 .189564 .011395 .475388
5 1 .008699 .625611 .472584
6 1 .478915 .441413 .985371
7 1 .509061 .456176 .015213
ITEM: TIMESTEP
850
ITEM: NUMBER OF ATOMS
7
ITEM: BOX BOUNDS ss ss ss
-2.9271 3.3932
-2.5860 3.4030
-1.9990 2.0277
ITEM: ATOMS id type xs ys zs
1 1 .509621 .990961 .502707
2 1 .989105 .609479 .585703
3 1 .796045 .010366 .485482
4 1 .189274 .011779 .476415
5 1 .009105 .625942 .473331
6 1 .478016 .441474 .985877
7 1 .508645 .456593 .016987
ITEM: TIMESTEP
900
ITEM: NUMBER OF ATOMS
7
ITEM: BOX BOUNDS ss ss ss
-2.9320 3.3847
-2.5828 3.4060
-1.9858 2.0317
ITEM: ATOMS id type xs ys zs
1 1 .510335 .990568 .500735
2 1 .990154 .608733 .582993
3 1 .797113 .009469 .483358
4 1 .189977 .011522 .473586
5 1 .009742 .626059 .470802
6 1 .478633 .440951 .984631
7 1 .509863 .456040 .013604
ITEM: TIMESTEP
1
ITEM: NUMBER OF ATOMS
7
ITEM: BOX BOUNDS ss ss ss
-2.9173 3.3588
-2.5633 3.3880
-1.9622 2.0058
ITEM: ATOMS id type xs ys zs
1 1 .511589 .987928 .503105
2 1 .998760 .611590 .580796
3 1 .800985 .010657 .493912
4 1 .190888 .010959 .474666
5 1 .009858 .623461 .474235
6 1 .484289 .441345 .996489
7 1 .511512 .453264 .001942
ITEM: TIMESTEP
50
ITEM: NUMBER OF ATOMS
7
ITEM: BOX BOUNDS ss ss ss
-2.9173 3.3807
-2.5633 3.3880
-1.9855 2.0209
ITEM: ATOMS id type xs ys zs
1 1 .510041 .987461 .503527
2 1 .995602 .611681 .582376
3 1 .798198 .011179 .494304
4 1 .190136 .011001 .476317
5 1 .009760 .623386 .475688
6 1 .482598 .441320 .992891
7 1 .509320 .453124 .006963
ITEM: TIMESTEP
100
ITEM: NUMBER OF ATOMS
7
ITEM: BOX BOUNDS ss ss ss
-2.9173 3.3897
-2.5633 3.3880
-2.0049 2.0341
ITEM: ATOMS id type xs ys zs
1 1 .509501 .987259 .503628
2 1 .994289 .611751 .583472
3 1 .797080 .011463 .494410
4 1 .189761 .010894 .477570
5 1 .009713 .623385 .476925
6 1 .481848 .441289 .989706
7 1 .508380 .453063 .011311
ITEM: TIMESTEP
150
ITEM: NUMBER OF ATOMS
7
ITEM: BOX BOUNDS ss ss ss
-2.9173 3.3962
-2.5633 3.3880
-2.0026 2.0421
ITEM: ATOMS id type xs ys zs
1 1 .509156 .987556 .501393
2 1 .993114 .611738 .582486
3 1 .796285 .011235 .492704
4 1 .189481 .010681 .476475
5 1 .009687 .623605 .476207
6 1 .481273 .441284 .987460
7 1 .507884 .453017 .011034
ITEM: TIMESTEP
200
ITEM: NUMBER OF ATOMS
7
ITEM: BOX BOUNDS ss ss ss
-2.9173 3.4014
-2.5633 3.3880
-2.0058 2.0345
ITEM: ATOMS id type xs ys zs
1 1 .509081 .988342 .500744
2 1 .991407 .611462 .583542
3 1 .795710 .010119 .494155
4 1 .189336 .010544 .478242
5 1 .009747 .624321 .479133
6 1 .480748 .441246 .988929
7 1 .507859 .452857 .013187
ITEM: TIMESTEP
250
ITEM: NUMBER OF ATOMS
7
ITEM: BOX BOUNDS ss ss ss
-2.9173 3.4042
-2.5633 3.3880
-2.0009 2.0413
ITEM: ATOMS id type xs ys zs
1 1 .509059 .989153 .497493
2 1 .990401 .611175 .582052
3 1 .795570 .009264 .492542
4 1 .189241 .010459 .477560
5 1 .009931 .624849 .478938
6 1 .480574 .441263 .987213
7 1 .507831 .452623 .013142
ITEM: TIMESTEP
300
ITEM: NUMBER OF ATOMS
7
ITEM: BOX BOUNDS ss ss ss
-2.9173 3.4017
-2.5633 3.3880
-1.9988 2.0420
ITEM: ATOMS id type xs ys zs
1 1 .509323 .989533 .495940
2 1 .990486 .611071 .581893
3 1 .796241 .008827 .492301
4 1 .189418 .010510 .477972
5 1 .010205 .625201 .479130
6 1 .480779 .441343 .987334
7 1 .508039 .452095 .013130
ITEM: TIMESTEP
350
ITEM: NUMBER OF ATOMS
7
ITEM: BOX BOUNDS ss ss ss
-2.9173 3.3979
-2.5672 3.3880
-1.9953 2.0427
ITEM: ATOMS id type xs ys zs
1 1 .509722 .989855 .493931
2 1 .990759 .610717 .581547
3 1 .797040 .008613 .492404
4 1 .189546 .010967 .478211
5 1 .010734 .625429 .479396
6 1 .481234 .441471 .987739
7 1 .508678 .451757 .012994
ITEM: TIMESTEP
400
ITEM: NUMBER OF ATOMS
7
ITEM: BOX BOUNDS ss ss ss
-2.9173 3.3927
-2.5704 3.3910
-1.9961 2.0448
ITEM: ATOMS id type xs ys zs
1 1 .510214 .989369 .492305
2 1 .991388 .609419 .581521
3 1 .797909 .007714 .492769
4 1 .189826 .011030 .478212
5 1 .011254 .624961 .480433
6 1 .481823 .441148 .987659
7 1 .509906 .451041 .014015
ITEM: TIMESTEP
450
ITEM: NUMBER OF ATOMS
7
ITEM: BOX BOUNDS ss ss ss
-2.9173 3.4031
-2.5740 3.3880
-1.9922 2.0454
ITEM: ATOMS id type xs ys zs
1 1 .509198 .989731 .491141
2 1 .989663 .609335 .581452
3 1 .796762 .007322 .492137
4 1 .189774 .011360 .477513
5 1 .011246 .625302 .480413
6 1 .481099 .441272 .987411
7 1 .509527 .451252 .013708
ITEM: TIMESTEP
500
ITEM: NUMBER OF ATOMS
7
ITEM: BOX BOUNDS ss ss ss
-2.9173 3.3868
-2.5888 3.3880
-2.0017 2.0511
ITEM: ATOMS id type xs ys zs
1 1 .510602 .989787 .491690
2 1 .992243 .609799 .581717
3 1 .798865 .009283 .492548
4 1 .190553 .013592 .478251
5 1 .011092 .626224 .481235
6 1 .482324 .442421 .985731
7 1 .510785 .452546 .016641
ITEM: TIMESTEP
550
ITEM: NUMBER OF ATOMS
7
ITEM: BOX BOUNDS ss ss ss
-2.9173 3.3853
-2.5841 3.3880
-2.0006 2.0700
ITEM: ATOMS id type xs ys zs
1 1 .510758 .990021 .490112
2 1 .992617 .609156 .579352
3 1 .798720 .008310 .489598
4 1 .190430 .012483 .476268
5 1 .010729 .626131 .478841
6 1 .482282 .442138 .980761
7 1 .510434 .452384 .016998
ITEM: TIMESTEP
600
ITEM: NUMBER OF ATOMS
7
ITEM: BOX BOUNDS ss ss ss
-2.9173 3.3939
-2.5831 3.3880
-1.9956 2.0497
ITEM: ATOMS id type xs ys zs
1 1 .510042 .990170 .494371
2 1 .991553 .608909 .582018
3 1 .796999 .008024 .490263
4 1 .189632 .011942 .478647
5 1 .009975 .625971 .480964
6 1 .481465 .442308 .985401
7 1 .508757 .452841 .016742
ITEM: TIMESTEP
650
ITEM: NUMBER OF ATOMS
7
ITEM: BOX BOUNDS ss ss ss
-2.9239 3.3902
-2.5851 3.3880
-1.9929 2.0552
ITEM: ATOMS id type xs ys zs
1 1 .510571 .990329 .495643
2 1 .992216 .609071 .580680
3 1 .797503 .008151 .487777
4 1 .190079 .012154 .478402
5 1 .010210 .625753 .480446
6 1 .482388 .442610 .983920
7 1 .508659 .453534 .017176
ITEM: TIMESTEP
700
ITEM: NUMBER OF ATOMS
7
ITEM: BOX BOUNDS ss ss ss
-2.9252 3.3920
-2.5891 3.3880
-1.9922 2.0429
ITEM: ATOMS id type xs ys zs
1 1 .510167 .990509 .498489
2 1 .991862 .609410 .582258
3 1 .797508 .008787 .487950
4 1 .189876 .012760 .480561
5 1 .009691 .625642 .482149
6 1 .482385 .442963 .986842
7 1 .508035 .454201 .018005
ITEM: TIMESTEP
750
ITEM: NUMBER OF ATOMS
7
ITEM: BOX BOUNDS ss ss ss
-2.9343 3.3984
-2.5879 3.3944
-1.9847 2.0407
ITEM: ATOMS id type xs ys zs
1 1 .510171 .989847 .499088