ITEM: TIMESTEP
1
ITEM: NUMBER OF ATOMS
7
ITEM: BOX BOUNDS ss ss ss
-2.8596 3.3548
-2.5045 3.3202
-1.9586 1.9965
ITEM: ATOMS id type xs ys zs
1 1 .507498 .999251 .503867
2 1 .999307 .614609 .581709
3 1 .799585 .000828 .494448
4 1 .183763 .001307 .475379
5 1 .000706 .626991 .475052
6 1 .479770 .441113 .998890
7 1 .507341 .452908 .001255
ITEM: TIMESTEP
50
ITEM: NUMBER OF ATOMS
7
ITEM: BOX BOUNDS ss ss ss
-2.8824 3.3772
-2.5240 3.3429
-1.9832 2.0178
ITEM: ATOMS id type xs ys zs
1 1 .506933 .994349 .505913
2 1 .996347 .613748 .581157
3 1 .795675 .002534 .494976
4 1 .185792 .005136 .476909
5 1 .004197 .624444 .475394
6 1 .481714 .441631 .998246
7 1 .507291 .452956 .003053
ITEM: TIMESTEP
100
ITEM: NUMBER OF ATOMS
7
ITEM: BOX BOUNDS ss ss ss
-2.8931 3.3867
-2.5392 3.3523
-1.9939 2.0296
ITEM: ATOMS id type xs ys zs
1 1 .507122 .993965 .505699
2 1 .995367 .616452 .581012
3 1 .794298 .007288 .494082
4 1 .185700 .007347 .478322
5 1 .004769 .627980 .477797
6 1 .480607 .440689 .989420
7 1 .505149 .453629 .009411
ITEM: TIMESTEP
150
ITEM: NUMBER OF ATOMS
7
ITEM: BOX BOUNDS ss ss ss
-2.8978 3.3911
-2.5430 3.3597
-2.0008 2.0351
ITEM: ATOMS id type xs ys zs
1 1 .507687 .991412 .506607
2 1 .993921 .615663 .580988
3 1 .793076 .007829 .492678
4 1 .185880 .009115 .476172
5 1 .004623 .628405 .479139
6 1 .479490 .441847 .988992
7 1 .504657 .453596 .010480
ITEM: TIMESTEP
200
ITEM: NUMBER OF ATOMS
7
ITEM: BOX BOUNDS ss ss ss
-2.9092 3.3972
-2.5482 3.3657
-1.9906 2.0347
ITEM: ATOMS id type xs ys zs
1 1 .505706 .991137 .502085
2 1 .992197 .614843 .582399
3 1 .793254 .009775 .491765
4 1 .185724 .010633 .473956
5 1 .007311 .628270 .478701
6 1 .482439 .441489 .987386
7 1 .503829 .454729 .004564
ITEM: TIMESTEP
250
ITEM: NUMBER OF ATOMS
7
ITEM: BOX BOUNDS ss ss ss
-2.8990 3.3929
-2.5559 3.3675
-2.0027 2.0350
ITEM: ATOMS id type xs ys zs
1 1 .507755 .994148 .499566
2 1 .992099 .616077 .585578
3 1 .795546 .012301 .498559
4 1 .185145 .012845 .479498
5 1 .008047 .626556 .468067
6 1 .477947 .445071 .988400
7 1 .510331 .455265 .014664
ITEM: TIMESTEP
300
ITEM: NUMBER OF ATOMS
7
ITEM: BOX BOUNDS ss ss ss
-2.8970 3.3906
-2.5598 3.3746
-1.9967 2.0397
ITEM: ATOMS id type xs ys zs
1 1 .506910 .994253 .503956
2 1 .992820 .611493 .580998
3 1 .799126 .008996 .497994
4 1 .183884 .009665 .473462
5 1 .008681 .624348 .470090
6 1 .480001 .442101 .986322
7 1 .508276 .453942 .018242
ITEM: TIMESTEP
350
ITEM: NUMBER OF ATOMS
7
ITEM: BOX BOUNDS ss ss ss
-2.8976 3.3864
-2.5615 3.3809
-1.9973 2.0453
ITEM: ATOMS id type xs ys zs
1 1 .506387 .993817 .495387
2 1 .989773 .611968 .573912
3 1 .798056 .010021 .500545
4 1 .190095 .007569 .468334
5 1 .008393 .621025 .475919
6 1 .477882 .441507 .990329
7 1 .509970 .454428 .009015
ITEM: TIMESTEP
400
ITEM: NUMBER OF ATOMS
7
ITEM: BOX BOUNDS ss ss ss
-2.8973 3.3859
-2.5666 3.3864
-1.9997 2.0541
ITEM: ATOMS id type xs ys zs
1 1 .505438 .993530 .494983
2 1 .987799 .610288 .573154
3 1 .798454 .010826 .500885
4 1 .192116 .007162 .468775
5 1 .010541 .619169 .475178
6 1 .478196 .439583 .988950
7 1 .511020 .454930 .011331
ITEM: TIMESTEP
1
ITEM: NUMBER OF ATOMS
7
ITEM: BOX BOUNDS ss ss ss
-2.8677 3.3645
-2.5476 3.3673
-1.9585 2.0206
ITEM: ATOMS id type xs ys zs
1 1 .507211 .991733 .500933
2 1 .997764 .612715 .578356
3 1 .798827 .008229 .491886
4 1 .184259 .008401 .472327
5 1 .001709 .624730 .471944
6 1 .479753 .441265 .992941
7 1 .507098 .453456 .001193
ITEM: TIMESTEP
50
ITEM: NUMBER OF ATOMS
7
ITEM: BOX BOUNDS ss ss ss
-2.8841 3.3768
-2.5476 3.3673
-1.9865 2.0225
ITEM: ATOMS id type xs ys zs
1 1 .505417 .992770 .500124
2 1 .995467 .613757 .582092
3 1 .798603 .010455 .493669
4 1 .185120 .008500 .475889
5 1 .007166 .624505 .476490
6 1 .480994 .440163 .990974
7 1 .509618 .451858 .003959
ITEM: TIMESTEP
100
ITEM: NUMBER OF ATOMS
7
ITEM: BOX BOUNDS ss ss ss
-2.8920 3.3873
-2.5476 3.3673
-1.9930 2.0265
ITEM: ATOMS id type xs ys zs
1 1 .507500 .989636 .502814
2 1 .994446 .612418 .583655
3 1 .795953 .008461 .496861
4 1 .187434 .005131 .474925
5 1 .005731 .624919 .477779
6 1 .481395 .443423 .990276
7 1 .507921 .452377 .008637
ITEM: TIMESTEP
150
ITEM: NUMBER OF ATOMS
7
ITEM: BOX BOUNDS ss ss ss
-2.9016 3.3973
-2.5476 3.3673
-1.9961 2.0286
ITEM: ATOMS id type xs ys zs
1 1 .505159 .991316 .500887
2 1 .989708 .613061 .580451
3 1 .793581 .006968 .496412
4 1 .189657 .007085 .476753
5 1 .001892 .624801 .474626
6 1 .477864 .440697 .994126
7 1 .507682 .452138 .013187
ITEM: TIMESTEP
200
ITEM: NUMBER OF ATOMS
7
ITEM: BOX BOUNDS ss ss ss
-2.9126 3.3949
-2.5476 3.3776
-2.0073 2.0400
ITEM: ATOMS id type xs ys zs
1 1 .504815 .992631 .510786
2 1 .992914 .608464 .582560
3 1 .796891 .007240 .492777
4 1 .189239 .012007 .478799
5 1 .008299 .625422 .471522
6 1 .480117 .439692 .984575
7 1 .509706 .455031 .014980
ITEM: TIMESTEP
250
ITEM: NUMBER OF ATOMS
7
ITEM: BOX BOUNDS ss ss ss
-2.9203 3.3980
-2.5488 3.3730
-1.9966 2.0443
ITEM: ATOMS id type xs ys zs
1 1 .505329 .993756 .510968
2 1 .993021 .609373 .583502
3 1 .795324 .007689 .493765
4 1 .190539 .011708 .475398
5 1 .010736 .626650 .466529
6 1 .481035 .440218 .982486
7 1 .513102 .455221 .012824
ITEM: TIMESTEP
300
ITEM: NUMBER OF ATOMS
7
ITEM: BOX BOUNDS ss ss ss
-2.8997 3.3915
-2.5588 3.3801
-1.9978 2.0514
ITEM: ATOMS id type xs ys zs
1 1 .505066 .986069 .495694
2 1 .994305 .614734 .573295
3 1 .795913 .008107 .497540
4 1 .184914 .006265 .472431
5 1 .009542 .622815 .474888
6 1 .478150 .440118 .981175
7 1 .509838 .450969 .015904
ITEM: TIMESTEP
350
ITEM: NUMBER OF ATOMS
7
ITEM: BOX BOUNDS ss ss ss
-2.9025 3.3895
-2.5659 3.3809
-1.9944 2.0510
ITEM: ATOMS id type xs ys zs
1 1 .508095 .993438 .497221
2 1 .993786 .611937 .572568
3 1 .793173 .011376 .490397
4 1 .188572 .013459 .472866
5 1 .004873 .628181 .467319
6 1 .482705 .441496 .982461
7 1 .506371 .457441 .005614
ITEM: TIMESTEP
400
ITEM: NUMBER OF ATOMS
7
ITEM: BOX BOUNDS ss ss ss
-2.9011 3.3853
-2.5722 3.3864
-1.9941 2.0437
ITEM: ATOMS id type xs ys zs
1 1 .510336 .992613 .503160
2 1 .991460 .611214 .567674
3 1 .797281 .009227 .492596
4 1 .188908 .012302 .471911
5 1 .007900 .622494 .475380
6 1 .482515 .445687 .984827
7 1 .512115 .455713 .014738
ITEM: TIMESTEP
1
ITEM: NUMBER OF ATOMS
7
ITEM: BOX BOUNDS ss ss ss
-2.8712 3.3621
-2.5643 3.3666
-1.9674 2.0151
ITEM: ATOMS id type xs ys zs
1 1 .507601 .991677 .502744
2 1 .998213 .613867 .579612
3 1 .799140 .010562 .493613
4 1 .184656 .011298 .474072
5 1 .002630 .625960 .473996
6 1 .480301 .442798 .994249
7 1 .507752 .454855 .003111
ITEM: TIMESTEP
50
ITEM: NUMBER OF ATOMS
7
ITEM: BOX BOUNDS ss ss ss
-2.8799 3.3790
-2.5643 3.3666
-1.9805 2.0237
ITEM: ATOMS id type xs ys zs
1 1 .509459 .992792 .502512
2 1 .995104 .614648 .581888
3 1 .799128 .011080 .492425
4 1 .185814 .011961 .475376
5 1 .003826 .627750 .476265
6 1 .480554 .442935 .990296
7 1 .506596 .453449 .007563
ITEM: TIMESTEP
100
ITEM: NUMBER OF ATOMS
7
ITEM: BOX BOUNDS ss ss ss
-2.8925 3.3928
-2.5643 3.3666
-1.9984 2.0305
ITEM: ATOMS id type xs ys zs
1 1 .509557 .992424 .501115
2 1 .993260 .613624 .581455
3 1 .798117 .011387 .490451
4 1 .185929 .011015 .476549
5 1 .003420 .629407 .475705
6 1 .481776 .440280 .991224
7 1 .504576 .453550 .009117
ITEM: TIMESTEP
150
ITEM: NUMBER OF ATOMS
7
ITEM: BOX BOUNDS ss ss ss
-2.9060 3.3977
-2.5643 3.3666
-1.9968 2.0331
ITEM: ATOMS id type xs ys zs
1 1 .505461 .994926 .502099
2 1 .990867 .616984 .576141
3 1 .797263 .008712 .496756
4 1 .186249 .011791 .480058
5 1 .007234 .626118 .477960
6 1 .485178 .445223 .994847
7 1 .505430 .455046 .010467
ITEM: TIMESTEP
200
ITEM: NUMBER OF ATOMS
7
ITEM: BOX BOUNDS ss ss ss
-2.9002 3.3960
-2.5643 3.3666
-2.0023 2.0407
ITEM: ATOMS id type xs ys zs
1 1 .505618 .993806 .500149
2 1 .993609 .613380 .582116
3 1 .795651 .010930 .495976
4 1 .184891 .010253 .476123
5 1 .006578 .625949 .486434
6 1 .482472 .443002 .987454
7 1 .508171 .454068 .013486
ITEM: TIMESTEP
250
ITEM: NUMBER OF ATOMS
7
ITEM: BOX BOUNDS ss ss ss
-2.9104 3.3890
-2.5643 3.3690
-2.0012 2.0451
ITEM: ATOMS id type xs ys zs
1 1 .506927 .992596 .495730
2 1 .997070 .612152 .584860
3 1 .797252 .012039 .495096
4 1 .186377 .011617 .475100
5 1 .008011 .626634 .484500
6 1 .485409 .443677 .984702
7 1 .511141 .455996 .010925
ITEM: TIMESTEP
300
ITEM: NUMBER OF ATOMS
7
ITEM: BOX BOUNDS ss ss ss
-2.9136 3.3913
-2.5643 3.3727
-1.9953 2.0412
ITEM: ATOMS id type xs ys zs
1 1 .507141 .990104 .499316
2 1 .990672 .613653 .582440
3 1 .797393 .009768 .488694
4 1 .189886 .014822 .473616
5 1 .012122 .630711 .472350
6 1 .480732 .441803 .987676
7 1 .512524 .457588 .006946
ITEM: TIMESTEP
350
ITEM: NUMBER OF ATOMS
7
ITEM: BOX BOUNDS ss ss ss
-2.8975 3.3930
-2.5714 3.3709
-1.9907 2.0458
ITEM: ATOMS id type xs ys zs
1 1 .509618 .994600 .497862
2 1 .993046 .611294 .576676
3 1 .794124 .007750 .485759
4 1 .188068 .015143 .484337
5 1 .008753 .624924 .477237
6 1 .483417 .446406 .983498
7 1 .511292 .454988 .011413
ITEM: TIMESTEP
400
ITEM: NUMBER OF ATOMS
7
ITEM: BOX BOUNDS ss ss ss
-2.9051 3.3924
-2.5715 3.3828
-1.9896 2.0383
ITEM: ATOMS id type xs ys zs
1 1 .508310 .994305 .502015
2 1 .990467 .607491 .579411
3 1 .796636 .007680 .492738
4 1 .191168 .008388 .476889
5 1 .008349 .624508 .474929
6 1 .480203 .445878 .986863
7 1 .509442 .456018 .008702
ITEM: TIMESTEP
1
ITEM: NUMBER OF ATOMS
7
ITEM: BOX BOUNDS ss ss ss
-2.8872 3.3621
-2.5643 3.3713
-1.9674 2.0151
ITEM: ATOMS id type xs ys zs
1 1 .508920 .990904 .502288
2 1 .998260 .613196 .580209
3 1 .799178 .010773 .493591
4 1 .186791 .011131 .474773
5 1 .005090 .625569 .473759
6 1 .481456 .442649 .994307
7 1 .508871 .454748 .003500
ITEM: TIMESTEP
50
ITEM: NUMBER OF ATOMS
7
ITEM: BOX BOUNDS ss ss ss
-2.8872 3.3819
-2.5643 3.3713
-1.9876 2.0200
ITEM: ATOMS id type xs ys zs
1 1 .508734 .991675 .503533
2 1 .992419 .612491 .581858
3 1 .794967 .012361 .493450
4 1 .185312 .010569 .476434
5 1 .003431 .622225 .471428
6 1 .479088 .442825 .991430
7 1 .507096 .454677 .007368
ITEM: TIMESTEP
100
ITEM: NUMBER OF ATOMS
7
ITEM: BOX BOUNDS ss ss ss
-2.8956 3.3912
-2.5643 3.3713
-1.9973 2.0284
ITEM: ATOMS id type xs ys zs
1 1 .505468 .991555 .504584
2 1 .993367 .611178 .581742
3 1 .796643 .009667 .498073
4 1 .188854 .011103 .475075
5 1 .004753 .625846 .474631
6 1 .480244 .444832 .993615
7 1 .508378 .455382 .009763
ITEM: TIMESTEP
150
ITEM: NUMBER OF ATOMS
7
ITEM: BOX BOUNDS ss ss ss
-2.9051 3.3948
-2.5643 3.3713
-2.0122 2.0379
ITEM: ATOMS id type xs ys zs
1 1 .507041 .990616 .503457
2 1 .994558 .612306 .584269
3 1 .794813 .009546 .501064
4 1 .190075 .012547 .474713
5 1 .005129 .627430 .473297
6 1 .478972 .444369 .989610
7 1 .508264 .455174 .011716
ITEM: TIMESTEP
200
ITEM: NUMBER OF ATOMS
7
ITEM: BOX BOUNDS ss ss ss
-2.9102 3.3958
-2.5643 3.3713
-2.0016 2.0380
ITEM: ATOMS id type xs ys zs
1 1 .506783 .990599 .499514
2 1 .991543 .612656 .584023
3 1 .798663 .011662 .496386
4 1 .186511 .012571 .481944
5 1 .006604 .623170 .473802
6 1 .478147 .443145 .989202
7 1 .508294 .453031 .014553
ITEM: TIMESTEP
250
ITEM: NUMBER OF ATOMS
7
ITEM: BOX BOUNDS ss ss ss
-2.9184 3.4124
-2.5643 3.3713
-2.0065 2.0553
ITEM: ATOMS id type xs ys zs
1 1 .505654 .990209 .497519
2 1 .990830 .612514 .582568
3 1 .796358 .013501 .493941
4 1 .186440 .014476 .478480
5 1 .008150 .623896 .468510
6 1 .478656 .444540 .987940
7 1 .507680 .452882 .015930
ITEM: TIMESTEP
300
ITEM: NUMBER OF ATOMS
7
ITEM: BOX BOUNDS ss ss ss
-2.9239 3.3992
-2.5643 3.3754
-1.9971 2.0433
ITEM: ATOMS id type xs ys zs
1 1 .504464 .990858 .500607
2 1 .990694 .612239 .582398
3 1 .797161 .006806 .492638
4 1 .188416 .010052 .474790
5 1 .007546 .624331 .479257
6 1 .480645 .437569 .988963
7 1 .506015 .451806 .015354
ITEM: TIMESTEP
350
ITEM: NUMBER OF ATOMS
7
ITEM: BOX BOUNDS ss ss ss
-2.9243 3.3971
-2.5643 3.3742
-1.9975 2.0415
ITEM: ATOMS id type xs ys zs
1 1 .503482 .989816 .498236
2 1 .988831 .611877 .584356
3 1 .799690 .008648 .491179
4 1 .187505 .011115 .476368
5 1 .008411 .623592 .483465
6 1 .480964 .437637 .986251
7 1 .504656 .452009 .015938
ITEM: TIMESTEP
400
ITEM: NUMBER OF ATOMS
7
ITEM: BOX BOUNDS ss ss ss
-2.9156 3.3923
-2.5734 3.3840
-1.9995 2.0447
ITEM: ATOMS id type xs ys zs
1 1 .510489 .994654 .505236
2 1 .993046 .610440 .578287
3 1 .800795 .008370 .490781
4 1 .190566 .008514 .470775
5 1 .008660 .620420 .475964
6 1 .479092 .440484 .987902
7 1 .506464 .456173 .016998
ITEM: TIMESTEP
1
ITEM: NUMBER OF ATOMS
7
ITEM: BOX BOUNDS ss ss ss
-2.8859 3.3693
-2.5643 3.3666
-1.9797 2.0249
ITEM: ATOMS id type xs ys zs
1 1 .507985 .991547 .502924
2 1 .996972 .614072 .579940
3 1 .798713 .010804 .493700
4 1 .186691 .011141 .474526
5 1 .004901 .625835 .474196
6 1 .480609 .443014 .991639
7 1 .508252 .455292 .006254
ITEM: TIMESTEP
50
ITEM: NUMBER OF ATOMS
7
ITEM: BOX BOUNDS ss ss ss
-2.8859 3.3799
-2.5643 3.3666
-1.9841 2.0249
ITEM: ATOMS id type xs ys zs
1 1 .506173 .991738 .505288
2 1 .994983 .612965 .581535
3 1 .797377 .011683 .493603
4 1 .187683 .012107 .474316
5 1 .006381 .625722 .474583
6 1 .480059 .443649 .992395
7 1 .506660 .454990 .005469
ITEM: TIMESTEP
100
ITEM: NUMBER OF ATOMS
7
ITEM: BOX BOUNDS ss ss ss
-2.8935 3.3892
-2.5643 3.3666
-1.9941 2.0320
ITEM: ATOMS id type xs ys zs
1 1 .506267 .991514 .506767
2 1 .993377 .613716 .580850
3 1 .794953 .011918 .493205
4 1 .187552 .011907 .478419
5 1 .008521 .624321 .474717
6 1 .479713 .441856 .991181
7 1 .506605 .454098 .007511
ITEM: TIMESTEP
150
ITEM: NUMBER OF ATOMS
7
ITEM: BOX BOUNDS ss ss ss
-2.9130 3.4019
-2.5643 3.3666
-2.0005 2.0356
ITEM: ATOMS id type xs ys zs
1 1 .508548 .992751 .502519
2 1 .989192 .611516 .584022
3 1 .793548 .013121 .493128
4 1 .189084 .011457 .477846
5 1 .010679 .629307 .474759
6 1 .482003 .443838 .986971
7 1 .510778 .454157 .010530
ITEM: TIMESTEP
200
ITEM: NUMBER OF ATOMS
7
ITEM: BOX BOUNDS ss ss ss
-2.9076 3.4038
-2.5643 3.3666
-2.0057 2.0410
ITEM: ATOMS id type xs ys zs
1 1 .508737 .987988 .500260
2 1 .991686 .614604 .583980
3 1 .795266 .014120 .494207
4 1 .191423 .010576 .476088
5 1 .005303 .625659 .474911
6 1 .479626 .441133 .989405
7 1 .507239 .456876 .016779
ITEM: TIMESTEP
250
ITEM: NUMBER OF ATOMS
7
ITEM: BOX BOUNDS ss ss ss
-2.9161 3.4253
-2.5643 3.3666
-2.0076 2.0421
ITEM: ATOMS id type xs ys zs
1 1 .506929 .991791 .500249
2 1 .989413 .613759 .587192
3 1 .792942 .011209 .492996
4 1 .185525 .007985 .477608
5 1 .010166 .623509 .470360
6 1 .476719 .440484 .982266
7 1 .504846 .454959 .014519
ITEM: TIMESTEP
300
ITEM: NUMBER OF ATOMS
7
ITEM: BOX BOUNDS ss ss ss
-2.9067 3.4060
-2.5643 3.3666
-2.0040 2.0397
ITEM: ATOMS id type xs ys zs
1 1 .507833 .991155 .500937
2 1 .992912 .613849 .586355
3 1 .795345 .012335 .492355
4 1 .185061 .006935 .479037
5 1 .010579 .622810 .469175
6 1 .476992 .440092 .981190
7 1 .505647 .452737 .014184
ITEM: TIMESTEP
350
ITEM: NUMBER OF ATOMS
7
ITEM: BOX BOUNDS ss ss ss
-2.9105 3.4133
-2.5643 3.3748
-1.9975 2.0438
ITEM: ATOMS id type xs ys zs
1 1 .498539 .990081 .495016
2 1 .983980 .612549 .579316
3 1 .796860 .011031 .490493
4 1 .192587 .010187 .472024
5 1 .008615 .622560 .476213
6 1 .476631 .440318 .988401
7 1 .510453 .453796 .003862
ITEM: TIMESTEP
400
ITEM: NUMBER OF ATOMS
7
ITEM: BOX BOUNDS ss ss ss
-2.9131 3.3899
-2.5643 3.3755
-2.0041 2.0398
ITEM: ATOMS id type xs ys zs
1 1 .502243 .993787 .504466
2 1 .991649 .615020 .583117
3 1 .798982 .007642 .491458
4 1 .194096 .012804 .482140
5 1 .008728 .619941 .473741
6 1 .483598 .442280 .985941
7 1 .511346 .456214 .015369
ITEM: TIMESTEP
1
ITEM: NUMBER OF ATOMS
7
ITEM: BOX BOUNDS ss ss ss
-2.8895 3.3609
-2.5395 3.3565
-1.9680 2.0258
ITEM: ATOMS id type xs ys zs
1 1 .508956 .993148 .501127
2 1 .998620 .613259 .578323
3 1 .799879 .006572 .492267
4 1 .187322 .006949 .473249
5 1 .005164 .625413 .472299
6 1 .481765 .441403 .991716
7 1 .508903 .453478 .003298
ITEM: TIMESTEP
50
ITEM: NUMBER OF ATOMS
7
ITEM: BOX BOUNDS ss ss ss
-2.8895 3.3861
-2.5395 3.3565
-1.9868 2.0258
ITEM: ATOMS id type xs ys zs
1 1 .506728 .990750 .503043
2 1 .995481 .611563 .580738
3 1 .797827 .009562 .494540
4 1 .185703 .006747 .473228
5 1 .005070 .626069 .476457
6 1 .478279 .444215 .991840
7 1 .507001 .452944 .007138
ITEM: TIMESTEP
100
ITEM: NUMBER OF ATOMS
7
ITEM: BOX BOUNDS ss ss ss
-2.9017 3.3885
-2.5395 3.3565
-2.0059 2.0338
ITEM: ATOMS id type xs ys zs
1 1 .508241 .990496 .505770
2 1 .993631 .610566 .580201
3 1 .797434 .008064 .496137
4 1 .192308 .004484 .480402
5 1 .005617 .624253 .477313
6 1 .482142 .443641 .989669
7 1 .507777 .452063 .013303
ITEM: TIMESTEP
150
ITEM: NUMBER OF ATOMS
7
ITEM: BOX BOUNDS ss ss ss
-2.8987 3.3950
-2.5442 3.3565
-2.0032 2.0382
ITEM: ATOMS id type xs ys zs
1 1 .506838 .988339 .507677
2 1 .991438 .609829 .576824
3 1 .797328 .009080 .490495
4 1 .191155 .006771 .477974
5 1 .004288 .623734 .474757
6 1 .483092 .445406 .988680
7 1 .504335 .453374 .014108
ITEM: TIMESTEP
200
ITEM: NUMBER OF ATOMS
7
ITEM: BOX BOUNDS ss ss ss
-2.9007 3.4009
-2.5562 3.3573
-2.0069 2.0419
ITEM: ATOMS id type xs ys zs
1 1 .505420 .994153 .505297
2 1 .990876 .611724 .587543
3 1 .797741 .009709 .489781
4 1 .185191 .011118 .473682
5 1 .005600 .627339 .480449
6 1 .479049 .444449 .991812
7 1 .504306 .456519 .010130
ITEM: TIMESTEP
250
ITEM: NUMBER OF ATOMS
7
ITEM: BOX BOUNDS ss ss ss
-2.9021 3.4040
-2.5502 3.3655
-1.9962 2.0404
ITEM: ATOMS id type xs ys zs
1 1 .506965 .988465 .506996
2 1 .992607 .613855 .581873
3 1 .801083 .004081 .489058
4 1 .191646 .005420 .478151
5 1 .008390 .628721 .477118
6 1 .482430 .440605 .988396
7 1 .508706 .452365 .009044
ITEM: TIMESTEP
300
ITEM: NUMBER OF ATOMS
7
ITEM: BOX BOUNDS ss ss ss
-2.9036 3.4000
-2.5564 3.3627
-2.0057 2.0510
ITEM: ATOMS id type xs ys zs
1 1 .503025 .995590 .502513
2 1 .990409 .613110 .582185
3 1 .795214 .010584 .492836
4 1 .189845 .003031 .478551
5 1 .007926 .624663 .480175
6 1 .480564 .441262 .985022
7 1 .502247 .458072 .013557
ITEM: TIMESTEP
350
ITEM: NUMBER OF ATOMS
7
ITEM: BOX BOUNDS ss ss ss
-2.9102 3.4077
-2.5578 3.3670
-2.0136 2.0467
ITEM: ATOMS id type xs ys zs
1 1 .507016 .992754 .504068
2 1 .986356 .615760 .578500
3 1 .795687 .010150 .498644
4 1 .190764 .008393 .469549
5 1 .009339 .623968 .478125
6 1 .478799 .440170 .993915
7 1 .510634 .455099 .020970
ITEM: TIMESTEP
400
ITEM: NUMBER OF ATOMS
7
ITEM: BOX BOUNDS ss ss ss
-2.9145 3.3997
-2.5627 3.3708
-1.9968 2.0586
ITEM: ATOMS id type xs ys zs
1 1 .506360 .990169 .499169
2 1 .988787 .614849 .574122
3 1 .795972 .013936 .492421
4 1 .190373 .011890 .465233
5 1 .009860 .622258 .474312
6 1 .478070 .440699 .990382
7 1 .512286 .454631 .016213
ITEM: TIMESTEP
1
ITEM: NUMBER OF ATOMS
7
ITEM: BOX BOUNDS ss ss ss
-2.8895 3.3725
-2.5445 3.3613
-1.9696 2.0323
ITEM: ATOMS id type xs ys zs
1 1 .508152 .992399 .500787
2 1 .996772 .613622 .577637
3 1 .798414 .007830 .491229
4 1 .187191 .007946 .472323
5 1 .005233 .624971 .471871
6 1 .480911 .441541 .990324
7 1 .508565 .453623 .003966
ITEM: TIMESTEP
50
ITEM: NUMBER OF ATOMS
7
ITEM: BOX BOUNDS ss ss ss
-2.8895 3.3793
-2.5445 3.3613
-1.9838 2.0323
ITEM: ATOMS id type xs ys zs
1 1 .508371 .991239 .503841
2 1 .994284 .614612 .581534
3 1 .797303 .006850 .491801
4 1 .185949 .009138 .473939
5 1 .002622 .624203 .472476
6 1 .480740 .440696 .990913
7 1 .507146 .453974 .007369
ITEM: TIMESTEP
100
ITEM: NUMBER OF ATOMS
7
ITEM: BOX BOUNDS ss ss ss
-2.8900 3.3954
-2.5445 3.3613
-1.9973 2.0323
ITEM: ATOMS id type xs ys zs
1 1 .506192 .992766 .505271
2 1 .993662 .613763 .584637
3 1 .797182 .006327 .488933
4 1 .186181 .008001 .479112
5 1 .003910 .623637 .477388
6 1 .477993 .439439 .991993
7 1 .504051 .453410 .007873
ITEM: TIMESTEP
150
ITEM: NUMBER OF ATOMS
7
ITEM: BOX BOUNDS ss ss ss
-2.9037 3.3949
-2.5445 3.3613
-2.0082 2.0397
ITEM: ATOMS id type xs ys zs
1 1 .507088 .991970 .502554
2 1 .990184 .614436 .580198
3 1 .795612 .008238 .492043
4 1 .187944 .006919 .476032
5 1 .009731 .625593 .477003
6 1 .477163 .440177 .985327
7 1 .506587 .449602 .009151
ITEM: TIMESTEP
200
ITEM: NUMBER OF ATOMS
7
ITEM: BOX BOUNDS ss ss ss
-2.9064 3.3999
-2.5475 3.3653
-2.0101 2.0407
ITEM: ATOMS id type xs ys zs
1 1 .508757 .990243 .502748
2 1 .988851 .614792 .578448
3 1 .794642 .007731 .492456
4 1 .187482 .008713 .476911
5 1 .010132 .624584 .474218
6 1 .477090 .440138 .986222
7 1 .505556 .448207 .009720
ITEM: TIMESTEP
250
ITEM: NUMBER OF ATOMS
7
ITEM: BOX BOUNDS ss ss ss
-2.9141 3.3980
-2.5510 3.3672
-2.0126 2.0409
ITEM: ATOMS id type xs ys zs
1 1 .504897 .992555 .500382
2 1 .988836 .612176 .588933
3 1 .790327 .009995 .492619
4 1 .190652 .006473 .475444
5 1 .004545 .624613 .485511
6 1 .475458 .443008 .979482
7 1 .505174 .455041 .017692
ITEM: TIMESTEP
300
ITEM: NUMBER OF ATOMS
7
ITEM: BOX BOUNDS ss ss ss
-2.9182 3.4005
-2.5484 3.3672
-2.0077 2.0459
ITEM: ATOMS id type xs ys zs
1 1 .510493 .990126 .511207
2 1 .990608 .613078 .577415
3 1 .794876 .009795 .487331
4 1 .187745 .011808 .484428
5 1 .012890 .626694 .472285
6 1 .481951 .445033 .990136
7 1 .508488 .451503 .012750
ITEM: TIMESTEP
350
ITEM: NUMBER OF ATOMS
7
ITEM: BOX BOUNDS ss ss ss
-2.9263 3.4076
-2.5542 3.3811
-2.0042 2.0537
ITEM: ATOMS id type xs ys zs
1 1 .505872 .992282 .497984
2 1 .988543 .609696 .579963
3 1 .796547 .005860 .491701
4 1 .194046 .008966 .470636
5 1 .004553 .624334 .474891
6 1 .474677 .443859 .982453
7 1 .504657 .454637 .015644
ITEM: TIMESTEP
400
ITEM: NUMBER OF ATOMS
7
ITEM: BOX BOUNDS ss ss ss
-2.9290 3.4202
-2.5609 3.3847
-1.9978 2.0466
ITEM: ATOMS id type xs ys zs
1 1 .506090 .992698 .500242
2 1 .985228 .613910 .581357
3 1 .792770 .007958 .491610
4 1 .191726 .009239 .478473
5 1 .010073 .622638 .480854
6 1 .479662 .442187 .979562
7 1 .503467 .455757 .012137
ITEM: TIMESTEP
450
ITEM: NUMBER OF ATOMS
7
ITEM: BOX BOUNDS ss ss ss
-2.9284 3.3997
-2.5619 3.3903
-2.0074 2.0360
ITEM: ATOMS id type xs ys zs
1 1 .504909 .990061 .503698
2 1 .987179 .610753 .584138
3 1 .797798 .011206 .490881
4 1 .193811 .006504 .476677
5 1 .006660 .620030 .476430
6 1 .476403 .439210 .990298
7 1 .505856 .456292 .021347
ITEM: TIMESTEP
500
ITEM: NUMBER OF ATOMS
7
ITEM: BOX BOUNDS ss ss ss
-2.9315 3.3976
-2.5619 3.3945
-2.0009 2.0368
ITEM: ATOMS id type xs ys zs
1 1 .505100 .989458 .502337
2 1 .987683 .610716 .585869
3 1 .799591 .009802 .488215
4 1 .194540 .006122 .474798
5 1 .006895 .619999 .479999
6 1 .475955 .439808 .992484
7 1 .505773 .457696 .017035
ITEM: TIMESTEP
550
ITEM: NUMBER OF ATOMS
7
ITEM: BOX BOUNDS ss ss ss
-2.9311 3.3857
-2.5671 3.3958
-2.0094 2.0357
ITEM: ATOMS id type xs ys zs
1 1 .505598 .990481 .500419
2 1 .991578 .610328 .589024
3 1 .799616 .008382 .498190
4 1 .192139 .009258 .477665
5 1 .006664 .625771 .481152
6 1 .479903 .440668 .986480
7 1 .509608 .452055 .021606
ITEM: TIMESTEP
600
ITEM: NUMBER OF ATOMS
7
ITEM: BOX BOUNDS ss ss ss
-2.9303 3.3977
-2.5721 3.3999
-2.0153 2.0262
ITEM: ATOMS id type xs ys zs
1 1 .504260 .988715 .500874
2 1 .990751 .609614 .594620
3 1 .798593 .007403 .499683
4 1 .192495 .012270 .478270
5 1 .007259 .626891 .482511
6 1 .479414 .441854 .986894
7 1 .506576 .453251 .019319
ITEM: TIMESTEP
650
ITEM: NUMBER OF ATOMS
7
ITEM: BOX BOUNDS ss ss ss
-2.9327 3.3867
-2.5717 3.3950
-2.0069 2.0248
ITEM: ATOMS id type xs ys zs
1 1 .506464 .990905 .502117
2 1 .990323 .605170 .581266
3 1 .793776 .006971 .481923
4 1 .189020 .009128 .478122
5 1 .011360 .623003 .474628
6 1 .479656 .443792 .983028
7 1 .510822 .454777 .015061
ITEM: TIMESTEP
700
ITEM: NUMBER OF ATOMS
7
ITEM: BOX BOUNDS ss ss ss
-2.9247 3.3815
-2.5764 3.3966
-2.0028 2.0253
ITEM: ATOMS id type xs ys zs
1 1 .506261 .989878 .504395
2 1 .990603 .606603 .578250
3 1 .793685 .009437 .482074
4 1 .187931 .008859 .477578
5 1 .011511 .624653 .473274
6 1 .478138 .444741 .986708
7 1 .510871 .453831 .017435
ITEM: TIMESTEP
750
ITEM: NUMBER OF ATOMS
7
ITEM: BOX BOUNDS ss ss ss
-2.9317 3.3800
-2.5758 3.4045
-2.0105 2.0335
ITEM: ATOMS id type xs ys zs
1 1 .513311 .996292 .504452
2 1 .991208 .606499 .588273
3 1 .796225 .005818 .483254
4 1 .191252 .009116 .476544
5 1 .012934 .621420 .469218
6 1 .477182 .440671 .988691
7 1 .513228 .456902 .022294
ITEM: TIMESTEP
800
ITEM: NUMBER OF ATOMS
7
ITEM: BOX BOUNDS ss ss ss
-2.9259 3.3828
-2.5841 3.4035
-1.9909 2.0299
ITEM: ATOMS id type xs ys zs
1 1 .505125 .987981 .501755
2 1 .987896 .608334 .580061
3 1 .795344 .009930 .483114
4 1 .193274 .013105 .471423
5 1 .005938 .628474 .472365
6 1 .475970 .443539 .990917
7 1 .505600 .453080 .012456
ITEM: TIMESTEP
850
ITEM: NUMBER OF ATOMS
7
ITEM: BOX BOUNDS ss ss ss
-2.9271 3.3932
-2.5860 3.4030
-1.9990 2.0277
ITEM: ATOMS id type xs ys zs
1 1 .510761 .993757 .505714
2 1 .990256 .609202 .583590
3 1 .796726 .010050 .481376
4 1 .190089 .015408 .469716
5 1 .009199 .631616 .463938
6 1 .478327 .440403 .986389
7 1 .509449 .459693 .015575
ITEM: TIMESTEP
900
ITEM: NUMBER OF ATOMS
7
ITEM: BOX BOUNDS ss ss ss
-2.9320 3.3847
-2.5828 3.4060
-1.9858 2.0317
ITEM: ATOMS id type xs ys zs
1 1 .514071 .994368 .500488
2 1 .992651 .610884 .580107
3 1 .799099 .008958 .480364
4 1 .193063 .014016 .464950
5 1 .009390 .632698 .461672
6 1 .479170 .439461 .982938
7 1 .509680 .457875 .012232
ITEM: TIMESTEP
1
ITEM: NUMBER OF ATOMS
7
ITEM: BOX BOUNDS ss ss ss
-2.9173 3.3588
-2.5633 3.3880
-1.9622 2.0058
ITEM: ATOMS id type xs ys zs
1 1 .511555 .987707 .502649
2 1 .998621 .611651 .580961
3 1 .800971 .010562 .494076
4 1 .190893 .010974 .474644
5 1 .009990 .623514 .474192
6 1 .484012 .441172 .996476
7 1 .511423 .453366 .001424
ITEM: TIMESTEP
50
ITEM: NUMBER OF ATOMS
7
ITEM: BOX BOUNDS ss ss ss
-2.9173 3.3807
-2.5633 3.3880
-1.9855 2.0209
ITEM: ATOMS id type xs ys zs
1 1 .510868 .986738 .501726
2 1 .995583 .612815 .582817
3 1 .797723 .010815 .493983
4 1 .189518 .009847 .478804
5 1 .010552 .625577 .478127
6 1 .481022 .441224 .994630
7 1 .510508 .452896 .004191
ITEM: TIMESTEP
100
ITEM: NUMBER OF ATOMS
7
ITEM: BOX BOUNDS ss ss ss
-2.9173 3.3897
-2.5633 3.3880
-2.0049 2.0341
ITEM: ATOMS id type xs ys zs
1 1 .507613 .985185 .504670
2 1 .995411 .609730 .581048
3 1 .796794 .012566 .497187
4 1 .191984 .008879 .477007
5 1 .009926 .623582 .477429
6 1 .481662 .440097 .989770
7 1 .509094 .453465 .013266
ITEM: TIMESTEP
150
ITEM: NUMBER OF ATOMS
7
ITEM: BOX BOUNDS ss ss ss
-2.9173 3.3962
-2.5633 3.3880
-2.0026 2.0421
ITEM: ATOMS id type xs ys zs
1 1 .511135 .986754 .501616
2 1 .995740 .611505 .575167
3 1 .798397 .011836 .492021
4 1 .189944 .014831 .478511
5 1 .009228 .623053 .477040
6 1 .480627 .439668 .985605
7 1 .509428 .453344 .008694
ITEM: TIMESTEP
200
ITEM: NUMBER OF ATOMS
7
ITEM: BOX BOUNDS ss ss ss
-2.9173 3.4014
-2.5633 3.3880
-2.0058 2.0345
ITEM: ATOMS id type xs ys zs
1 1 .510229 .985985 .500438
2 1 .992860 .611093 .581414
3 1 .798075 .007938 .493290
4 1 .187301 .011124 .479194
5 1 .011545 .626710 .476955
6 1 .477148 .439893 .990605
7 1 .512625 .450041 .013486
ITEM: TIMESTEP
250
ITEM: NUMBER OF ATOMS
7
ITEM: BOX BOUNDS ss ss ss
-2.9173 3.4042
-2.5633 3.3880
-2.0009 2.0413
ITEM: ATOMS id type xs ys zs
1 1 .509103 .988964 .498871
2 1 .991320 .612893 .585465
3 1 .795441 .010177 .490159
4 1 .187510 .009350 .470436
5 1 .008349 .624275 .480034
6 1 .478321 .440262 .985860
7 1 .505529 .451966 .009042
ITEM: TIMESTEP
300
ITEM: NUMBER OF ATOMS
7
ITEM: BOX BOUNDS ss ss ss
-2.9173 3.4017
-2.5633 3.3880
-1.9988 2.0420
ITEM: ATOMS id type xs ys zs
1 1 .506347 .990294 .499687
2 1 .988622 .615404 .581184
3 1 .794635 .008845 .485559
4 1 .190947 .010449 .486076
5 1 .011332 .623061 .473895
6 1 .483943 .445587 .994951
7 1 .503156 .455336 .012460
ITEM: TIMESTEP
350
ITEM: NUMBER OF ATOMS
7
ITEM: BOX BOUNDS ss ss ss
-2.9173 3.3979
-2.5672 3.3880
-1.9953 2.0427
ITEM: ATOMS id type xs ys zs
1 1 .509906 .986983 .489749
2 1 .995364 .608336 .580502
3 1 .794220 .008974 .495686
4 1 .187066 .007586 .471633
5 1 .006595 .623672 .491553
6 1 .478794 .436043 .983618
7 1 .509429 .446551 .010018
ITEM: TIMESTEP
400
ITEM: NUMBER OF ATOMS
7
ITEM: BOX BOUNDS ss ss ss
-2.9173 3.3927
-2.5704 3.3910
-1.9961 2.0448
ITEM: ATOMS id type xs ys zs
1 1 .508335 .990357 .487220
2 1 .992968 .611101 .579569
3 1 .795387 .009783 .489617
4 1 .189889 .010821 .476931
5 1 .009196 .622824 .474573
6 1 .485446 .446278 .982333
7 1 .510124 .453081 .006971
ITEM: TIMESTEP
450
ITEM: NUMBER OF ATOMS
7
ITEM: BOX BOUNDS ss ss ss
-2.9173 3.4031
-2.5740 3.3880
-1.9922 2.0454
ITEM: ATOMS id type xs ys zs
1 1 .510373 .991600 .484614
2 1 .990660 .607286 .578716
3 1 .798163 .004969 .496221
4 1 .190662 .008966 .475826
5 1 .007774 .626234 .478635
6 1 .481159 .440971 .983702
7 1 .508772 .450504 .015665
ITEM: TIMESTEP
500
ITEM: NUMBER OF ATOMS
7
ITEM: BOX BOUNDS ss ss ss
-2.9173 3.3868
-2.5888 3.3880
-2.0017 2.0511
ITEM: ATOMS id type xs ys zs
1 1 .510982 .990399 .485634
2 1 .994313 .606672 .580564
3 1 .799307 .005873 .495008
4 1 .189656 .010884 .477211
5 1 .007971 .624683 .476522
6 1 .481902 .443077 .982359
7 1 .510804 .451483 .017830
ITEM: TIMESTEP
550
ITEM: NUMBER OF ATOMS
7
ITEM: BOX BOUNDS ss ss ss
-2.9173 3.3853
-2.5841 3.3880
-2.0006 2.0700
ITEM: ATOMS id type xs ys zs
1 1 .512101 .990344 .482442
2 1 .993883 .607318 .581617
3 1 .800164 .006725 .491653
4 1 .189960 .006869 .477053
5 1 .006950 .626321 .474922
6 1 .481854 .441371 .980824
7 1 .508871 .452391 .015974
ITEM: TIMESTEP
600
ITEM: NUMBER OF ATOMS
7
ITEM: BOX BOUNDS ss ss ss
-2.9173 3.3939
-2.5831 3.3880
-1.9956 2.0497
ITEM: ATOMS id type xs ys zs
1 1 .511854 .992660 .500564
2 1 .990807 .606546 .582046
3 1 .791926 .010441 .490959
4 1 .189601 .012027 .480724
5 1 .007314 .625647 .481388
6 1 .477924 .444804 .989235
7 1 .507347 .454723 .017796
ITEM: TIMESTEP
650
ITEM: NUMBER OF ATOMS
7
ITEM: BOX BOUNDS ss ss ss
-2.9239 3.3902
-2.5851 3.3880
-1.9929 2.0552
ITEM: ATOMS id type xs ys zs
1 1 .509511 .992683 .499687
2 1 .994265 .609449 .578792
3 1 .799062 .010056 .487779
4 1 .188647 .013169 .479716
5 1 .011444 .631654 .484805
6 1 .485998 .440816 .983048
7 1 .506588 .452529 .016841
ITEM: TIMESTEP
700
ITEM: NUMBER OF ATOMS
7
ITEM: BOX BOUNDS ss ss ss
-2.9252 3.3920
-2.5891 3.3880
-1.9922 2.0429
ITEM: ATOMS id type xs ys zs
1 1 .509389 .994220 .503276
2 1 .992800 .612307 .581704
3 1 .798243 .008062 .479455
4 1 .189325 .012910 .476600
5 1 .008004 .623017 .485270
6 1 .484198 .437549 .983364
7 1 .507239 .458282 .022622
ITEM: TIMESTEP
750
ITEM: NUMBER OF ATOMS
7
ITEM: BOX BOUNDS ss ss ss
-2.9343 3.3984
-2.5879 3.3944
-1.9847 2.0407
ITEM: ATOMS id type xs ys zs
1 1 .509761 .993070 .498364