ITEM: TIMESTEP
1
ITEM: NUMBER OF ATOMS
7
ITEM: BOX BOUNDS ss ss ss
-2.9088 3.2735
-2.8395 3.1790
-1.9130 2.0021
ITEM: ATOMS id type xs ys zs
1 1 .482630 .999603 .525657
2 1 .999218 .649261 .513641
3 1 .826229 .037312 .448227
4 1 .211978 .000801 .526860
5 1 .000809 .596205 .515829
6 1 .512156 .449441 .999236
7 1 .499289 .471891 .001111
ITEM: TIMESTEP
50
ITEM: NUMBER OF ATOMS
7
ITEM: BOX BOUNDS ss ss ss
-2.9309 3.3005
-2.8615 3.2037
-1.9351 2.0240
ITEM: ATOMS id type xs ys zs
1 1 .483025 .994702 .524142
2 1 .995083 .648290 .514355
3 1 .823720 .039096 .444837
4 1 .213435 .005718 .525619
5 1 .005332 .593322 .513300
6 1 .513377 .449493 .995947
7 1 .500847 .472764 .008703
ITEM: TIMESTEP
100
ITEM: NUMBER OF ATOMS
7
ITEM: BOX BOUNDS ss ss ss
-2.9408 3.3061
-2.8764 3.2124
-1.9417 2.0396
ITEM: ATOMS id type xs ys zs
1 1 .486177 .994540 .523417
2 1 .993368 .648425 .513982
3 1 .823856 .040062 .444254
4 1 .213677 .008030 .523486
5 1 .006721 .595318 .508966
6 1 .514467 .448246 .994188
7 1 .499975 .474304 .009711
ITEM: TIMESTEP
150
ITEM: NUMBER OF ATOMS
7
ITEM: BOX BOUNDS ss ss ss
-2.9503 3.3146
-2.8748 3.2181
-1.9537 2.0451
ITEM: ATOMS id type xs ys zs
1 1 .484264 .994059 .527572
2 1 .994545 .646377 .510800
3 1 .822699 .042785 .452432
4 1 .215072 .002375 .529558
5 1 .010385 .595107 .509977
6 1 .512409 .450373 .990714
7 1 .500937 .471239 .008786
ITEM: TIMESTEP
200
ITEM: NUMBER OF ATOMS
7
ITEM: BOX BOUNDS ss ss ss
-2.9502 3.3179
-2.8779 3.2150
-1.9490 2.0460
ITEM: ATOMS id type xs ys zs
1 1 .483138 .991029 .525505
2 1 .995827 .646131 .514128
3 1 .822055 .039591 .445820
4 1 .216384 .009053 .531360
5 1 .007166 .594588 .515837
6 1 .514503 .447959 .990985
7 1 .499075 .469543 .009960
ITEM: TIMESTEP
250
ITEM: NUMBER OF ATOMS
7
ITEM: BOX BOUNDS ss ss ss
-2.9607 3.3176
-2.8759 3.2139
-1.9634 2.0470
ITEM: ATOMS id type xs ys zs
1 1 .484447 .993383 .526797
2 1 .989739 .642464 .519099
3 1 .821840 .038132 .447081
4 1 .221016 .011256 .522227
5 1 .009258 .600163 .517523
6 1 .512059 .450762 .995176
7 1 .500840 .473591 .013113
ITEM: TIMESTEP
300
ITEM: NUMBER OF ATOMS
7
ITEM: BOX BOUNDS ss ss ss
-2.9681 3.3142
-2.8821 3.2156
-1.9468 2.0556
ITEM: ATOMS id type xs ys zs
1 1 .485163 .993553 .522201
2 1 .991268 .643333 .516531
3 1 .823157 .037861 .443669
4 1 .222767 .012950 .523561
5 1 .011165 .600661 .516160
6 1 .512149 .452245 .991066
7 1 .502428 .474560 .010908
ITEM: TIMESTEP
350
ITEM: NUMBER OF ATOMS
7
ITEM: BOX BOUNDS ss ss ss
-2.9729 3.3134
-2.8734 3.2202
-1.9520 2.0696
ITEM: ATOMS id type xs ys zs
1 1 .481883 .993819 .518379
2 1 .993025 .644011 .510396
3 1 .825629 .041994 .447677
4 1 .221312 .009831 .519881
5 1 .007084 .597105 .509139
6 1 .511720 .452860 .981669
7 1 .499074 .468029 .010566
ITEM: TIMESTEP
400
ITEM: NUMBER OF ATOMS
7
ITEM: BOX BOUNDS ss ss ss
-2.9685 3.3087
-2.8752 3.2179
-1.9579 2.0740
ITEM: ATOMS id type xs ys zs
1 1 .481722 .995717 .519473
2 1 .995469 .643622 .510825
3 1 .824709 .041351 .447193
4 1 .220733 .008769 .522879
5 1 .006577 .596020 .507859
6 1 .511739 .454708 .977139
7 1 .498597 .467145 .008806
ITEM: TIMESTEP
1
ITEM: NUMBER OF ATOMS
7
ITEM: BOX BOUNDS ss ss ss
-2.9579 3.3065
-2.8585 3.2060
-1.9461 2.0530
ITEM: ATOMS id type xs ys zs
1 1 .484226 .994890 .523364
2 1 .994272 .647531 .511350
3 1 .823455 .040466 .446955
4 1 .216810 .003745 .523387
5 1 .008312 .595230 .513733
6 1 .512973 .449002 .986909
7 1 .500613 .471440 .009570
ITEM: TIMESTEP
50
ITEM: NUMBER OF ATOMS
7
ITEM: BOX BOUNDS ss ss ss
-2.9579 3.3065
-2.8628 3.2060
-1.9461 2.0530
ITEM: ATOMS id type xs ys zs
1 1 .483722 .995772 .523025
2 1 .994395 .647495 .514360
3 1 .820350 .037989 .445956
4 1 .217539 .005290 .522378
5 1 .010436 .595242 .512915
6 1 .514404 .449026 .985440
7 1 .503152 .471165 .007860
ITEM: TIMESTEP
100
ITEM: NUMBER OF ATOMS
7
ITEM: BOX BOUNDS ss ss ss
-2.9579 3.3065
-2.8728 3.2192
-1.9486 2.0530
ITEM: ATOMS id type xs ys zs
1 1 .485433 .993366 .525838
2 1 .994022 .647939 .518696
3 1 .820560 .040279 .444364
4 1 .216453 .006763 .521907
5 1 .012943 .595034 .513303
6 1 .513539 .449782 .983407
7 1 .502833 .471314 .009211
ITEM: TIMESTEP
150
ITEM: NUMBER OF ATOMS
7
ITEM: BOX BOUNDS ss ss ss
-2.9568 3.3125
-2.8760 3.2182
-1.9585 2.0530
ITEM: ATOMS id type xs ys zs
1 1 .482984 .993737 .525741
2 1 .991215 .645352 .514296
3 1 .823351 .045431 .448960
4 1 .217069 .007108 .523902
5 1 .007282 .596373 .521209
6 1 .510416 .447604 .986544
7 1 .499457 .475827 .013128
ITEM: TIMESTEP
200
ITEM: NUMBER OF ATOMS
7
ITEM: BOX BOUNDS ss ss ss
-2.9601 3.3115
-2.8804 3.2169
-1.9559 2.0526
ITEM: ATOMS id type xs ys zs
1 1 .485121 .995756 .521495
2 1 .991570 .647562 .513776
3 1 .822012 .047186 .447532
4 1 .216124 .008112 .525481
5 1 .008012 .596418 .521336
6 1 .510546 .446259 .987947
7 1 .501091 .477645 .010023
ITEM: TIMESTEP
250
ITEM: NUMBER OF ATOMS
7
ITEM: BOX BOUNDS ss ss ss
-2.9562 3.3129
-2.8731 3.2295
-1.9500 2.0565
ITEM: ATOMS id type xs ys zs
1 1 .483809 .990504 .529512
2 1 .993621 .645338 .507222
3 1 .822722 .039292 .445952
4 1 .219725 .008415 .521073
5 1 .008388 .595291 .514010
6 1 .512350 .449781 .982171
7 1 .498135 .471428 .015824
ITEM: TIMESTEP
300
ITEM: NUMBER OF ATOMS
7
ITEM: BOX BOUNDS ss ss ss
-2.9623 3.3195
-2.8817 3.2274
-1.9530 2.0536
ITEM: ATOMS id type xs ys zs
1 1 .481531 .996091 .521906
2 1 .991642 .644731 .504765
3 1 .822402 .039181 .458933
4 1 .214989 .011738 .524114
5 1 .007110 .596640 .514076
6 1 .513394 .453281 .985262
7 1 .500601 .469098 .018044
ITEM: TIMESTEP
350
ITEM: NUMBER OF ATOMS
7
ITEM: BOX BOUNDS ss ss ss
-2.9595 3.3216
-2.8817 3.2211
-1.9500 2.0509
ITEM: ATOMS id type xs ys zs
1 1 .481124 .989720 .531837
2 1 .990052 .642504 .511971
3 1 .821915 .037992 .445199
4 1 .220638 .012065 .523705
5 1 .006070 .595800 .517967
6 1 .512231 .450583 .991878
7 1 .496137 .473801 .012856
ITEM: TIMESTEP
400
ITEM: NUMBER OF ATOMS
7
ITEM: BOX BOUNDS ss ss ss
-2.9675 3.3101
-2.8730 3.2306
-1.9477 2.0558
ITEM: ATOMS id type xs ys zs
1 1 .482115 .988485 .529260
2 1 .990951 .642692 .513867
3 1 .823349 .036412 .445469
4 1 .220809 .012419 .520911
5 1 .006263 .594430 .519628
6 1 .513331 .449644 .991080
7 1 .497470 .472798 .011529
ITEM: TIMESTEP
1
ITEM: NUMBER OF ATOMS
7
ITEM: BOX BOUNDS ss ss ss
-2.9703 3.3079
-2.8669 3.2146
-1.9368 2.0492
ITEM: ATOMS id type xs ys zs
1 1 .485453 .993368 .522340
2 1 .994355 .646705 .510423
3 1 .823234 .041530 .446441
4 1 .218369 .005169 .523322
5 1 .010626 .594342 .512834
6 1 .513819 .449018 .987116
7 1 .501281 .471693 .007186
ITEM: TIMESTEP
50
ITEM: NUMBER OF ATOMS
7
ITEM: BOX BOUNDS ss ss ss
-2.9703 3.3079
-2.8669 3.2146
-1.9384 2.0492
ITEM: ATOMS id type xs ys zs
1 1 .485188 .994118 .521104
2 1 .992500 .648468 .513837
3 1 .821702 .041238 .445891
4 1 .218594 .004045 .526404
5 1 .010833 .595030 .513177
6 1 .513314 .449088 .986721
7 1 .503587 .473310 .006521
ITEM: TIMESTEP
100
ITEM: NUMBER OF ATOMS
7
ITEM: BOX BOUNDS ss ss ss
-2.9703 3.3079
-2.8741 3.2153
-1.9495 2.0492
ITEM: ATOMS id type xs ys zs
1 1 .486163 .993922 .520569
2 1 .992248 .650450 .514795
3 1 .820922 .042614 .443579
4 1 .217635 .004047 .524293
5 1 .011308 .595219 .514838
6 1 .513095 .449556 .986686
7 1 .503871 .473372 .009950
ITEM: TIMESTEP
150
ITEM: NUMBER OF ATOMS
7
ITEM: BOX BOUNDS ss ss ss
-2.9703 3.3113
-2.8761 3.2190
-1.9526 2.0492
ITEM: ATOMS id type xs ys zs
1 1 .480047 .994372 .522254
2 1 .994197 .647197 .509673
3 1 .820130 .038919 .448631
4 1 .218881 .007382 .528037
5 1 .009235 .594266 .511261
6 1 .515714 .450206 .989070
7 1 .504482 .470759 .008878
ITEM: TIMESTEP
200
ITEM: NUMBER OF ATOMS
7
ITEM: BOX BOUNDS ss ss ss
-2.9703 3.3116
-2.8908 3.2268
-1.9508 2.0492
ITEM: ATOMS id type xs ys zs
1 1 .485618 .992298 .522684
2 1 .994545 .646180 .514897
3 1 .826703 .044312 .441992
4 1 .217996 .009460 .525131
5 1 .012793 .593758 .515921
6 1 .515445 .446961 .983723
7 1 .499618 .467842 .007014
ITEM: TIMESTEP
250
ITEM: NUMBER OF ATOMS
7
ITEM: BOX BOUNDS ss ss ss
-2.9703 3.3235
-2.8816 3.2374
-1.9528 2.0496
ITEM: ATOMS id type xs ys zs
1 1 .487900 .992004 .526223
2 1 .990186 .646909 .518193
3 1 .823012 .045574 .442761
4 1 .220464 .010832 .527663
5 1 .011630 .598337 .513761
6 1 .513001 .450295 .994775
7 1 .497746 .472214 .013398
ITEM: TIMESTEP
300
ITEM: NUMBER OF ATOMS
7
ITEM: BOX BOUNDS ss ss ss
-2.9703 3.3268
-2.8733 3.2266
-1.9624 2.0465
ITEM: ATOMS id type xs ys zs
1 1 .485877 .993458 .527973
2 1 .989872 .646173 .518413
3 1 .826169 .046881 .444148
4 1 .220192 .008080 .529759
5 1 .011929 .599669 .514478
6 1 .514435 .451649 .994583
7 1 .497514 .471117 .015211
ITEM: TIMESTEP
350
ITEM: NUMBER OF ATOMS
7
ITEM: BOX BOUNDS ss ss ss
-2.9703 3.3270
-2.8760 3.2303
-1.9499 2.0455
ITEM: ATOMS id type xs ys zs
1 1 .483625 .992340 .518348
2 1 .989148 .647259 .513476
3 1 .823659 .044181 .450582
4 1 .215771 .011888 .525317
5 1 .008947 .599579 .510611
6 1 .510771 .452405 .986708
7 1 .499654 .463775 .009380
ITEM: TIMESTEP
400
ITEM: NUMBER OF ATOMS
7
ITEM: BOX BOUNDS ss ss ss
-2.9703 3.3184
-2.8761 3.2300
-1.9547 2.0553
ITEM: ATOMS id type xs ys zs
1 1 .483976 .994054 .515649
2 1 .989544 .647866 .510907
3 1 .822604 .044899 .451977
4 1 .213852 .012808 .524254
5 1 .010949 .599172 .512852
6 1 .511143 .452101 .982840
7 1 .499871 .464803 .009702
ITEM: TIMESTEP
1
ITEM: NUMBER OF ATOMS
7
ITEM: BOX BOUNDS ss ss ss
-2.9703 3.3193
-2.8579 3.2270
-1.9598 2.0407
ITEM: ATOMS id type xs ys zs
1 1 .484468 .991375 .526042
2 1 .992265 .644701 .514305
3 1 .821980 .039920 .450631
4 1 .218165 .003333 .526979
5 1 .010404 .592689 .517160
6 1 .513273 .447550 .989527
7 1 .500908 .470025 .012654
ITEM: TIMESTEP
50
ITEM: NUMBER OF ATOMS
7
ITEM: BOX BOUNDS ss ss ss
-2.9703 3.3193
-2.8640 3.2270
-1.9598 2.0407
ITEM: ATOMS id type xs ys zs
1 1 .482393 .992074 .525672
2 1 .991688 .645710 .517529
3 1 .821398 .042857 .448294
4 1 .216836 .003684 .530236
5 1 .010632 .591557 .515094
6 1 .511452 .447984 .988713
7 1 .501734 .472201 .013075
ITEM: TIMESTEP
100
ITEM: NUMBER OF ATOMS
7
ITEM: BOX BOUNDS ss ss ss
-2.9703 3.3193
-2.8762 3.2270
-1.9598 2.0397
ITEM: ATOMS id type xs ys zs
1 1 .484922 .994229 .527291
2 1 .992421 .647221 .518248
3 1 .820596 .044370 .440824
4 1 .219832 .005049 .529114
5 1 .010634 .592676 .514309
6 1 .512661 .448237 .987993
7 1 .503274 .472805 .012185
ITEM: TIMESTEP
150
ITEM: NUMBER OF ATOMS
7
ITEM: BOX BOUNDS ss ss ss
-2.9703 3.3221
-2.8791 3.2270
-1.9598 2.0420
ITEM: ATOMS id type xs ys zs
1 1 .482999 .991040 .517125
2 1 .988861 .645979 .517694
3 1 .817932 .047285 .448026
4 1 .220681 .004146 .530773
5 1 .009533 .596534 .520910
6 1 .508412 .451229 .994983
7 1 .499828 .471724 .007043
ITEM: TIMESTEP
200
ITEM: NUMBER OF ATOMS
7
ITEM: BOX BOUNDS ss ss ss
-2.9703 3.3193
-2.8802 3.2270
-1.9598 2.0487
ITEM: ATOMS id type xs ys zs
1 1 .483130 .991063 .523854
2 1 .992951 .648580 .514005
3 1 .820301 .045672 .448397
4 1 .217982 .008516 .531250
5 1 .007571 .595227 .519091
6 1 .512024 .453495 .985603
7 1 .498095 .471813 .018798
ITEM: TIMESTEP
250
ITEM: NUMBER OF ATOMS
7
ITEM: BOX BOUNDS ss ss ss
-2.9703 3.3193
-2.8787 3.2266
-1.9598 2.0493
ITEM: ATOMS id type xs ys zs
1 1 .483000 .991490 .523727
2 1 .993663 .647413 .511955
3 1 .820368 .045394 .445630
4 1 .218092 .009389 .536219
5 1 .005624 .593633 .517457
6 1 .511613 .455763 .985704
7 1 .498199 .471714 .021135
ITEM: TIMESTEP
300
ITEM: NUMBER OF ATOMS
7
ITEM: BOX BOUNDS ss ss ss
-2.9703 3.3210
-2.8810 3.2241
-1.9502 2.0533
ITEM: ATOMS id type xs ys zs
1 1 .485262 .988213 .530955
2 1 .993191 .641028 .515836
3 1 .819335 .039944 .450724
4 1 .219756 .009986 .525855
5 1 .009442 .592079 .514302
6 1 .515562 .449357 .993479
7 1 .502332 .472095 .011347
ITEM: TIMESTEP
350
ITEM: NUMBER OF ATOMS
7
ITEM: BOX BOUNDS ss ss ss
-2.9703 3.3354
-2.8817 3.2281
-1.9507 2.0654
ITEM: ATOMS id type xs ys zs
1 1 .483519 .987451 .527242
2 1 .993010 .639255 .510039
3 1 .819202 .042012 .445712
4 1 .219561 .011500 .520529
5 1 .010271 .592611 .512474
6 1 .513714 .448047 .991255
7 1 .497506 .471357 .014098
ITEM: TIMESTEP
400
ITEM: NUMBER OF ATOMS
7
ITEM: BOX BOUNDS ss ss ss
-2.9703 3.3313
-2.8759 3.2219
-1.9503 2.0653
ITEM: ATOMS id type xs ys zs
1 1 .484190 .990147 .527661
2 1 .995515 .638916 .508869
3 1 .819503 .041213 .444769
4 1 .219102 .012653 .519540
5 1 .011930 .591897 .510221
6 1 .514317 .448223 .992346
7 1 .498595 .471412 .010139
ITEM: TIMESTEP
1
ITEM: NUMBER OF ATOMS
7
ITEM: BOX BOUNDS ss ss ss
-2.9619 3.3224
-2.8782 3.2150
-1.9417 2.0690
ITEM: ATOMS id type xs ys zs
1 1 .483472 .993463 .520364
2 1 .991454 .647452 .508041
3 1 .821272 .043146 .445270
4 1 .216800 .006960 .521064
5 1 .009004 .595248 .511110
6 1 .512414 .450117 .982394
7 1 .499672 .472791 .007972
ITEM: TIMESTEP
50
ITEM: NUMBER OF ATOMS
7
ITEM: BOX BOUNDS ss ss ss
-2.9619 3.3224
-2.8782 3.2150
-1.9417 2.0690
ITEM: ATOMS id type xs ys zs
1 1 .481865 .994966 .518144
2 1 .992297 .645690 .508630
3 1 .822739 .042289 .447594
4 1 .218388 .007218 .522497
5 1 .009532 .592728 .509534
6 1 .513037 .449479 .981883
7 1 .500904 .474138 .006959
ITEM: TIMESTEP
100
ITEM: NUMBER OF ATOMS
7
ITEM: BOX BOUNDS ss ss ss
-2.9619 3.3224
-2.8791 3.2217
-1.9491 2.0690
ITEM: ATOMS id type xs ys zs
1 1 .485440 .992576 .525934
2 1 .991608 .644385 .511216
3 1 .819614 .043508 .445796
4 1 .217033 .008130 .518838
5 1 .010314 .593931 .510964
6 1 .512389 .448622 .988229
7 1 .498793 .472566 .010672
ITEM: TIMESTEP
150
ITEM: NUMBER OF ATOMS
7
ITEM: BOX BOUNDS ss ss ss
-2.9493 3.3166
-2.8867 3.2215
-1.9613 2.0690
ITEM: ATOMS id type xs ys zs
1 1 .484963 .992619 .526414
2 1 .991450 .645727 .514329
3 1 .818916 .047520 .448684
4 1 .216122 .010234 .521071
5 1 .009956 .595319 .512868
6 1 .514027 .451093 .987940
7 1 .497395 .474190 .015793
ITEM: TIMESTEP
200
ITEM: NUMBER OF ATOMS
7
ITEM: BOX BOUNDS ss ss ss
-2.9550 3.3180
-2.8859 3.2214
-1.9596 2.0690
ITEM: ATOMS id type xs ys zs
1 1 .483656 .995476 .527210
2 1 .991118 .646768 .511303
3 1 .821391 .042773 .446041
4 1 .215960 .012444 .528136
5 1 .008827 .599236 .511485
6 1 .507138 .450700 .981894
7 1 .497146 .472334 .014223
ITEM: TIMESTEP
250
ITEM: NUMBER OF ATOMS
7
ITEM: BOX BOUNDS ss ss ss
-2.9557 3.3171
-2.8872 3.2315
-1.9569 2.0668
ITEM: ATOMS id type xs ys zs
1 1 .484305 .995116 .526165
2 1 .991898 .647569 .514554
3 1 .824272 .047339 .441518
4 1 .215504 .010121 .519690
5 1 .009725 .597843 .508659
6 1 .511508 .452069 .981647
7 1 .501120 .471161 .013573
ITEM: TIMESTEP
300
ITEM: NUMBER OF ATOMS
7
ITEM: BOX BOUNDS ss ss ss
-2.9614 3.3245
-2.8826 3.2348
-1.9579 2.0643
ITEM: ATOMS id type xs ys zs
1 1 .483775 .996637 .527268
2 1 .991281 .645921 .515824
3 1 .822766 .048254 .444558
4 1 .214810 .008452 .523223
5 1 .011706 .595690 .505971
6 1 .509384 .450372 .984192
7 1 .502166 .470412 .014169
ITEM: TIMESTEP
350
ITEM: NUMBER OF ATOMS
7
ITEM: BOX BOUNDS ss ss ss
-2.9655 3.3219
-2.8822 3.2345
-1.9569 2.0643
ITEM: ATOMS id type xs ys zs
1 1 .481502 .987461 .527332
2 1 .991439 .644977 .510853
3 1 .821411 .040257 .449464
4 1 .217319 .010056 .528419
5 1 .008505 .594784 .506606
6 1 .513096 .446024 .985380
7 1 .500183 .470381 .011296
ITEM: TIMESTEP
400
ITEM: NUMBER OF ATOMS
7
ITEM: BOX BOUNDS ss ss ss
-2.9665 3.3178
-2.8755 3.2305
-1.9497 2.0554
ITEM: ATOMS id type xs ys zs
1 1 .479933 .991079 .525309
2 1 .992196 .644728 .510614
3 1 .821794 .039048 .451511
4 1 .214981 .007710 .530085
5 1 .008587 .593706 .509508
6 1 .513452 .444473 .985607
7 1 .501768 .470646 .010834
ITEM: TIMESTEP
1
ITEM: NUMBER OF ATOMS
7
ITEM: BOX BOUNDS ss ss ss
-2.9559 3.3136
-2.8730 3.2257
-1.9469 2.0610
ITEM: ATOMS id type xs ys zs
1 1 .483607 .991608 .521704
2 1 .993223 .645936 .510120
3 1 .822224 .042551 .446728
4 1 .216537 .006465 .522933
5 1 .008327 .593770 .513058
6 1 .512495 .448537 .984263
7 1 .499874 .471154 .009879
ITEM: TIMESTEP
50
ITEM: NUMBER OF ATOMS
7
ITEM: BOX BOUNDS ss ss ss
-2.9559 3.3136
-2.8730 3.2257
-1.9469 2.0610
ITEM: ATOMS id type xs ys zs
1 1 .482992 .992359 .522864
2 1 .993462 .644631 .508438
3 1 .820648 .041834 .449573
4 1 .216743 .006037 .522596
5 1 .008671 .592803 .514550
6 1 .512145 .448082 .985537
7 1 .500448 .469372 .010146
ITEM: TIMESTEP
100
ITEM: NUMBER OF ATOMS
7
ITEM: BOX BOUNDS ss ss ss
-2.9559 3.3136
-2.8881 3.2257
-1.9536 2.0610
ITEM: ATOMS id type xs ys zs
1 1 .484185 .992678 .524272
2 1 .994279 .643544 .511214
3 1 .821956 .046695 .449405
4 1 .215729 .008425 .525402
5 1 .008109 .594701 .514625
6 1 .513320 .451093 .985145
7 1 .500930 .470188 .008924
ITEM: TIMESTEP
150
ITEM: NUMBER OF ATOMS
7
ITEM: BOX BOUNDS ss ss ss
-2.9559 3.3243
-2.8872 3.2257
-1.9553 2.0610
ITEM: ATOMS id type xs ys zs
1 1 .482206 .991474 .519626
2 1 .994705 .647149 .508981
3 1 .818979 .047398 .441604
4 1 .219287 .007505 .522718
5 1 .008760 .596367 .510416
6 1 .512727 .451484 .980597
7 1 .496139 .473308 .006690
ITEM: TIMESTEP
200
ITEM: NUMBER OF ATOMS
7
ITEM: BOX BOUNDS ss ss ss
-2.9504 3.3161
-2.8836 3.2282
-1.9555 2.0539
ITEM: ATOMS id type xs ys zs
1 1 .481630 .990371 .526102
2 1 .991440 .644590 .515501
3 1 .824591 .045780 .453804
4 1 .213762 .009621 .528876
5 1 .005668 .594992 .519961
6 1 .513189 .447473 .990196
7 1 .496585 .469472 .014044
ITEM: TIMESTEP
250
ITEM: NUMBER OF ATOMS
7
ITEM: BOX BOUNDS ss ss ss
-2.9618 3.3244
-2.8858 3.2282
-1.9610 2.0539
ITEM: ATOMS id type xs ys zs
1 1 .481407 .989044 .527361
2 1 .992118 .645225 .519799
3 1 .821282 .045838 .453567
4 1 .216304 .010872 .531469
5 1 .006313 .593280 .525423
6 1 .514047 .446204 .989721
7 1 .496852 .470156 .012836
ITEM: TIMESTEP
300
ITEM: NUMBER OF ATOMS
7
ITEM: BOX BOUNDS ss ss ss
-2.9639 3.3229
-2.8813 3.2282
-1.9599 2.0539
ITEM: ATOMS id type xs ys zs
1 1 .480762 .990488 .525357
2 1 .993152 .646511 .519118
3 1 .820986 .046469 .450981
4 1 .218603 .009058 .530358
5 1 .005794 .590689 .524791
6 1 .512874 .446759 .989634
7 1 .496475 .471564 .011539
ITEM: TIMESTEP
350
ITEM: NUMBER OF ATOMS
7
ITEM: BOX BOUNDS ss ss ss
-2.9679 3.3209
-2.8762 3.2300
-1.9569 2.0566
ITEM: ATOMS id type xs ys zs
1 1 .481374 .989286 .522656
2 1 .992812 .642322 .516084
3 1 .821559 .041799 .445444
4 1 .215843 .011188 .522273
5 1 .007726 .595725 .514185
6 1 .514014 .452226 .984644
7 1 .501663 .470684 .015280
ITEM: TIMESTEP
400
ITEM: NUMBER OF ATOMS
7
ITEM: BOX BOUNDS ss ss ss
-2.9739 3.3249
-2.8853 3.2242
-1.9602 2.0567
ITEM: ATOMS id type xs ys zs
1 1 .481635 .990094 .526101
2 1 .993551 .643488 .519111
3 1 .820745 .041688 .445561
4 1 .215052 .011567 .521245
5 1 .008556 .597501 .514463
6 1 .514455 .453749 .981769
7 1 .501384 .471763 .016007
ITEM: TIMESTEP
1
ITEM: NUMBER OF ATOMS
7
ITEM: BOX BOUNDS ss ss ss
-2.9574 3.3259
-2.8649 3.2252
-1.9544 2.0672
ITEM: ATOMS id type xs ys zs
1 1 .482745 .991539 .522131
2 1 .991105 .645603 .510511
3 1 .820864 .041066 .446429
4 1 .216455 .004859 .522659
5 1 .008547 .593726 .512940
6 1 .511819 .447865 .983119
7 1 .499141 .470251 .011542
ITEM: TIMESTEP
50
ITEM: NUMBER OF ATOMS
7
ITEM: BOX BOUNDS ss ss ss
-2.9574 3.3259
-2.8649 3.2252
-1.9544 2.0672
ITEM: ATOMS id type xs ys zs
1 1 .482509 .990431 .518132
2 1 .990351 .645081 .511361
3 1 .819105 .041173 .447204
4 1 .215810 .005076 .523320
5 1 .010020 .592695 .512391
6 1 .511374 .447058 .982715
7 1 .498478 .470729 .011371
ITEM: TIMESTEP
100
ITEM: NUMBER OF ATOMS
7
ITEM: BOX BOUNDS ss ss ss
-2.9574 3.3259
-2.8823 3.2252
-1.9544 2.0672
ITEM: ATOMS id type xs ys zs
1 1 .482590 .990533 .518314
2 1 .988000 .645711 .511242
3 1 .817033 .042633 .448648
4 1 .215490 .007812 .524529
5 1 .011244 .593749 .512315
6 1 .510775 .446710 .980372
7 1 .499498 .475143 .010492
ITEM: TIMESTEP
150
ITEM: NUMBER OF ATOMS
7
ITEM: BOX BOUNDS ss ss ss
-2.9574 3.3259
-2.8888 3.2252
-1.9629 2.0672
ITEM: ATOMS id type xs ys zs
1 1 .485986 .990465 .518063
2 1 .989293 .649046 .515502
3 1 .820488 .043830 .444776
4 1 .218039 .005985 .527683
5 1 .011093 .593740 .511150
6 1 .508835 .449525 .984924
7 1 .500815 .473083 .012859
ITEM: TIMESTEP
200
ITEM: NUMBER OF ATOMS
7
ITEM: BOX BOUNDS ss ss ss
-2.9574 3.3259
-2.9002 3.2252
-1.9611 2.0672
ITEM: ATOMS id type xs ys zs
1 1 .483862 .990017 .522565
2 1 .993147 .644767 .509322
3 1 .818642 .045036 .451332
4 1 .217804 .008494 .526603
5 1 .007800 .596116 .517561
6 1 .512984 .455396 .981231
7 1 .500885 .472836 .011989
ITEM: TIMESTEP
250
ITEM: NUMBER OF ATOMS
7
ITEM: BOX BOUNDS ss ss ss
-2.9603 3.3259
-2.8929 3.2285
-1.9593 2.0672
ITEM: ATOMS id type xs ys zs
1 1 .484281 .990434 .524191
2 1 .991236 .645243 .513750
3 1 .816234 .043301 .446257
4 1 .215491 .008452 .528197
5 1 .011132 .594883 .505592
6 1 .509335 .450098 .980437
7 1 .500681 .472258 .016645
ITEM: TIMESTEP
300
ITEM: NUMBER OF ATOMS
7
ITEM: BOX BOUNDS ss ss ss
-2.9629 3.3243
-2.8849 3.2271
-1.9588 2.0593
ITEM: ATOMS id type xs ys zs
1 1 .481319 .989588 .528513
2 1 .989908 .646309 .507642
3 1 .817639 .041844 .441385
4 1 .217318 .007891 .534389
5 1 .009499 .593825 .503854
6 1 .512564 .448742 .985875
7 1 .496212 .472893 .013576
ITEM: TIMESTEP
350
ITEM: NUMBER OF ATOMS
7
ITEM: BOX BOUNDS ss ss ss
-2.9610 3.3159
-2.8846 3.2269
-1.9730 2.0593
ITEM: ATOMS id type xs ys zs
1 1 .480194 .988762 .516967
2 1 .993415 .649584 .515043
3 1 .822815 .043699 .450322
4 1 .219963 .010670 .522946
5 1 .004873 .588694 .517556
6 1 .515827 .451627 .983118
7 1 .500199 .474516 .015302
ITEM: TIMESTEP
400
ITEM: NUMBER OF ATOMS
7
ITEM: BOX BOUNDS ss ss ss
-2.9592 3.3160
-2.8785 3.2261
-1.9690 2.0506
ITEM: ATOMS id type xs ys zs
1 1 .478905 .989622 .517294
2 1 .992418 .648685 .514562
3 1 .822539 .039936 .446326
4 1 .217961 .009954 .525848
5 1 .004203 .586518 .517507
6 1 .516661 .451188 .985257
7 1 .501713 .476033 .014887
ITEM: TIMESTEP
450
ITEM: NUMBER OF ATOMS
7
ITEM: BOX BOUNDS ss ss ss
-2.9666 3.3303
-2.8797 3.2255
-1.9783 2.0538
ITEM: ATOMS id type xs ys zs
1 1 .484084 .992504 .526513
2 1 .991615 .646802 .513234
3 1 .821168 .037398 .441761
4 1 .215034 .010461 .536864
5 1 .011242 .598982 .513893
6 1 .514052 .451594 .985796
7 1 .497918 .466069 .020562
ITEM: TIMESTEP
500
ITEM: NUMBER OF ATOMS
7
ITEM: BOX BOUNDS ss ss ss
-2.9705 3.3335
-2.8823 3.2241
-1.9626 2.0551
ITEM: ATOMS id type xs ys zs
1 1 .482915 .991669 .525670
2 1 .989062 .648254 .507145
3 1 .819580 .044468 .445353
4 1 .218807 .008393 .533737
5 1 .011846 .594537 .508309
6 1 .512879 .450342 .986088
7 1 .500228 .468661 .014635
ITEM: TIMESTEP
550
ITEM: NUMBER OF ATOMS
7
ITEM: BOX BOUNDS ss ss ss
-2.9845 3.3243
-2.8730 3.2277
-1.9665 2.0577
ITEM: ATOMS id type xs ys zs
1 1 .483193 .986944 .529455
2 1 .995366 .641374 .520116
3 1 .825247 .041648 .443264
4 1 .222267 .009456 .526908
5 1 .005606 .596201 .510335
6 1 .516678 .448329 .985759
7 1 .496000 .472072 .021562
ITEM: TIMESTEP
600
ITEM: NUMBER OF ATOMS
7
ITEM: BOX BOUNDS ss ss ss
-2.9771 3.3265
-2.8843 3.2322
-1.9632 2.0684
ITEM: ATOMS id type xs ys zs
1 1 .477316 .996162 .526951
2 1 .992193 .647015 .512522
3 1 .823809 .044182 .438569
4 1 .220151 .009118 .514874
5 1 .012377 .596754 .506717
6 1 .516584 .453355 .976432
7 1 .505022 .473809 .016292
ITEM: TIMESTEP
650
ITEM: NUMBER OF ATOMS
7
ITEM: BOX BOUNDS ss ss ss
-2.9785 3.3225
-2.8839 3.2305
-1.9695 2.0666
ITEM: ATOMS id type xs ys zs
1 1 .481388 .990047 .527551
2 1 .988952 .643391 .517263
3 1 .821787 .043261 .440388
4 1 .220878 .007090 .518719
5 1 .002929 .593517 .518490
6 1 .512307 .448417 .984245
7 1 .498665 .474188 .017359
ITEM: TIMESTEP
700
ITEM: NUMBER OF ATOMS
7
ITEM: BOX BOUNDS ss ss ss
-2.9829 3.3203
-2.8773 3.2381
-1.9567 2.0658
ITEM: ATOMS id type xs ys zs
1 1 .480842 .993873 .527584
2 1 .989821 .645666 .510010
3 1 .822288 .041913 .445175
4 1 .220686 .004658 .513667
5 1 .008906 .589058 .513292
6 1 .510805 .449869 .981186
7 1 .498770 .472773 .019071
ITEM: TIMESTEP
1
ITEM: NUMBER OF ATOMS
7
ITEM: BOX BOUNDS ss ss ss
-2.9794 3.3251
-2.8809 3.2354
-1.9419 2.0763
ITEM: ATOMS id type xs ys zs
1 1 .484644 .990042 .519561
2 1 .991140 .645270 .507571
3 1 .821523 .043505 .444012
4 1 .219181 .007363 .520187
5 1 .011863 .593541 .510566
6 1 .513430 .448738 .980502
7 1 .500706 .471200 .008711
ITEM: TIMESTEP
50
ITEM: NUMBER OF ATOMS
7
ITEM: BOX BOUNDS ss ss ss
-2.9794 3.3251
-2.8809 3.2354
-1.9425 2.0763
ITEM: ATOMS id type xs ys zs
1 1 .484899 .990320 .519603
2 1 .990846 .645113 .507638
3 1 .822333 .042676 .443761
4 1 .218856 .007819 .522724
5 1 .010412 .594023 .508823
6 1 .515672 .449482 .980567
7 1 .502866 .473008 .013383
ITEM: TIMESTEP
100
ITEM: NUMBER OF ATOMS
7
ITEM: BOX BOUNDS ss ss ss
-2.9794 3.3251
-2.8809 3.2354
-1.9490 2.0763
ITEM: ATOMS id type xs ys zs
1 1 .483551 .991312 .521961
2 1 .993003 .645667 .513194
3 1 .820424 .043356 .441056
4 1 .219366 .008177 .519126
5 1 .013208 .592435 .509715
6 1 .512874 .447981 .986930
7 1 .500543 .473847 .011351
ITEM: TIMESTEP
150
ITEM: NUMBER OF ATOMS
7
ITEM: BOX BOUNDS ss ss ss
-2.9794 3.3251
-2.8849 3.2292
-1.9629 2.0763
ITEM: ATOMS id type xs ys zs
1 1 .483167 .993167 .523742
2 1 .993378 .646965 .517109
3 1 .818079 .046742 .440491
4 1 .216967 .007599 .522949
5 1 .011423 .593531 .512505
6 1 .514413 .446123 .990724
7 1 .499013 .474526 .014918
ITEM: TIMESTEP
200
ITEM: NUMBER OF ATOMS
7
ITEM: BOX BOUNDS ss ss ss
-2.9794 3.3251
-2.8938 3.2291
-1.9631 2.0763
ITEM: ATOMS id type xs ys zs
1 1 .486936 .991383 .525641
2 1 .996053 .645991 .517054
3 1 .821901 .042954 .443491
4 1 .222699 .010097 .521699
5 1 .012814 .598219 .512139
6 1 .514737 .451449 .972891
7 1 .499362 .475027 .016645
ITEM: TIMESTEP
250
ITEM: NUMBER OF ATOMS
7
ITEM: BOX BOUNDS ss ss ss
-2.9794 3.3251
-2.8969 3.2271
-1.9684 2.0763
ITEM: ATOMS id type xs ys zs
1 1 .479998 .988289 .530236
2 1 .988040 .645262 .508158
3 1 .819633 .047165 .451281
4 1 .224018 .010925 .518990
5 1 .005392 .590262 .506938
6 1 .514591 .453674 .975293
7 1 .497137 .469851 .016122
ITEM: TIMESTEP
300
ITEM: NUMBER OF ATOMS
7
ITEM: BOX BOUNDS ss ss ss
-2.9794 3.3251
-2.8845 3.2231
-1.9634 2.0576
ITEM: ATOMS id type xs ys zs
1 1 .483626 .993610 .523908
2 1 .991189 .647346 .516765
3 1 .824966 .044691 .442955
4 1 .220831 .010687 .530427
5 1 .009053 .594318 .513524
6 1 .516450 .451682 .986548
7 1 .504644 .474725 .014733
ITEM: TIMESTEP
350
ITEM: NUMBER OF ATOMS
7
ITEM: BOX BOUNDS ss ss ss
-2.9794 3.3251
-2.8769 3.2206
-1.9598 2.0576
ITEM: ATOMS id type xs ys zs
1 1 .477623 .992097 .533029
2 1 .990334 .644705 .511078
3 1 .822974 .042020 .448759
4 1 .224306 .007157 .525607
5 1 .008620 .593770 .505763
6 1 .514703 .453037 .981816
7 1 .498415 .470257 .011452
ITEM: TIMESTEP
400
ITEM: NUMBER OF ATOMS
7
ITEM: BOX BOUNDS ss ss ss
-2.9794 3.3251
-2.8769 3.2142
-1.9610 2.0576
ITEM: ATOMS id type xs ys zs
1 1 .479613 .991151 .533638
2 1 .992822 .646746 .515705
3 1 .823061 .042448 .448862
4 1 .223428 .009336 .522168
5 1 .007002 .593463 .501123
6 1 .514448 .451831 .982507
7 1 .499207 .473742 .013463
ITEM: TIMESTEP
1
ITEM: NUMBER OF ATOMS
7
ITEM: BOX BOUNDS ss ss ss
-2.9794 3.3251
-2.8769 3.2141
-1.9602 2.0576
ITEM: ATOMS id type xs ys zs
1 1 .484781 .993430 .523750
2 1 .991298 .647237 .512184
3 1 .821501 .043222 .448973
4 1 .219294 .006652 .524790
5 1 .011474 .595530 .515269
6 1 .513422 .450363 .985286
7 1 .500787 .472462 .013242
ITEM: TIMESTEP
50
ITEM: NUMBER OF ATOMS
7
ITEM: BOX BOUNDS ss ss ss
-2.9794 3.3251
-2.8769 3.2141
-1.9602 2.0576
ITEM: ATOMS id type xs ys zs
1 1 .484683 .993595 .522197
2 1 .990174 .648191 .511037
3 1 .821195 .041578 .450253
4 1 .218583 .006612 .524351
5 1 .011248 .594075 .517605
6 1 .515804 .451180 .983539
7 1 .501015 .473332 .014118
ITEM: TIMESTEP
100
ITEM: NUMBER OF ATOMS
7
ITEM: BOX BOUNDS ss ss ss
-2.9794 3.3251
-2.8873 3.2152
-1.9602 2.0576
ITEM: ATOMS id type xs ys zs
1 1 .486446 .996001 .522294
2 1 .989880 .650617 .511778
3 1 .819829 .042231 .450147
4 1 .218028 .007367 .521200
5 1 .012050 .594463 .516353
6 1 .516553 .451862 .986033
7 1 .498656 .475053 .014880
ITEM: TIMESTEP
150
ITEM: NUMBER OF ATOMS
7
ITEM: BOX BOUNDS ss ss ss
-2.9794 3.3251
-2.8881 3.2256
-1.9682 2.0576
ITEM: ATOMS id type xs ys zs
1 1 .484423 .989669 .527169
2 1 .991803 .649250 .515669
3 1 .817810 .046904 .447419
4 1 .217665 .007999 .530869
5 1 .011472 .596926 .510411
6 1 .511440 .450983 .987592
7 1 .504439 .474849 .015960
ITEM: TIMESTEP
200
ITEM: NUMBER OF ATOMS
7
ITEM: BOX BOUNDS ss ss ss
-2.9794 3.3251
-2.8947 3.2205
-1.9674 2.0576
ITEM: ATOMS id type xs ys zs
1 1 .485669 .990609 .526489
2 1 .990708 .648424 .511134
3 1 .818684 .048171 .447541
4 1 .217165 .007675 .531579
5 1 .013366 .596769 .507051
6 1 .511677 .450332 .984651
7 1 .503533 .476024 .014163
ITEM: TIMESTEP
250
ITEM: NUMBER OF ATOMS
7
ITEM: BOX BOUNDS ss ss ss
-2.9794 3.3251
-2.8920 3.2317
-1.9694 2.0675
ITEM: ATOMS id type xs ys zs
1 1 .485077 .993173 .520409
2 1 .991291 .645086 .514466
3 1 .823866 .039385 .440683
4 1 .220400 .012165 .531500
5 1 .014070 .594126 .517814
6 1 .519063 .449720 .984474
7 1 .500505 .473169 .019729
ITEM: TIMESTEP
300
ITEM: NUMBER OF ATOMS
7
ITEM: BOX BOUNDS ss ss ss
-2.9794 3.3251
-2.8923 3.2233
-1.9628 2.0700
ITEM: ATOMS id type xs ys zs
1 1 .482705 .991891 .524831
2 1 .991891 .646903 .502781
3 1 .819634 .042031 .450058
4 1 .216989 .007310 .523720
5 1 .009229 .594140 .512356
6 1 .512210 .447894 .988052
7 1 .505434 .473158 .020592
ITEM: TIMESTEP
350
ITEM: NUMBER OF ATOMS
7
ITEM: BOX BOUNDS ss ss ss
-2.9794 3.3251
-2.8812 3.2286
-1.9619 2.0645
ITEM: ATOMS id type xs ys zs
1 1 .485954 .993886 .520474
2 1 .993573 .645676 .517267
3 1 .819606 .041566 .446810
4 1 .223017 .007741 .531415
5 1 .008964 .589866 .515127
6 1 .516451 .450163 .985226
7 1 .501845 .473950 .014783
ITEM: TIMESTEP
400
ITEM: NUMBER OF ATOMS
7
ITEM: BOX BOUNDS ss ss ss
-2.9794 3.3251
-2.8897 3.2274
-1.9675 2.0707
ITEM: ATOMS id type xs ys zs
1 1 .485633 .994539 .514068
2 1 .989019 .650732 .515750
3 1 .822796 .041691 .447067
4 1 .221692 .014950 .530415
5 1 .010766 .596601 .506392
6 1 .513934 .455146 .984265
7 1 .502128 .471975 .012722
ITEM: TIMESTEP
450
ITEM: NUMBER OF ATOMS
7
ITEM: BOX BOUNDS ss ss ss
-2.9794 3.3251
-2.8961 3.2348
-1.9691 2.0599
ITEM: ATOMS id type xs ys zs
1 1 .486497 .989542 .528190
2 1 .988661 .645598 .515490
3 1 .825500 .047015 .445696
4 1 .223372 .010320 .523049
5 1 .012396 .595863 .502840
6 1 .513547 .450370 .984089
7 1 .497459 .472630 .013057
ITEM: TIMESTEP
500
ITEM: NUMBER OF ATOMS
7
ITEM: BOX BOUNDS ss ss ss
-2.9794 3.3224
-2.8795 3.2321
-1.9571 2.0576
ITEM: ATOMS id type xs ys zs
1 1 .484169 .992162 .519721