ITEM: TIMESTEP
1
ITEM: NUMBER OF ATOMS
7
ITEM: BOX BOUNDS ss ss ss
-2.9088 3.2735
-2.8395 3.1790
-1.9130 2.0021
ITEM: ATOMS id type xs ys zs
1 1 .482727 .999360 .525744
2 1 .999358 .648917 .513451
3 1 .826271 .037402 .448574
4 1 .212087 .000680 .526310
5 1 .000553 .596336 .516369
6 1 .512116 .449203 .999072
7 1 .499359 .471860 .001181
ITEM: TIMESTEP
50
ITEM: NUMBER OF ATOMS
7
ITEM: BOX BOUNDS ss ss ss
-2.9309 3.3005
-2.8615 3.2037
-1.9351 2.0240
ITEM: ATOMS id type xs ys zs
1 1 .481910 .994592 .525253
2 1 .994731 .646759 .510350
3 1 .822501 .039775 .450250
4 1 .213625 .005547 .524203
5 1 .003113 .595638 .518591
6 1 .511312 .450264 .995154
7 1 .498561 .470702 .007973
ITEM: TIMESTEP
100
ITEM: NUMBER OF ATOMS
7
ITEM: BOX BOUNDS ss ss ss
-2.9408 3.3061
-2.8764 3.2124
-1.9417 2.0396
ITEM: ATOMS id type xs ys zs
1 1 .482467 .996568 .523514
2 1 .995641 .645628 .511590
3 1 .823903 .044776 .450208
4 1 .216348 .008331 .517477
5 1 .005351 .598445 .518037
6 1 .512060 .450741 .991964
7 1 .498938 .472788 .010814
ITEM: TIMESTEP
150
ITEM: NUMBER OF ATOMS
7
ITEM: BOX BOUNDS ss ss ss
-2.9503 3.3146
-2.8748 3.2181
-1.9537 2.0451
ITEM: ATOMS id type xs ys zs
1 1 .481598 .992390 .526306
2 1 .992517 .647398 .508650
3 1 .823446 .042142 .446399
4 1 .216731 .009879 .518969
5 1 .006171 .597795 .520069
6 1 .512147 .449872 .992243
7 1 .498677 .470711 .013148
ITEM: TIMESTEP
200
ITEM: NUMBER OF ATOMS
7
ITEM: BOX BOUNDS ss ss ss
-2.9502 3.3179
-2.8779 3.2150
-1.9490 2.0460
ITEM: ATOMS id type xs ys zs
1 1 .483287 .990482 .523240
2 1 .990924 .645587 .511828
3 1 .822397 .042847 .453980
4 1 .217674 .010323 .517727
5 1 .003526 .598589 .514541
6 1 .511399 .450835 .988051
7 1 .498504 .469594 .010545
ITEM: TIMESTEP
250
ITEM: NUMBER OF ATOMS
7
ITEM: BOX BOUNDS ss ss ss
-2.9607 3.3176
-2.8759 3.2139
-1.9634 2.0470
ITEM: ATOMS id type xs ys zs
1 1 .481129 .992793 .527848
2 1 .989397 .646945 .507314
3 1 .821657 .042842 .451970
4 1 .217821 .010260 .517457
5 1 .006400 .599011 .519491
6 1 .511863 .450298 .988814
7 1 .498070 .471975 .016086
ITEM: TIMESTEP
300
ITEM: NUMBER OF ATOMS
7
ITEM: BOX BOUNDS ss ss ss
-2.9681 3.3142
-2.8821 3.2156
-1.9468 2.0556
ITEM: ATOMS id type xs ys zs
1 1 .479952 .992783 .527079
2 1 .988256 .647937 .498846
3 1 .821147 .044385 .444960
4 1 .220056 .011940 .513774
5 1 .006797 .602108 .520712
6 1 .512793 .450385 .991371
7 1 .497058 .473020 .010756
ITEM: TIMESTEP
350
ITEM: NUMBER OF ATOMS
7
ITEM: BOX BOUNDS ss ss ss
-2.9729 3.3134
-2.8734 3.2202
-1.9520 2.0696
ITEM: ATOMS id type xs ys zs
1 1 .481493 .991841 .526547
2 1 .987545 .647026 .498353
3 1 .821440 .041678 .445344
4 1 .220012 .011168 .510782
5 1 .007636 .598975 .519146
6 1 .512321 .448499 .987635
7 1 .496928 .471685 .011789
ITEM: TIMESTEP
400
ITEM: NUMBER OF ATOMS
7
ITEM: BOX BOUNDS ss ss ss
-2.9685 3.3087
-2.8752 3.2179
-1.9579 2.0740
ITEM: ATOMS id type xs ys zs
1 1 .483423 .989616 .521234
2 1 .992037 .643273 .501057
3 1 .828417 .042945 .451279
4 1 .222896 .008140 .514008
5 1 .008016 .595176 .516180
6 1 .515554 .449981 .982571
7 1 .499626 .466954 .014469
ITEM: TIMESTEP
1
ITEM: NUMBER OF ATOMS
7
ITEM: BOX BOUNDS ss ss ss
-2.9579 3.3065
-2.8585 3.2060
-1.9461 2.0530
ITEM: ATOMS id type xs ys zs
1 1 .484237 .994904 .522975
2 1 .994112 .647125 .510926
3 1 .823270 .040260 .447424
4 1 .217134 .003830 .523527
5 1 .008372 .594958 .513792
6 1 .513244 .448928 .986369
7 1 .500656 .471409 .009431
ITEM: TIMESTEP
50
ITEM: NUMBER OF ATOMS
7
ITEM: BOX BOUNDS ss ss ss
-2.9579 3.3065
-2.8628 3.2060
-1.9461 2.0530
ITEM: ATOMS id type xs ys zs
1 1 .483267 .994059 .522821
2 1 .993932 .647201 .508208
3 1 .824095 .040628 .446591
4 1 .216882 .004840 .520685
5 1 .007030 .595339 .514677
6 1 .513267 .448854 .986557
7 1 .500601 .470594 .010631
ITEM: TIMESTEP
100
ITEM: NUMBER OF ATOMS
7
ITEM: BOX BOUNDS ss ss ss
-2.9579 3.3065
-2.8728 3.2192
-1.9486 2.0530
ITEM: ATOMS id type xs ys zs
1 1 .483470 .991841 .526980
2 1 .993566 .643804 .505907
3 1 .823357 .039739 .448237
4 1 .217811 .006751 .523020
5 1 .006391 .596021 .516807
6 1 .514736 .448284 .985870
7 1 .498416 .471458 .011653
ITEM: TIMESTEP
150
ITEM: NUMBER OF ATOMS
7
ITEM: BOX BOUNDS ss ss ss
-2.9568 3.3125
-2.8760 3.2182
-1.9585 2.0530
ITEM: ATOMS id type xs ys zs
1 1 .482925 .992678 .527840
2 1 .992865 .647336 .508732
3 1 .823179 .041570 .448695
4 1 .216824 .005576 .516091
5 1 .007064 .597034 .517284
6 1 .515243 .447801 .981830
7 1 .496797 .470533 .015698
ITEM: TIMESTEP
200
ITEM: NUMBER OF ATOMS
7
ITEM: BOX BOUNDS ss ss ss
-2.9601 3.3115
-2.8804 3.2169
-1.9559 2.0526
ITEM: ATOMS id type xs ys zs
1 1 .485724 .990756 .531472
2 1 .991157 .644979 .512514
3 1 .823744 .043382 .445529
4 1 .217843 .009429 .514167
5 1 .007087 .595503 .518668
6 1 .513635 .448864 .987408
7 1 .498157 .470813 .015885
ITEM: TIMESTEP
250
ITEM: NUMBER OF ATOMS
7
ITEM: BOX BOUNDS ss ss ss
-2.9562 3.3129
-2.8731 3.2295
-1.9500 2.0565
ITEM: ATOMS id type xs ys zs
1 1 .483830 .992012 .525239
2 1 .993456 .644821 .506214
3 1 .824956 .041723 .452444
4 1 .218948 .008324 .517274
5 1 .007906 .595979 .513281
6 1 .514713 .450396 .987878
7 1 .500738 .469085 .014451
ITEM: TIMESTEP
300
ITEM: NUMBER OF ATOMS
7
ITEM: BOX BOUNDS ss ss ss
-2.9623 3.3195
-2.8817 3.2274
-1.9530 2.0536
ITEM: ATOMS id type xs ys zs
1 1 .484149 .991285 .528565
2 1 .993519 .645326 .505748
3 1 .825925 .043148 .453897
4 1 .220383 .010782 .516266
5 1 .009076 .595705 .513032
6 1 .515997 .450310 .986024
7 1 .501531 .469530 .013872
ITEM: TIMESTEP
350
ITEM: NUMBER OF ATOMS
7
ITEM: BOX BOUNDS ss ss ss
-2.9595 3.3216
-2.8817 3.2211
-1.9500 2.0509
ITEM: ATOMS id type xs ys zs
1 1 .481916 .989468 .528222
2 1 .989020 .642694 .502177
3 1 .825205 .040928 .450966
4 1 .219133 .009266 .513808
5 1 .003480 .595351 .512466
6 1 .510995 .448559 .987001
7 1 .497799 .469121 .016597
ITEM: TIMESTEP
400
ITEM: NUMBER OF ATOMS
7
ITEM: BOX BOUNDS ss ss ss
-2.9675 3.3101
-2.8730 3.2306
-1.9477 2.0558
ITEM: ATOMS id type xs ys zs
1 1 .485272 .991348 .526055
2 1 .993745 .646833 .504875
3 1 .826842 .041909 .458990
4 1 .220303 .013249 .519771
5 1 .011496 .600304 .513774
6 1 .516719 .450614 .991368
7 1 .501765 .467108 .015997
ITEM: TIMESTEP
1
ITEM: NUMBER OF ATOMS
7
ITEM: BOX BOUNDS ss ss ss
-2.9703 3.3079
-2.8669 3.2146
-1.9368 2.0492
ITEM: ATOMS id type xs ys zs
1 1 .485154 .993515 .522359
2 1 .993895 .646693 .510282
3 1 .823450 .041524 .446582
4 1 .218647 .005193 .522901
5 1 .010323 .594667 .513153
6 1 .514087 .449056 .987287
7 1 .501530 .471473 .007140
ITEM: TIMESTEP
50
ITEM: NUMBER OF ATOMS
7
ITEM: BOX BOUNDS ss ss ss
-2.9703 3.3079
-2.8669 3.2146
-1.9384 2.0492
ITEM: ATOMS id type xs ys zs
1 1 .486346 .992525 .523390
2 1 .993928 .645595 .508167
3 1 .823655 .040708 .445971
4 1 .217786 .006409 .521170
5 1 .008764 .596519 .515473
6 1 .513824 .448881 .986300
7 1 .500886 .470455 .009004
ITEM: TIMESTEP
100
ITEM: NUMBER OF ATOMS
7
ITEM: BOX BOUNDS ss ss ss
-2.9703 3.3079
-2.8741 3.2153
-1.9495 2.0492
ITEM: ATOMS id type xs ys zs
1 1 .485871 .994096 .524622
2 1 .993155 .647239 .508393
3 1 .824726 .041830 .450156
4 1 .219934 .009153 .520127
5 1 .008897 .599499 .515439
6 1 .513758 .448119 .987033
7 1 .501382 .470814 .011192
ITEM: TIMESTEP
150
ITEM: NUMBER OF ATOMS
7
ITEM: BOX BOUNDS ss ss ss
-2.9703 3.3113
-2.8761 3.2190
-1.9526 2.0492
ITEM: ATOMS id type xs ys zs
1 1 .485648 .992714 .525328
2 1 .991980 .647229 .508676
3 1 .823900 .040993 .448573
4 1 .219360 .011077 .519589
5 1 .009524 .599296 .515372
6 1 .512390 .447957 .987467
7 1 .500664 .469637 .012747
ITEM: TIMESTEP
200
ITEM: NUMBER OF ATOMS
7
ITEM: BOX BOUNDS ss ss ss
-2.9703 3.3116
-2.8908 3.2268
-1.9508 2.0492
ITEM: ATOMS id type xs ys zs
1 1 .485039 .991080 .524939
2 1 .992107 .646901 .504330
3 1 .823207 .043131 .448779
4 1 .220455 .013900 .520112
5 1 .010016 .600321 .513562
6 1 .512950 .450410 .987477
7 1 .500219 .470120 .009523
ITEM: TIMESTEP
250
ITEM: NUMBER OF ATOMS
7
ITEM: BOX BOUNDS ss ss ss
-2.9703 3.3235
-2.8816 3.2374
-1.9528 2.0496
ITEM: ATOMS id type xs ys zs
1 1 .484397 .989092 .526102
2 1 .989253 .645845 .502380
3 1 .822481 .041184 .450271
4 1 .219850 .013286 .518416
5 1 .009532 .598537 .513205
6 1 .511793 .450015 .987303
7 1 .498982 .468263 .008151
ITEM: TIMESTEP
300
ITEM: NUMBER OF ATOMS
7
ITEM: BOX BOUNDS ss ss ss
-2.9703 3.3268
-2.8733 3.2266
-1.9624 2.0465
ITEM: ATOMS id type xs ys zs
1 1 .482332 .990616 .526576
2 1 .989097 .643660 .503794
3 1 .825756 .043531 .448374
4 1 .218140 .011806 .516356
5 1 .009916 .597976 .515816
6 1 .510687 .449495 .987544
7 1 .498309 .467061 .016005
ITEM: TIMESTEP
350
ITEM: NUMBER OF ATOMS
7
ITEM: BOX BOUNDS ss ss ss
-2.9703 3.3270
-2.8760 3.2303
-1.9499 2.0455
ITEM: ATOMS id type xs ys zs
1 1 .482382 .990364 .523723
2 1 .989581 .648814 .513191
3 1 .822770 .045301 .457413
4 1 .218353 .010753 .519188
5 1 .006905 .595032 .522204
6 1 .510712 .450122 .989532
7 1 .498018 .468769 .016452
ITEM: TIMESTEP
400
ITEM: NUMBER OF ATOMS
7
ITEM: BOX BOUNDS ss ss ss
-2.9703 3.3184
-2.8761 3.2300
-1.9547 2.0553
ITEM: ATOMS id type xs ys zs
1 1 .484024 .989948 .521531
2 1 .987795 .644575 .503554
3 1 .827939 .043195 .446102
4 1 .220227 .009754 .509928
5 1 .011624 .594580 .515259
6 1 .515181 .445973 .987421
7 1 .498546 .467080 .012918
ITEM: TIMESTEP
1
ITEM: NUMBER OF ATOMS
7
ITEM: BOX BOUNDS ss ss ss
-2.9703 3.3193
-2.8579 3.2270
-1.9598 2.0407
ITEM: ATOMS id type xs ys zs
1 1 .484276 .991466 .526228
2 1 .992106 .644858 .514184
3 1 .821962 .040015 .450702
4 1 .218246 .003713 .526769
5 1 .010315 .592849 .517035
6 1 .513158 .447316 .989465
7 1 .500624 .469725 .012861
ITEM: TIMESTEP
50
ITEM: NUMBER OF ATOMS
7
ITEM: BOX BOUNDS ss ss ss
-2.9703 3.3193
-2.8640 3.2270
-1.9598 2.0407
ITEM: ATOMS id type xs ys zs
1 1 .482803 .991473 .526129
2 1 .991477 .645806 .512539
3 1 .821489 .042649 .452504
4 1 .218391 .006560 .524454
5 1 .009961 .594151 .520009
6 1 .512893 .446763 .990663
7 1 .499069 .471514 .014926
ITEM: TIMESTEP
100
ITEM: NUMBER OF ATOMS
7
ITEM: BOX BOUNDS ss ss ss
-2.9703 3.3193
-2.8762 3.2270
-1.9598 2.0397
ITEM: ATOMS id type xs ys zs
1 1 .483138 .991790 .527173
2 1 .990570 .645992 .512488
3 1 .820826 .042441 .453242
4 1 .216276 .008611 .521014
5 1 .011399 .594954 .520089
6 1 .513311 .446216 .988507
7 1 .499575 .472124 .014162
ITEM: TIMESTEP
150
ITEM: NUMBER OF ATOMS
7
ITEM: BOX BOUNDS ss ss ss
-2.9703 3.3221
-2.8791 3.2270
-1.9598 2.0420
ITEM: ATOMS id type xs ys zs
1 1 .486748 .990709 .529669
2 1 .993971 .643196 .514598
3 1 .822645 .042173 .452882
4 1 .221191 .008417 .522351
5 1 .009804 .593157 .518369
6 1 .513427 .450046 .992918
7 1 .500095 .469770 .015215
ITEM: TIMESTEP
200
ITEM: NUMBER OF ATOMS
7
ITEM: BOX BOUNDS ss ss ss
-2.9703 3.3193
-2.8802 3.2270
-1.9598 2.0487
ITEM: ATOMS id type xs ys zs
1 1 .488580 .990365 .529326
2 1 .994696 .642815 .512367
3 1 .824771 .042158 .452940
4 1 .221546 .008782 .519368
5 1 .009705 .593282 .520052
6 1 .514625 .450095 .989857
7 1 .501391 .469676 .012993
ITEM: TIMESTEP
250
ITEM: NUMBER OF ATOMS
7
ITEM: BOX BOUNDS ss ss ss
-2.9703 3.3193
-2.8787 3.2266
-1.9598 2.0493
ITEM: ATOMS id type xs ys zs
1 1 .486208 .993007 .524174
2 1 .991356 .646871 .509047
3 1 .823720 .041213 .454677
4 1 .219599 .010017 .522179
5 1 .011663 .597254 .520458
6 1 .514826 .449044 .986071
7 1 .500187 .469210 .016312
ITEM: TIMESTEP
300
ITEM: NUMBER OF ATOMS
7
ITEM: BOX BOUNDS ss ss ss
-2.9703 3.3210
-2.8810 3.2241
-1.9502 2.0533
ITEM: ATOMS id type xs ys zs
1 1 .486651 .990590 .527408
2 1 .991775 .642138 .510045
3 1 .822157 .040610 .448005
4 1 .221467 .009694 .512016
5 1 .008889 .595036 .517511
6 1 .515250 .449776 .987402
7 1 .499862 .470774 .011321
ITEM: TIMESTEP
350
ITEM: NUMBER OF ATOMS
7
ITEM: BOX BOUNDS ss ss ss
-2.9703 3.3354
-2.8817 3.2281
-1.9507 2.0654
ITEM: ATOMS id type xs ys zs
1 1 .485728 .989896 .524998
2 1 .988386 .641330 .509453
3 1 .821388 .039564 .449467
4 1 .221493 .009467 .507516
5 1 .008565 .594730 .517120
6 1 .513083 .450224 .983191
7 1 .498395 .469578 .013523
ITEM: TIMESTEP
400
ITEM: NUMBER OF ATOMS
7
ITEM: BOX BOUNDS ss ss ss
-2.9703 3.3313
-2.8759 3.2219
-1.9503 2.0653
ITEM: ATOMS id type xs ys zs
1 1 .485332 .990014 .525520
2 1 .988739 .642362 .511858
3 1 .821854 .039566 .449100
4 1 .222046 .008805 .505254
5 1 .008155 .595552 .514651
6 1 .511156 .448547 .983929
7 1 .499111 .470518 .013708
ITEM: TIMESTEP
1
ITEM: NUMBER OF ATOMS
7
ITEM: BOX BOUNDS ss ss ss
-2.9619 3.3224
-2.8782 3.2150
-1.9417 2.0690
ITEM: ATOMS id type xs ys zs
1 1 .483346 .993450 .520373
2 1 .991601 .647312 .508356
3 1 .821319 .043291 .445030
4 1 .217097 .007032 .520909
5 1 .008994 .595372 .511231
6 1 .512257 .450035 .982426
7 1 .499717 .472417 .008303
ITEM: TIMESTEP
50
ITEM: NUMBER OF ATOMS
7
ITEM: BOX BOUNDS ss ss ss
-2.9619 3.3224
-2.8782 3.2150
-1.9417 2.0690
ITEM: ATOMS id type xs ys zs
1 1 .483671 .991865 .520105
2 1 .992197 .647875 .507305
3 1 .821297 .045496 .444627
4 1 .218160 .007524 .516675
5 1 .007729 .596985 .513635
6 1 .511537 .449712 .984007
7 1 .499635 .472778 .009155
ITEM: TIMESTEP
100
ITEM: NUMBER OF ATOMS
7
ITEM: BOX BOUNDS ss ss ss
-2.9619 3.3224
-2.8791 3.2217
-1.9491 2.0690
ITEM: ATOMS id type xs ys zs
1 1 .484358 .989225 .521835
2 1 .993685 .646171 .508634
3 1 .821768 .045662 .447073
4 1 .218665 .007658 .515024
5 1 .006738 .598574 .513486
6 1 .509334 .449049 .986448
7 1 .498866 .471540 .011566
ITEM: TIMESTEP
150
ITEM: NUMBER OF ATOMS
7
ITEM: BOX BOUNDS ss ss ss
-2.9493 3.3166
-2.8867 3.2215
-1.9613 2.0690
ITEM: ATOMS id type xs ys zs
1 1 .481873 .990407 .521297
2 1 .993355 .646845 .505005
3 1 .821289 .048265 .450456
4 1 .215277 .011017 .519640
5 1 .006069 .593453 .515629
6 1 .512577 .450541 .987661
7 1 .498414 .471466 .014405
ITEM: TIMESTEP
200
ITEM: NUMBER OF ATOMS
7
ITEM: BOX BOUNDS ss ss ss
-2.9550 3.3180
-2.8859 3.2214
-1.9596 2.0690
ITEM: ATOMS id type xs ys zs
1 1 .481007 .994320 .522387
2 1 .989611 .647507 .512684
3 1 .820742 .043854 .446363
4 1 .218365 .010749 .517632
5 1 .007562 .599165 .519831
6 1 .510241 .448511 .987674
7 1 .497292 .473297 .016262
ITEM: TIMESTEP
250
ITEM: NUMBER OF ATOMS
7
ITEM: BOX BOUNDS ss ss ss
-2.9557 3.3171
-2.8872 3.2315
-1.9569 2.0668
ITEM: ATOMS id type xs ys zs
1 1 .479727 .992736 .523303
2 1 .989543 .646307 .511950
3 1 .819375 .044206 .448518
4 1 .216631 .011418 .518218
5 1 .007522 .598454 .519866
6 1 .510561 .447082 .987235
7 1 .497522 .471054 .015817
ITEM: TIMESTEP
300
ITEM: NUMBER OF ATOMS
7
ITEM: BOX BOUNDS ss ss ss
-2.9614 3.3245
-2.8826 3.2348
-1.9579 2.0643
ITEM: ATOMS id type xs ys zs
1 1 .482880 .991948 .518439
2 1 .990820 .645604 .514683
3 1 .823153 .042634 .449849
4 1 .217629 .010223 .516529
5 1 .007135 .596942 .514593
6 1 .512006 .451224 .982652
7 1 .498569 .470745 .014264
ITEM: TIMESTEP
350
ITEM: NUMBER OF ATOMS
7
ITEM: BOX BOUNDS ss ss ss
-2.9655 3.3219
-2.8822 3.2345
-1.9569 2.0643
ITEM: ATOMS id type xs ys zs
1 1 .480638 .990321 .522839
2 1 .989307 .646009 .513939
3 1 .822299 .043938 .448420
4 1 .219039 .010837 .515386
5 1 .008357 .596506 .515277
6 1 .510147 .449474 .986439
7 1 .499038 .470514 .016127
ITEM: TIMESTEP
400
ITEM: NUMBER OF ATOMS
7
ITEM: BOX BOUNDS ss ss ss
-2.9665 3.3178
-2.8755 3.2305
-1.9497 2.0554
ITEM: ATOMS id type xs ys zs
1 1 .480493 .988590 .521593
2 1 .991831 .645231 .509336
3 1 .824927 .042612 .447676
4 1 .220406 .010827 .517437
5 1 .005317 .593853 .513756
6 1 .512251 .450338 .987112
7 1 .501306 .471309 .013494
ITEM: TIMESTEP
1
ITEM: NUMBER OF ATOMS
7
ITEM: BOX BOUNDS ss ss ss
-2.9559 3.3136
-2.8730 3.2257
-1.9469 2.0610
ITEM: ATOMS id type xs ys zs
1 1 .483521 .991718 .522042
2 1 .992979 .645881 .510000
3 1 .822300 .042398 .446640
4 1 .216644 .006173 .522571
5 1 .008048 .593987 .512874
6 1 .512509 .448790 .984409
7 1 .499929 .471139 .009613
ITEM: TIMESTEP
50
ITEM: NUMBER OF ATOMS
7
ITEM: BOX BOUNDS ss ss ss
-2.9559 3.3136
-2.8730 3.2257
-1.9469 2.0610
ITEM: ATOMS id type xs ys zs
1 1 .482680 .990188 .521481
2 1 .993204 .645414 .508132
3 1 .823573 .042777 .447393
4 1 .216738 .006690 .520725
5 1 .007436 .595724 .514758
6 1 .513824 .447377 .983595
7 1 .498205 .469720 .008104
ITEM: TIMESTEP
100
ITEM: NUMBER OF ATOMS
7
ITEM: BOX BOUNDS ss ss ss
-2.9559 3.3136
-2.8881 3.2257
-1.9536 2.0610
ITEM: ATOMS id type xs ys zs
1 1 .483992 .990965 .523270
2 1 .992717 .647253 .510722
3 1 .823245 .045074 .450373
4 1 .217816 .009735 .522984
5 1 .008253 .596394 .515288
6 1 .512531 .450368 .984978
7 1 .499903 .470501 .015757
ITEM: TIMESTEP
150
ITEM: NUMBER OF ATOMS
7
ITEM: BOX BOUNDS ss ss ss
-2.9559 3.3243
-2.8872 3.2257
-1.9553 2.0610
ITEM: ATOMS id type xs ys zs
1 1 .483196 .987789 .523784
2 1 .990487 .647391 .506066
3 1 .822945 .045495 .451535
4 1 .218428 .008754 .524199
5 1 .006569 .595790 .513490
6 1 .512796 .451002 .983090
7 1 .496925 .468785 .011053
ITEM: TIMESTEP
200
ITEM: NUMBER OF ATOMS
7
ITEM: BOX BOUNDS ss ss ss
-2.9504 3.3161
-2.8836 3.2282
-1.9555 2.0539
ITEM: ATOMS id type xs ys zs
1 1 .481462 .989110 .526718
2 1 .992916 .644836 .512295
3 1 .824151 .044564 .451782
4 1 .217929 .008567 .522301
5 1 .006476 .595163 .518800
6 1 .513376 .448836 .987110
7 1 .496402 .471063 .012932
ITEM: TIMESTEP
250
ITEM: NUMBER OF ATOMS
7
ITEM: BOX BOUNDS ss ss ss
-2.9618 3.3244
-2.8858 3.2282
-1.9610 2.0539
ITEM: ATOMS id type xs ys zs
1 1 .480716 .990433 .529113
2 1 .991262 .645300 .513670
3 1 .822802 .044858 .452974
4 1 .217702 .009123 .520599
5 1 .009010 .594907 .524357
6 1 .513139 .450852 .988287
7 1 .497876 .471414 .017043
ITEM: TIMESTEP
300
ITEM: NUMBER OF ATOMS
7
ITEM: BOX BOUNDS ss ss ss
-2.9639 3.3229
-2.8813 3.2282
-1.9599 2.0539
ITEM: ATOMS id type xs ys zs
1 1 .480671 .990822 .531287
2 1 .992456 .644286 .512330
3 1 .824367 .041698 .454567
4 1 .218559 .010674 .518371
5 1 .006655 .592526 .521411
6 1 .511846 .449943 .987863
7 1 .497706 .468591 .018896
ITEM: TIMESTEP
350
ITEM: NUMBER OF ATOMS
7
ITEM: BOX BOUNDS ss ss ss
-2.9679 3.3209
-2.8762 3.2300
-1.9569 2.0566
ITEM: ATOMS id type xs ys zs
1 1 .482396 .989635 .529324
2 1 .992092 .643940 .509004
3 1 .824712 .040266 .454974
4 1 .220332 .009529 .519321
5 1 .006885 .591958 .522238
6 1 .510875 .451394 .990674
7 1 .499403 .466618 .019287
ITEM: TIMESTEP
400
ITEM: NUMBER OF ATOMS
7
ITEM: BOX BOUNDS ss ss ss
-2.9739 3.3249
-2.8853 3.2242
-1.9602 2.0567
ITEM: ATOMS id type xs ys zs
1 1 .482110 .990755 .528111
2 1 .989767 .644282 .511550
3 1 .826545 .043594 .457914
4 1 .220803 .012254 .517583
5 1 .010195 .590945 .521298
6 1 .511525 .451291 .995397
7 1 .500121 .468974 .021286
ITEM: TIMESTEP
1
ITEM: NUMBER OF ATOMS
7
ITEM: BOX BOUNDS ss ss ss
-2.9574 3.3259
-2.8649 3.2252
-1.9544 2.0672
ITEM: ATOMS id type xs ys zs
1 1 .482704 .991773 .522118
2 1 .991040 .645455 .510128
3 1 .820727 .041131 .447002
4 1 .216409 .004851 .522657
5 1 .008273 .593493 .512997
6 1 .511626 .448084 .982925
7 1 .499073 .470472 .011433
ITEM: TIMESTEP
50
ITEM: NUMBER OF ATOMS
7
ITEM: BOX BOUNDS ss ss ss
-2.9574 3.3259
-2.8649 3.2252
-1.9544 2.0672
ITEM: ATOMS id type xs ys zs
1 1 .483094 .990880 .520053
2 1 .991281 .645999 .510271
3 1 .820935 .041106 .450409
4 1 .219362 .004792 .519197
5 1 .007912 .593931 .514129
6 1 .512532 .449072 .983039
7 1 .497458 .470015 .010866
ITEM: TIMESTEP
100
ITEM: NUMBER OF ATOMS
7
ITEM: BOX BOUNDS ss ss ss
-2.9574 3.3259
-2.8823 3.2252
-1.9544 2.0672
ITEM: ATOMS id type xs ys zs
1 1 .480822 .993365 .518946
2 1 .991123 .646310 .510199
3 1 .819270 .043808 .449279
4 1 .218499 .007504 .515929
5 1 .008805 .595974 .515404
6 1 .511997 .451607 .983993
7 1 .496754 .472642 .012489
ITEM: TIMESTEP
150
ITEM: NUMBER OF ATOMS
7
ITEM: BOX BOUNDS ss ss ss
-2.9574 3.3259
-2.8888 3.2252
-1.9629 2.0672
ITEM: ATOMS id type xs ys zs
1 1 .480955 .990825 .521242
2 1 .990778 .650092 .508935
3 1 .821115 .046116 .452293
4 1 .219704 .009683 .522068
5 1 .006326 .595079 .514004
6 1 .511965 .452894 .983862
7 1 .499184 .471094 .011722
ITEM: TIMESTEP
200
ITEM: NUMBER OF ATOMS
7
ITEM: BOX BOUNDS ss ss ss
-2.9574 3.3259
-2.9002 3.2252
-1.9611 2.0672
ITEM: ATOMS id type xs ys zs
1 1 .480956 .991071 .522193
2 1 .992556 .649769 .509806
3 1 .820817 .048038 .449913
4 1 .218346 .012077 .519875
5 1 .006462 .593807 .514217
6 1 .512046 .453871 .983535
7 1 .499531 .471396 .013048
ITEM: TIMESTEP
250
ITEM: NUMBER OF ATOMS
7
ITEM: BOX BOUNDS ss ss ss
-2.9603 3.3259
-2.8929 3.2285
-1.9593 2.0672
ITEM: ATOMS id type xs ys zs
1 1 .481591 .991096 .519318
2 1 .990495 .646556 .509572
3 1 .821368 .045598 .450671
4 1 .218075 .011076 .519436
5 1 .006926 .596306 .508844
6 1 .512829 .453066 .980918
7 1 .499608 .469560 .013035
ITEM: TIMESTEP
300
ITEM: NUMBER OF ATOMS
7
ITEM: BOX BOUNDS ss ss ss
-2.9629 3.3243
-2.8849 3.2271
-1.9588 2.0593
ITEM: ATOMS id type xs ys zs
1 1 .483007 .991018 .522922
2 1 .989272 .644942 .506889
3 1 .822970 .041664 .445507
4 1 .218635 .010198 .523169
5 1 .007168 .596058 .512152
6 1 .513182 .450044 .985802
7 1 .498434 .468296 .015504
ITEM: TIMESTEP
350
ITEM: NUMBER OF ATOMS
7
ITEM: BOX BOUNDS ss ss ss
-2.9610 3.3159
-2.8846 3.2269
-1.9730 2.0593
ITEM: ATOMS id type xs ys zs
1 1 .478767 .993442 .523347
2 1 .992936 .645868 .512441
3 1 .824206 .045736 .452784
4 1 .218219 .008253 .519418
5 1 .005654 .594276 .512220
6 1 .510255 .451699 .982159
7 1 .499969 .469611 .019204
ITEM: TIMESTEP
400
ITEM: NUMBER OF ATOMS
7
ITEM: BOX BOUNDS ss ss ss
-2.9592 3.3160
-2.8785 3.2261
-1.9690 2.0506
ITEM: ATOMS id type xs ys zs
1 1 .480746 .989920 .530601
2 1 .991537 .645319 .512918
3 1 .824827 .043552 .447187
4 1 .219609 .009146 .524164
5 1 .004090 .593600 .518728
6 1 .511994 .449278 .991648
7 1 .495505 .471493 .020570
ITEM: TIMESTEP
450
ITEM: NUMBER OF ATOMS
7
ITEM: BOX BOUNDS ss ss ss
-2.9666 3.3303
-2.8797 3.2255
-1.9783 2.0538
ITEM: ATOMS id type xs ys zs
1 1 .481398 .994534 .532941
2 1 .989329 .645540 .510016
3 1 .820557 .043030 .445545
4 1 .218530 .012549 .510894
5 1 .009056 .595124 .515206
6 1 .511477 .448259 .983515
7 1 .503438 .476148 .020360
ITEM: TIMESTEP
500
ITEM: NUMBER OF ATOMS
7
ITEM: BOX BOUNDS ss ss ss
-2.9705 3.3335
-2.8823 3.2241
-1.9626 2.0551
ITEM: ATOMS id type xs ys zs
1 1 .479930 .990666 .532962
2 1 .989984 .646366 .508202
3 1 .823128 .044669 .447623
4 1 .222873 .008540 .523714
5 1 .006221 .592150 .519128
6 1 .510846 .449497 .991244
7 1 .494095 .472313 .019764
ITEM: TIMESTEP
550
ITEM: NUMBER OF ATOMS
7
ITEM: BOX BOUNDS ss ss ss
-2.9845 3.3243
-2.8730 3.2277
-1.9665 2.0577
ITEM: ATOMS id type xs ys zs
1 1 .483098 .989793 .530635
2 1 .991926 .645288 .507204
3 1 .825371 .043424 .447239
4 1 .225254 .007829 .522493
5 1 .008544 .592489 .516814
6 1 .514549 .447933 .991462
7 1 .497579 .471276 .018062
ITEM: TIMESTEP
600
ITEM: NUMBER OF ATOMS
7
ITEM: BOX BOUNDS ss ss ss
-2.9771 3.3265
-2.8843 3.2322
-1.9632 2.0684
ITEM: ATOMS id type xs ys zs
1 1 .481374 .989299 .528648
2 1 .991760 .647210 .503826
3 1 .825581 .044021 .447037
4 1 .224144 .010725 .521511
5 1 .008048 .593185 .515670
6 1 .514215 .449462 .987281
7 1 .496971 .472217 .019293
ITEM: TIMESTEP
650
ITEM: NUMBER OF ATOMS
7
ITEM: BOX BOUNDS ss ss ss
-2.9785 3.3225
-2.8839 3.2305
-1.9695 2.0666
ITEM: ATOMS id type xs ys zs
1 1 .481585 .991822 .530367
2 1 .988533 .646215 .511889
3 1 .824718 .043841 .446633
4 1 .222904 .008071 .514085
5 1 .007042 .594713 .512678
6 1 .510123 .449490 .985955
7 1 .498663 .472547 .023784
ITEM: TIMESTEP
700
ITEM: NUMBER OF ATOMS
7
ITEM: BOX BOUNDS ss ss ss
-2.9829 3.3203
-2.8773 3.2381
-1.9567 2.0658
ITEM: ATOMS id type xs ys zs
1 1 .481775 .991836 .530611
2 1 .987938 .645273 .508494
3 1 .826865 .044016 .444305
4 1 .227547 .008771 .513079
5 1 .008508 .594565 .513742
6 1 .513839 .448401 .988497
7 1 .498531 .473522 .018936
ITEM: TIMESTEP
1
ITEM: NUMBER OF ATOMS
7
ITEM: BOX BOUNDS ss ss ss
-2.9794 3.3251
-2.8809 3.2354
-1.9419 2.0763
ITEM: ATOMS id type xs ys zs
1 1 .484575 .990144 .519439
2 1 .991195 .645288 .507436
3 1 .821450 .043571 .444261
4 1 .219178 .007456 .519967
5 1 .011735 .593569 .510311
6 1 .513382 .448778 .980627
7 1 .500885 .471071 .008325
ITEM: TIMESTEP
50
ITEM: NUMBER OF ATOMS
7
ITEM: BOX BOUNDS ss ss ss
-2.9794 3.3251
-2.8809 3.2354
-1.9425 2.0763
ITEM: ATOMS id type xs ys zs
1 1 .485318 .991693 .519173
2 1 .990830 .647071 .505664
3 1 .822886 .042663 .447061
4 1 .221083 .008476 .517753
5 1 .012585 .593509 .511643
6 1 .514276 .447534 .980691
7 1 .501317 .471319 .009425
ITEM: TIMESTEP
100
ITEM: NUMBER OF ATOMS
7
ITEM: BOX BOUNDS ss ss ss
-2.9794 3.3251
-2.8809 3.2354
-1.9490 2.0763
ITEM: ATOMS id type xs ys zs
1 1 .483496 .990206 .522445
2 1 .990616 .644908 .508384
3 1 .823672 .043947 .444876
4 1 .220280 .008315 .516711
5 1 .009695 .592054 .508814
6 1 .514091 .449101 .979658
7 1 .499338 .471276 .011193
ITEM: TIMESTEP
150
ITEM: NUMBER OF ATOMS
7
ITEM: BOX BOUNDS ss ss ss
-2.9794 3.3251
-2.8849 3.2292
-1.9629 2.0763
ITEM: ATOMS id type xs ys zs
1 1 .481905 .990629 .528384
2 1 .990467 .645543 .508353
3 1 .822510 .042156 .445820
4 1 .222412 .009229 .514554
5 1 .009973 .592595 .509930
6 1 .514070 .449279 .976829
7 1 .499286 .472100 .011530
ITEM: TIMESTEP
200
ITEM: NUMBER OF ATOMS
7
ITEM: BOX BOUNDS ss ss ss
-2.9794 3.3251
-2.8938 3.2291
-1.9631 2.0763
ITEM: ATOMS id type xs ys zs
1 1 .479666 .989140 .528147
2 1 .989519 .645362 .511232
3 1 .823735 .045920 .450622
4 1 .223334 .012682 .514762
5 1 .008465 .592911 .508923
6 1 .513537 .452101 .978418
7 1 .500380 .471308 .012883
ITEM: TIMESTEP
250
ITEM: NUMBER OF ATOMS
7
ITEM: BOX BOUNDS ss ss ss
-2.9794 3.3251
-2.8969 3.2271
-1.9684 2.0763
ITEM: ATOMS id type xs ys zs
1 1 .479649 .989949 .527879
2 1 .989931 .645557 .511796
3 1 .824236 .046328 .451212
4 1 .223120 .012478 .515836
5 1 .009356 .594057 .508541
6 1 .513310 .451603 .979975
7 1 .500802 .472660 .015438
ITEM: TIMESTEP
300
ITEM: NUMBER OF ATOMS
7
ITEM: BOX BOUNDS ss ss ss
-2.9794 3.3251
-2.8845 3.2231
-1.9634 2.0576
ITEM: ATOMS id type xs ys zs
1 1 .482270 .988700 .527494
2 1 .991191 .645099 .507692
3 1 .823524 .045873 .452556
4 1 .221489 .012338 .516963
5 1 .009400 .593492 .510892
6 1 .512827 .449794 .989121
7 1 .502168 .471268 .013581
ITEM: TIMESTEP
350
ITEM: NUMBER OF ATOMS
7
ITEM: BOX BOUNDS ss ss ss
-2.9794 3.3251
-2.8769 3.2206
-1.9598 2.0576
ITEM: ATOMS id type xs ys zs
1 1 .480511 .988701 .528475
2 1 .990715 .644238 .512978
3 1 .824717 .044730 .453239
4 1 .220723 .010296 .513107
5 1 .008036 .593587 .512115
6 1 .512873 .449323 .985054
7 1 .498594 .471377 .014242
ITEM: TIMESTEP
400
ITEM: NUMBER OF ATOMS
7
ITEM: BOX BOUNDS ss ss ss
-2.9794 3.3251
-2.8769 3.2142
-1.9610 2.0576
ITEM: ATOMS id type xs ys zs
1 1 .480816 .994726 .529529
2 1 .992325 .645485 .511376
3 1 .828180 .045710 .454337
4 1 .221038 .010005 .514013
5 1 .010217 .594554 .511665
6 1 .512912 .451044 .987597
7 1 .501652 .469138 .017324
ITEM: TIMESTEP
1
ITEM: NUMBER OF ATOMS
7
ITEM: BOX BOUNDS ss ss ss
-2.9794 3.3251
-2.8769 3.2141
-1.9602 2.0576
ITEM: ATOMS id type xs ys zs
1 1 .484564 .993597 .524056
2 1 .991186 .647323 .512044
3 1 .821463 .043100 .448858
4 1 .219174 .006848 .524564
5 1 .011728 .595380 .514920
6 1 .513389 .450003 .985290
7 1 .500887 .472364 .012918
ITEM: TIMESTEP
50
ITEM: NUMBER OF ATOMS
7
ITEM: BOX BOUNDS ss ss ss
-2.9794 3.3251
-2.8769 3.2141
-1.9602 2.0576
ITEM: ATOMS id type xs ys zs
1 1 .484082 .993308 .524182
2 1 .991542 .646911 .510484
3 1 .822030 .042524 .450002
4 1 .219704 .007564 .522384
5 1 .010566 .596327 .514347
6 1 .513815 .448937 .984641
7 1 .500644 .472601 .013148
ITEM: TIMESTEP
100
ITEM: NUMBER OF ATOMS
7
ITEM: BOX BOUNDS ss ss ss
-2.9794 3.3251
-2.8873 3.2152
-1.9602 2.0576
ITEM: ATOMS id type xs ys zs
1 1 .483308 .993302 .523033
2 1 .991340 .646731 .510630
3 1 .820917 .043384 .450449
4 1 .219104 .009086 .524175
5 1 .010149 .595715 .515593
6 1 .514215 .451232 .985560
7 1 .499723 .472328 .014655
ITEM: TIMESTEP
150
ITEM: NUMBER OF ATOMS
7
ITEM: BOX BOUNDS ss ss ss
-2.9794 3.3251
-2.8881 3.2256
-1.9682 2.0576
ITEM: ATOMS id type xs ys zs
1 1 .486500 .992556 .521900
2 1 .991033 .646140 .510492
3 1 .821579 .044269 .447358
4 1 .218751 .013578 .521541
5 1 .010524 .594727 .513464
6 1 .513811 .451950 .983909
7 1 .499441 .470697 .015486
ITEM: TIMESTEP
200
ITEM: NUMBER OF ATOMS
7
ITEM: BOX BOUNDS ss ss ss
-2.9794 3.3251
-2.8947 3.2205
-1.9674 2.0576
ITEM: ATOMS id type xs ys zs
1 1 .485271 .991973 .524889
2 1 .990381 .645922 .512869
3 1 .822144 .043271 .453937
4 1 .218218 .009748 .525645
5 1 .011064 .595007 .515353
6 1 .513617 .450315 .987660
7 1 .501455 .471493 .018656
ITEM: TIMESTEP
250
ITEM: NUMBER OF ATOMS
7
ITEM: BOX BOUNDS ss ss ss
-2.9794 3.3251
-2.8920 3.2317
-1.9694 2.0675
ITEM: ATOMS id type xs ys zs
1 1 .486000 .991858 .523717
2 1 .990606 .642891 .505681
3 1 .823235 .044791 .448284
4 1 .218842 .011360 .522348
5 1 .012364 .595601 .512796
6 1 .515085 .449248 .985358
7 1 .500766 .469214 .013673
ITEM: TIMESTEP
300
ITEM: NUMBER OF ATOMS
7
ITEM: BOX BOUNDS ss ss ss
-2.9794 3.3251
-2.8923 3.2233
-1.9628 2.0700
ITEM: ATOMS id type xs ys zs
1 1 .485965 .992830 .520775
2 1 .990940 .643845 .507019
3 1 .823886 .045538 .450265
4 1 .218089 .010313 .517896
5 1 .013519 .596634 .512335
6 1 .515022 .449411 .983476
7 1 .501653 .467592 .012828
ITEM: TIMESTEP
350
ITEM: NUMBER OF ATOMS
7
ITEM: BOX BOUNDS ss ss ss
-2.9794 3.3251
-2.8812 3.2286
-1.9619 2.0645
ITEM: ATOMS id type xs ys zs
1 1 .485782 .990358 .521104
2 1 .992976 .642245 .507302
3 1 .825637 .042274 .452665
4 1 .218167 .007038 .519064
5 1 .014007 .594243 .513290
6 1 .516121 .448907 .985048
7 1 .502613 .467972 .012601
ITEM: TIMESTEP
400
ITEM: NUMBER OF ATOMS
7
ITEM: BOX BOUNDS ss ss ss
-2.9794 3.3251
-2.8897 3.2274
-1.9675 2.0707
ITEM: ATOMS id type xs ys zs
1 1 .487207 .989954 .519709
2 1 .991895 .642860 .508070
3 1 .824133 .042607 .451408
4 1 .219122 .011056 .520479
5 1 .014657 .594179 .514123
6 1 .515836 .449002 .982130
7 1 .503674 .469975 .014497
ITEM: TIMESTEP
450
ITEM: NUMBER OF ATOMS
7
ITEM: BOX BOUNDS ss ss ss
-2.9794 3.3251
-2.8961 3.2348
-1.9691 2.0599
ITEM: ATOMS id type xs ys zs
1 1 .486769 .987989 .521828
2 1 .991353 .642794 .507200
3 1 .826819 .044456 .451543
4 1 .220270 .013005 .521297
5 1 .015636 .594588 .519474
6 1 .516995 .446831 .984303
7 1 .501809 .470071 .013560
ITEM: TIMESTEP
500
ITEM: NUMBER OF ATOMS
7
ITEM: BOX BOUNDS ss ss ss
-2.9794 3.3224
-2.8795 3.2321
-1.9571 2.0576
ITEM: ATOMS id type xs ys zs
1 1 .485515 .988314 .521347