ITEM: TIMESTEP
1
ITEM: NUMBER OF ATOMS
7
ITEM: BOX BOUNDS ss ss ss
-2.9088 3.2735
-2.8395 3.1790
-1.9130 2.0021
ITEM: ATOMS id type xs ys zs
1 1 .482745 .999379 .525721
2 1 .999382 .648937 .513560
3 1 .826215 .037417 .448456
4 1 .212048 .000609 .526501
5 1 .000587 .596292 .516323
6 1 .512111 .449192 .999038
7 1 .499391 .471911 .001119
ITEM: TIMESTEP
50
ITEM: NUMBER OF ATOMS
7
ITEM: BOX BOUNDS ss ss ss
-2.9309 3.3005
-2.8615 3.2037
-1.9351 2.0240
ITEM: ATOMS id type xs ys zs
1 1 .482533 .995364 .525420
2 1 .995125 .647616 .513773
3 1 .823109 .040818 .448665
4 1 .213874 .004109 .526776
5 1 .004194 .595189 .515920
6 1 .511629 .449375 .993410
7 1 .499055 .472042 .006503
ITEM: TIMESTEP
100
ITEM: NUMBER OF ATOMS
7
ITEM: BOX BOUNDS ss ss ss
-2.9408 3.3061
-2.8764 3.2124
-1.9417 2.0396
ITEM: ATOMS id type xs ys zs
1 1 .482878 .993924 .524337
2 1 .994261 .647507 .512603
3 1 .822675 .043061 .447478
4 1 .215017 .006622 .525606
5 1 .005676 .595341 .514344
6 1 .511944 .450141 .989680
7 1 .499364 .472586 .008185
ITEM: TIMESTEP
150
ITEM: NUMBER OF ATOMS
7
ITEM: BOX BOUNDS ss ss ss
-2.9503 3.3146
-2.8748 3.2181
-1.9537 2.0451
ITEM: ATOMS id type xs ys zs
1 1 .482983 .992931 .525196
2 1 .992878 .646612 .513242
3 1 .822074 .042631 .448503
4 1 .216257 .006725 .526127
5 1 .006900 .594810 .514743
6 1 .512003 .449800 .988734
7 1 .499384 .471728 .011587
ITEM: TIMESTEP
200
ITEM: NUMBER OF ATOMS
7
ITEM: BOX BOUNDS ss ss ss
-2.9502 3.3179
-2.8779 3.2150
-1.9490 2.0460
ITEM: ATOMS id type xs ys zs
1 1 .482553 .993133 .524385
2 1 .992244 .646642 .512457
3 1 .822131 .042854 .448123
4 1 .216642 .007966 .524687
5 1 .006318 .595607 .513669
6 1 .511619 .450644 .989137
7 1 .498976 .471702 .011023
ITEM: TIMESTEP
250
ITEM: NUMBER OF ATOMS
7
ITEM: BOX BOUNDS ss ss ss
-2.9607 3.3176
-2.8759 3.2139
-1.9634 2.0470
ITEM: ATOMS id type xs ys zs
1 1 .483291 .992906 .525706
2 1 .992054 .645936 .513958
3 1 .823098 .042180 .450281
4 1 .218450 .008238 .524956
5 1 .007361 .595993 .514949
6 1 .512133 .450738 .989408
7 1 .499352 .470836 .015131
ITEM: TIMESTEP
300
ITEM: NUMBER OF ATOMS
7
ITEM: BOX BOUNDS ss ss ss
-2.9681 3.3142
-2.8821 3.2156
-1.9468 2.0556
ITEM: ATOMS id type xs ys zs
1 1 .483981 .992437 .522642
2 1 .992378 .645571 .510429
3 1 .824260 .042893 .447358
4 1 .219895 .009725 .520824
5 1 .007943 .596607 .511848
6 1 .512704 .451145 .987475
7 1 .499692 .470701 .011568
ITEM: TIMESTEP
350
ITEM: NUMBER OF ATOMS
7
ITEM: BOX BOUNDS ss ss ss
-2.9729 3.3134
-2.8734 3.2202
-1.9520 2.0696
ITEM: ATOMS id type xs ys zs
1 1 .484202 .991579 .521653
2 1 .992290 .644331 .508828
3 1 .824904 .041462 .446837
4 1 .220916 .008606 .518604
5 1 .008343 .595813 .510921
6 1 .512994 .449973 .984271
7 1 .499782 .469338 .013304
ITEM: TIMESTEP
400
ITEM: NUMBER OF ATOMS
7
ITEM: BOX BOUNDS ss ss ss
-2.9685 3.3087
-2.8752 3.2179
-1.9579 2.0740
ITEM: ATOMS id type xs ys zs
1 1 .484159 .991736 .522210
2 1 .992907 .644629 .508490
3 1 .825964 .041700 .446971
4 1 .220939 .009124 .517805
5 1 .007557 .596416 .511720
6 1 .513128 .450100 .983454
7 1 .499557 .469350 .015040
ITEM: TIMESTEP
1
ITEM: NUMBER OF ATOMS
7
ITEM: BOX BOUNDS ss ss ss
-2.9579 3.3065
-2.8585 3.2060
-1.9461 2.0530
ITEM: ATOMS id type xs ys zs
1 1 .484256 .994929 .522949
2 1 .994128 .647150 .511049
3 1 .823224 .040278 .447305
4 1 .217098 .003752 .523717
5 1 .008409 .594905 .513745
6 1 .513239 .448925 .986326
7 1 .500682 .471471 .009362
ITEM: TIMESTEP
50
ITEM: NUMBER OF ATOMS
7
ITEM: BOX BOUNDS ss ss ss
-2.9579 3.3065
-2.8628 3.2060
-1.9461 2.0530
ITEM: ATOMS id type xs ys zs
1 1 .484295 .994975 .522890
2 1 .994208 .647470 .511468
3 1 .823004 .041001 .446775
4 1 .216994 .004239 .524430
5 1 .008496 .595035 .513507
6 1 .513242 .449308 .986206
7 1 .500772 .472029 .009154
ITEM: TIMESTEP
100
ITEM: NUMBER OF ATOMS
7
ITEM: BOX BOUNDS ss ss ss
-2.9579 3.3065
-2.8728 3.2192
-1.9486 2.0530
ITEM: ATOMS id type xs ys zs
1 1 .484269 .992842 .523304
2 1 .994248 .646602 .512000
3 1 .822991 .042432 .446722
4 1 .217076 .005951 .525081
5 1 .008428 .594345 .513502
6 1 .513271 .449346 .986291
7 1 .500740 .471837 .009738
ITEM: TIMESTEP
150
ITEM: NUMBER OF ATOMS
7
ITEM: BOX BOUNDS ss ss ss
-2.9568 3.3125
-2.8760 3.2182
-1.9585 2.0530
ITEM: ATOMS id type xs ys zs
1 1 .483717 .992965 .524771
2 1 .993252 .646735 .513101
3 1 .822360 .042851 .447804
4 1 .216997 .006776 .526263
5 1 .008083 .594649 .514278
6 1 .512633 .449904 .986616
7 1 .500050 .472057 .012354
ITEM: TIMESTEP
200
ITEM: NUMBER OF ATOMS
7
ITEM: BOX BOUNDS ss ss ss
-2.9601 3.3115
-2.8804 3.2169
-1.9559 2.0526
ITEM: ATOMS id type xs ys zs
1 1 .483953 .993047 .525027
2 1 .993327 .646791 .512539
3 1 .822769 .043392 .447186
4 1 .217746 .007884 .525991
5 1 .008300 .595216 .513915
6 1 .513004 .450557 .987117
7 1 .500086 .472306 .012031
ITEM: TIMESTEP
250
ITEM: NUMBER OF ATOMS
7
ITEM: BOX BOUNDS ss ss ss
-2.9562 3.3129
-2.8731 3.2295
-1.9500 2.0565
ITEM: ATOMS id type xs ys zs
1 1 .483189 .990914 .524267
2 1 .992997 .644463 .510866
3 1 .822615 .041765 .445661
4 1 .217538 .007197 .524367
5 1 .007318 .593743 .513443
6 1 .512722 .449062 .986515
7 1 .499270 .470577 .011069
ITEM: TIMESTEP
300
ITEM: NUMBER OF ATOMS
7
ITEM: BOX BOUNDS ss ss ss
-2.9623 3.3195
-2.8817 3.2274
-1.9530 2.0536
ITEM: ATOMS id type xs ys zs
1 1 .482839 .991184 .526120
2 1 .991641 .644630 .510333
3 1 .822086 .042648 .446500
4 1 .218332 .009059 .523456
5 1 .008014 .594708 .515168
6 1 .512870 .449749 .987449
7 1 .498964 .471413 .012309
ITEM: TIMESTEP
350
ITEM: NUMBER OF ATOMS
7
ITEM: BOX BOUNDS ss ss ss
-2.9595 3.3216
-2.8817 3.2211
-1.9500 2.0509
ITEM: ATOMS id type xs ys zs
1 1 .482602 .991720 .528009
2 1 .991162 .645048 .508951
3 1 .822268 .042435 .447157
4 1 .218250 .009246 .519982
5 1 .007181 .595124 .515991
6 1 .512634 .449464 .987989
7 1 .498317 .471770 .012141
ITEM: TIMESTEP
400
ITEM: NUMBER OF ATOMS
7
ITEM: BOX BOUNDS ss ss ss
-2.9675 3.3101
-2.8730 3.2306
-1.9477 2.0558
ITEM: ATOMS id type xs ys zs
1 1 .484198 .989681 .528148
2 1 .992929 .643185 .507126
3 1 .824690 .040778 .446664
4 1 .220007 .008006 .516683
5 1 .007813 .593653 .514598
6 1 .513686 .447553 .986765
7 1 .499780 .469942 .012148
ITEM: TIMESTEP
1
ITEM: NUMBER OF ATOMS
7
ITEM: BOX BOUNDS ss ss ss
-2.9703 3.3079
-2.8669 3.2146
-1.9368 2.0492
ITEM: ATOMS id type xs ys zs
1 1 .485168 .993533 .522334
2 1 .993922 .646722 .510402
3 1 .823391 .041540 .446444
4 1 .218598 .005115 .523108
5 1 .010362 .594622 .513107
6 1 .514083 .449044 .987243
7 1 .501561 .471531 .007062
ITEM: TIMESTEP
50
ITEM: NUMBER OF ATOMS
7
ITEM: BOX BOUNDS ss ss ss
-2.9703 3.3079
-2.8669 3.2146
-1.9384 2.0492
ITEM: ATOMS id type xs ys zs
1 1 .485246 .993623 .522491
2 1 .993977 .646799 .511080
3 1 .823151 .041629 .446075
4 1 .218462 .004854 .524135
5 1 .010467 .594442 .513024
6 1 .514076 .449044 .987077
7 1 .501679 .471755 .007227
ITEM: TIMESTEP
100
ITEM: NUMBER OF ATOMS
7
ITEM: BOX BOUNDS ss ss ss
-2.9703 3.3079
-2.8741 3.2153
-1.9495 2.0492
ITEM: ATOMS id type xs ys zs
1 1 .485208 .993627 .523862
2 1 .993980 .647100 .512634
3 1 .823084 .042708 .447134
4 1 .218521 .006052 .525905
5 1 .010415 .594816 .514061
6 1 .514057 .449724 .987148
7 1 .501650 .472347 .010005
ITEM: TIMESTEP
150
ITEM: NUMBER OF ATOMS
7
ITEM: BOX BOUNDS ss ss ss
-2.9703 3.3113
-2.8761 3.2190
-1.9526 2.0492
ITEM: ATOMS id type xs ys zs
1 1 .484861 .993112 .524275
2 1 .993413 .646703 .512960
3 1 .822744 .042756 .447169
4 1 .218501 .006735 .526297
5 1 .010176 .594823 .514148
6 1 .513777 .449780 .987264
7 1 .501241 .472021 .011120
ITEM: TIMESTEP
200
ITEM: NUMBER OF ATOMS
7
ITEM: BOX BOUNDS ss ss ss
-2.9703 3.3116
-2.8908 3.2268
-1.9508 2.0492
ITEM: ATOMS id type xs ys zs
1 1 .484767 .991913 .523937
2 1 .993338 .646750 .512380
3 1 .823137 .044752 .446575
4 1 .218628 .009676 .525655
5 1 .009852 .595763 .513706
6 1 .513752 .450619 .987083
7 1 .501028 .472284 .011225
ITEM: TIMESTEP
250
ITEM: NUMBER OF ATOMS
7
ITEM: BOX BOUNDS ss ss ss
-2.9703 3.3235
-2.8816 3.2374
-1.9528 2.0496
ITEM: ATOMS id type xs ys zs
1 1 .483822 .990407 .524086
2 1 .991370 .645350 .511884
3 1 .822372 .043239 .446849
4 1 .218385 .009253 .524749
5 1 .009385 .595894 .513753
6 1 .512551 .449080 .986884
7 1 .499810 .470207 .012312
ITEM: TIMESTEP
300
ITEM: NUMBER OF ATOMS
7
ITEM: BOX BOUNDS ss ss ss
-2.9703 3.3268
-2.8733 3.2266
-1.9624 2.0465
ITEM: ATOMS id type xs ys zs
1 1 .483671 .992168 .525808
2 1 .990630 .646264 .512359
3 1 .822759 .042160 .448513
4 1 .218380 .008965 .525349
5 1 .009262 .598011 .514888
6 1 .512159 .449364 .987856
7 1 .499356 .470011 .015142
ITEM: TIMESTEP
350
ITEM: NUMBER OF ATOMS
7
ITEM: BOX BOUNDS ss ss ss
-2.9703 3.3270
-2.8760 3.2303
-1.9499 2.0455
ITEM: ATOMS id type xs ys zs
1 1 .483816 .991508 .524571
2 1 .990478 .645890 .510141
3 1 .823333 .042662 .446893
4 1 .218684 .009933 .523420
5 1 .009344 .598342 .512876
6 1 .512214 .449615 .988311
7 1 .499273 .469746 .012104
ITEM: TIMESTEP
400
ITEM: NUMBER OF ATOMS
7
ITEM: BOX BOUNDS ss ss ss
-2.9703 3.3184
-2.8761 3.2300
-1.9547 2.0553
ITEM: ATOMS id type xs ys zs
1 1 .484700 .991382 .523878
2 1 .991867 .645596 .509043
3 1 .824768 .042690 .446553
4 1 .219402 .010206 .522079
5 1 .009347 .598313 .511822
6 1 .513094 .449843 .986199
7 1 .499857 .469565 .013221
ITEM: TIMESTEP
1
ITEM: NUMBER OF ATOMS
7
ITEM: BOX BOUNDS ss ss ss
-2.9703 3.3193
-2.8579 3.2270
-1.9598 2.0407
ITEM: ATOMS id type xs ys zs
1 1 .484290 .991490 .526199
2 1 .992124 .644878 .514304
3 1 .821905 .040037 .450581
4 1 .218204 .003627 .526971
5 1 .010346 .592803 .516998
6 1 .513156 .447312 .989416
7 1 .500654 .469788 .012791
ITEM: TIMESTEP
50
ITEM: NUMBER OF ATOMS
7
ITEM: BOX BOUNDS ss ss ss
-2.9703 3.3193
-2.8640 3.2270
-1.9598 2.0407
ITEM: ATOMS id type xs ys zs
1 1 .484348 .991603 .526108
2 1 .992212 .645335 .514853
3 1 .821648 .041098 .449895
4 1 .218037 .004324 .527898
5 1 .010488 .593001 .516716
6 1 .513168 .447845 .989242
7 1 .500782 .470582 .012492
ITEM: TIMESTEP
100
ITEM: NUMBER OF ATOMS
7
ITEM: BOX BOUNDS ss ss ss
-2.9703 3.3193
-2.8762 3.2270
-1.9598 2.0397
ITEM: ATOMS id type xs ys zs
1 1 .484371 .991684 .526305
2 1 .992224 .646013 .515272
3 1 .821583 .043009 .449401
4 1 .218036 .006312 .528591
5 1 .010468 .593676 .516469
6 1 .513155 .449001 .989489
7 1 .500782 .471641 .012352
ITEM: TIMESTEP
150
ITEM: NUMBER OF ATOMS
7
ITEM: BOX BOUNDS ss ss ss
-2.9703 3.3221
-2.8791 3.2270
-1.9598 2.0420
ITEM: ATOMS id type xs ys zs
1 1 .484172 .991637 .526238
2 1 .991788 .646079 .514993
3 1 .821356 .043397 .448890
4 1 .218187 .007056 .528390
5 1 .010239 .593880 .515777
6 1 .512919 .449454 .989155
7 1 .500393 .471682 .012632
ITEM: TIMESTEP
200
ITEM: NUMBER OF ATOMS
7
ITEM: BOX BOUNDS ss ss ss
-2.9703 3.3193
-2.8802 3.2270
-1.9598 2.0487
ITEM: ATOMS id type xs ys zs
1 1 .484383 .991551 .525716
2 1 .992184 .646164 .513963
3 1 .822195 .043531 .447923
4 1 .218751 .007708 .527272
5 1 .009772 .594173 .514472
6 1 .513073 .449909 .987671
7 1 .500341 .471433 .013205
ITEM: TIMESTEP
250
ITEM: NUMBER OF ATOMS
7
ITEM: BOX BOUNDS ss ss ss
-2.9703 3.3193
-2.8787 3.2266
-1.9598 2.0493
ITEM: ATOMS id type xs ys zs
1 1 .484600 .991483 .526473
2 1 .992381 .645689 .513892
3 1 .822591 .043136 .448236
4 1 .219451 .008004 .526295
5 1 .009341 .594217 .514272
6 1 .513034 .450054 .988125
7 1 .500160 .471162 .013840
ITEM: TIMESTEP
300
ITEM: NUMBER OF ATOMS
7
ITEM: BOX BOUNDS ss ss ss
-2.9703 3.3210
-2.8810 3.2241
-1.9502 2.0533
ITEM: ATOMS id type xs ys zs
1 1 .484824 .991444 .525596
2 1 .992721 .645303 .512751
3 1 .822791 .042998 .447000
4 1 .220137 .008779 .523741
5 1 .009459 .594276 .513091
6 1 .513442 .450222 .988177
7 1 .500403 .471201 .012412
ITEM: TIMESTEP
350
ITEM: NUMBER OF ATOMS
7
ITEM: BOX BOUNDS ss ss ss
-2.9703 3.3354
-2.8817 3.2281
-1.9507 2.0654
ITEM: ATOMS id type xs ys zs
1 1 .483788 .990301 .524765
2 1 .990820 .644301 .511835
3 1 .821318 .042588 .445829
4 1 .220119 .008996 .521639
5 1 .009661 .593774 .511943
6 1 .512769 .449712 .985908
7 1 .499681 .470698 .012916
ITEM: TIMESTEP
400
ITEM: NUMBER OF ATOMS
7
ITEM: BOX BOUNDS ss ss ss
-2.9703 3.3313
-2.8759 3.2219
-1.9503 2.0653
ITEM: ATOMS id type xs ys zs
1 1 .484256 .990958 .525467
2 1 .991487 .643990 .511867
3 1 .822065 .041276 .445748
4 1 .220695 .008258 .520648
5 1 .009830 .594070 .512027
6 1 .513275 .449357 .986383
7 1 .500177 .470613 .012630
ITEM: TIMESTEP
1
ITEM: NUMBER OF ATOMS
7
ITEM: BOX BOUNDS ss ss ss
-2.9619 3.3224
-2.8782 3.2150
-1.9417 2.0690
ITEM: ATOMS id type xs ys zs
1 1 .483363 .993475 .520344
2 1 .991623 .647331 .508478
3 1 .821261 .043310 .444914
4 1 .217057 .006955 .521114
5 1 .009031 .595331 .511165
6 1 .512256 .450032 .982383
7 1 .499744 .472478 .008227
ITEM: TIMESTEP
50
ITEM: NUMBER OF ATOMS
7
ITEM: BOX BOUNDS ss ss ss
-2.9619 3.3224
-2.8782 3.2150
-1.9417 2.0690
ITEM: ATOMS id type xs ys zs
1 1 .483466 .993591 .520224
2 1 .991751 .647422 .509108
3 1 .820964 .043413 .444213
4 1 .216871 .006611 .522172
5 1 .009192 .595086 .510814
6 1 .512238 .450007 .982193
7 1 .499880 .472772 .007928
ITEM: TIMESTEP
100
ITEM: NUMBER OF ATOMS
7
ITEM: BOX BOUNDS ss ss ss
-2.9619 3.3224
-2.8791 3.2217
-1.9491 2.0690
ITEM: ATOMS id type xs ys zs
1 1 .483503 .992576 .521075
2 1 .991782 .646761 .510443
3 1 .820794 .043508 .444558
4 1 .216886 .006666 .523830
5 1 .009215 .594351 .511367
6 1 .512246 .449673 .982249
7 1 .499918 .472467 .009595
ITEM: TIMESTEP
150
ITEM: NUMBER OF ATOMS
7
ITEM: BOX BOUNDS ss ss ss
-2.9493 3.3166
-2.8867 3.2215
-1.9613 2.0690
ITEM: ATOMS id type xs ys zs
1 1 .482776 .992642 .522516
2 1 .992705 .647159 .512163
3 1 .821193 .044652 .445580
4 1 .215674 .008023 .525592
5 1 .007045 .594857 .512298
6 1 .511740 .450556 .982474
7 1 .499297 .473159 .012673
ITEM: TIMESTEP
200
ITEM: NUMBER OF ATOMS
7
ITEM: BOX BOUNDS ss ss ss
-2.9550 3.3180
-2.8859 3.2214
-1.9596 2.0690
ITEM: ATOMS id type xs ys zs
1 1 .482958 .992733 .522432
2 1 .992421 .647134 .512023
3 1 .821359 .044511 .444957
4 1 .216505 .008145 .525167
5 1 .007758 .595022 .511629
6 1 .512017 .450608 .982618
7 1 .499579 .473025 .012684
ITEM: TIMESTEP
250
ITEM: NUMBER OF ATOMS
7
ITEM: BOX BOUNDS ss ss ss
-2.9557 3.3171
-2.8872 3.2315
-1.9569 2.0668
ITEM: ATOMS id type xs ys zs
1 1 .482738 .991381 .522357
2 1 .992135 .646235 .512452
3 1 .821920 .044665 .444453
4 1 .216680 .008867 .524174
5 1 .007692 .594847 .511990
6 1 .511986 .449845 .983749
7 1 .499557 .472412 .012957
ITEM: TIMESTEP
300
ITEM: NUMBER OF ATOMS
7
ITEM: BOX BOUNDS ss ss ss
-2.9614 3.3245
-2.8826 3.2348
-1.9579 2.0643
ITEM: ATOMS id type xs ys zs
1 1 .482017 .991049 .522309
2 1 .990663 .645877 .513545
3 1 .821549 .043811 .444373
4 1 .217201 .008678 .523753
5 1 .008391 .594821 .513219
6 1 .511835 .449039 .984820
7 1 .499378 .471915 .014096
ITEM: TIMESTEP
350
ITEM: NUMBER OF ATOMS
7
ITEM: BOX BOUNDS ss ss ss
-2.9655 3.3219
-2.8822 3.2345
-1.9569 2.0643
ITEM: ATOMS id type xs ys zs
1 1 .482189 .991300 .521649
2 1 .991200 .646075 .514470
3 1 .822297 .043717 .444250
4 1 .217735 .009506 .522522
5 1 .008613 .595585 .513383
6 1 .512362 .449379 .984847
7 1 .499783 .472002 .014530
ITEM: TIMESTEP
400
ITEM: NUMBER OF ATOMS
7
ITEM: BOX BOUNDS ss ss ss
-2.9665 3.3178
-2.8755 3.2305
-1.9497 2.0554
ITEM: ATOMS id type xs ys zs
1 1 .482621 .992239 .521703
2 1 .992064 .645983 .516034
3 1 .822971 .042673 .444451
4 1 .218031 .009119 .521441
5 1 .008335 .596191 .513537
6 1 .512500 .449452 .986675
7 1 .500111 .471751 .013385
ITEM: TIMESTEP
1
ITEM: NUMBER OF ATOMS
7
ITEM: BOX BOUNDS ss ss ss
-2.9559 3.3136
-2.8730 3.2257
-1.9469 2.0610
ITEM: ATOMS id type xs ys zs
1 1 .483544 .991734 .522005
2 1 .993005 .645903 .510134
3 1 .822239 .042421 .446519
4 1 .216606 .006095 .522773
5 1 .008087 .593944 .512820
6 1 .512502 .448783 .984367
7 1 .499963 .471204 .009535
ITEM: TIMESTEP
50
ITEM: NUMBER OF ATOMS
7
ITEM: BOX BOUNDS ss ss ss
-2.9559 3.3136
-2.8730 3.2257
-1.9469 2.0610
ITEM: ATOMS id type xs ys zs
1 1 .483648 .991860 .521901
2 1 .993133 .646000 .510818
3 1 .821874 .042531 .445762
4 1 .216412 .005711 .523925
5 1 .008268 .593694 .512452
6 1 .512485 .448758 .984128
7 1 .500117 .471534 .009208
ITEM: TIMESTEP
100
ITEM: NUMBER OF ATOMS
7
ITEM: BOX BOUNDS ss ss ss
-2.9559 3.3136
-2.8881 3.2257
-1.9536 2.0610
ITEM: ATOMS id type xs ys zs
1 1 .483638 .991957 .522723
2 1 .993190 .646918 .512093
3 1 .821685 .044877 .445957
4 1 .216392 .008061 .525560
5 1 .008306 .594572 .512841
6 1 .512513 .450195 .984210
7 1 .500151 .472930 .010749
ITEM: TIMESTEP
150
ITEM: NUMBER OF ATOMS
7
ITEM: BOX BOUNDS ss ss ss
-2.9559 3.3243
-2.8872 3.2257
-1.9553 2.0610
ITEM: ATOMS id type xs ys zs
1 1 .482745 .992001 .523076
2 1 .991577 .646752 .512515
3 1 .820262 .044561 .445604
4 1 .216131 .008120 .526401
5 1 .008188 .594596 .512841
6 1 .511724 .450266 .984388
7 1 .499184 .472754 .011285
ITEM: TIMESTEP
200
ITEM: NUMBER OF ATOMS
7
ITEM: BOX BOUNDS ss ss ss
-2.9504 3.3161
-2.8836 3.2282
-1.9555 2.0539
ITEM: ATOMS id type xs ys zs
1 1 .482823 .991396 .524096
2 1 .992950 .646027 .513706
3 1 .821399 .043757 .446249
4 1 .215713 .007936 .527680
5 1 .007024 .594380 .513756
6 1 .512164 .449856 .986210
7 1 .499182 .471958 .011761
ITEM: TIMESTEP
250
ITEM: NUMBER OF ATOMS
7
ITEM: BOX BOUNDS ss ss ss
-2.9618 3.3244
-2.8858 3.2282
-1.9610 2.0539
ITEM: ATOMS id type xs ys zs
1 1 .482976 .990833 .524769
2 1 .991711 .645884 .514956
3 1 .821333 .044033 .447151
4 1 .216862 .008884 .528133
5 1 .008060 .595023 .514740
6 1 .512415 .449760 .986444
7 1 .498884 .471426 .014035
ITEM: TIMESTEP
300
ITEM: NUMBER OF ATOMS
7
ITEM: BOX BOUNDS ss ss ss
-2.9639 3.3229
-2.8813 3.2282
-1.9599 2.0539
ITEM: ATOMS id type xs ys zs
1 1 .483054 .990529 .525220
2 1 .992135 .645226 .515227
3 1 .822242 .043343 .446979
4 1 .217530 .008552 .527258
5 1 .007777 .595022 .515052
6 1 .512670 .449174 .986858
7 1 .498599 .470688 .014617
ITEM: TIMESTEP
350
ITEM: NUMBER OF ATOMS
7
ITEM: BOX BOUNDS ss ss ss
-2.9679 3.3209
-2.8762 3.2300
-1.9569 2.0566
ITEM: ATOMS id type xs ys zs
1 1 .483412 .990070 .525569
2 1 .992594 .644654 .514043
3 1 .823023 .042756 .446688
4 1 .218935 .007927 .525817
5 1 .008461 .594211 .515294
6 1 .513263 .448780 .986938
7 1 .498858 .469977 .014054
ITEM: TIMESTEP
400
ITEM: NUMBER OF ATOMS
7
ITEM: BOX BOUNDS ss ss ss
-2.9739 3.3249
-2.8853 3.2242
-1.9602 2.0567
ITEM: ATOMS id type xs ys zs
1 1 .483616 .990865 .526849
2 1 .991841 .646120 .513526
3 1 .823345 .044395 .447446
4 1 .220510 .009464 .525846
5 1 .009586 .595069 .515796
6 1 .513553 .450160 .987545
7 1 .499050 .470946 .014743
ITEM: TIMESTEP
1
ITEM: NUMBER OF ATOMS
7
ITEM: BOX BOUNDS ss ss ss
-2.9574 3.3259
-2.8649 3.2252
-1.9544 2.0672
ITEM: ATOMS id type xs ys zs
1 1 .482723 .991797 .522085
2 1 .991064 .645477 .510254
3 1 .820669 .041151 .446857
4 1 .216367 .004775 .522862
5 1 .008309 .593451 .512934
6 1 .511615 .448079 .982877
7 1 .499103 .470537 .011361
ITEM: TIMESTEP
50
ITEM: NUMBER OF ATOMS
7
ITEM: BOX BOUNDS ss ss ss
-2.9574 3.3259
-2.8649 3.2252
-1.9544 2.0672
ITEM: ATOMS id type xs ys zs
1 1 .482824 .991942 .521949
2 1 .991185 .645569 .511010
3 1 .820318 .041292 .446058
4 1 .216151 .004353 .524087
5 1 .008499 .593175 .512521
6 1 .511610 .448047 .982628
7 1 .499256 .470868 .010999
ITEM: TIMESTEP
100
ITEM: NUMBER OF ATOMS
7
ITEM: BOX BOUNDS ss ss ss
-2.9574 3.3259
-2.8823 3.2252
-1.9544 2.0672
ITEM: ATOMS id type xs ys zs
1 1 .482863 .992055 .521962
2 1 .991302 .646622 .511530
3 1 .820145 .043998 .445295
4 1 .216107 .007008 .524999
5 1 .008504 .594148 .512084
6 1 .511602 .449670 .982621
7 1 .499317 .472536 .010870
ITEM: TIMESTEP
150
ITEM: NUMBER OF ATOMS
7
ITEM: BOX BOUNDS ss ss ss
-2.9574 3.3259
-2.8888 3.2252
-1.9629 2.0672
ITEM: ATOMS id type xs ys zs
1 1 .482743 .992105 .523223
2 1 .991272 .646891 .512777
3 1 .820162 .044787 .445840
4 1 .216244 .008101 .526585
5 1 .008332 .594435 .512439
6 1 .511621 .450415 .982811
7 1 .499378 .473061 .013129
ITEM: TIMESTEP
200
ITEM: NUMBER OF ATOMS
7
ITEM: BOX BOUNDS ss ss ss
-2.9574 3.3259
-2.9002 3.2252
-1.9611 2.0672
ITEM: ATOMS id type xs ys zs
1 1 .482319 .991931 .523610
2 1 .991085 .647410 .512276
3 1 .820178 .046207 .445161
4 1 .216643 .010033 .526671
5 1 .008030 .595062 .511590
6 1 .511597 .451595 .983263
7 1 .499530 .473848 .012833
ITEM: TIMESTEP
250
ITEM: NUMBER OF ATOMS
7
ITEM: BOX BOUNDS ss ss ss
-2.9603 3.3259
-2.8929 3.2285
-1.9593 2.0672
ITEM: ATOMS id type xs ys zs
1 1 .482234 .991121 .524018
2 1 .990947 .646532 .511675
3 1 .820356 .044717 .444582
4 1 .217366 .009427 .526455
5 1 .008320 .594669 .510379
6 1 .511864 .450831 .983589
7 1 .499766 .472594 .012547
ITEM: TIMESTEP
300
ITEM: NUMBER OF ATOMS
7
ITEM: BOX BOUNDS ss ss ss
-2.9629 3.3243
-2.8849 3.2271
-1.9588 2.0593
ITEM: ATOMS id type xs ys zs
1 1 .482442 .991267 .524863
2 1 .991051 .645860 .512134
3 1 .820913 .043092 .444564
4 1 .217815 .008719 .527682
5 1 .008559 .594730 .510275
6 1 .512349 .450353 .985524
7 1 .499734 .471374 .012800
ITEM: TIMESTEP
350
ITEM: NUMBER OF ATOMS
7
ITEM: BOX BOUNDS ss ss ss
-2.9610 3.3159
-2.8846 3.2269
-1.9730 2.0593
ITEM: ATOMS id type xs ys zs
1 1 .482778 .991510 .526243
2 1 .991989 .645424 .512944
3 1 .822325 .042590 .445580
4 1 .217865 .009043 .529376
5 1 .007952 .595280 .511405
6 1 .512757 .450458 .985490
7 1 .499586 .470763 .016832
ITEM: TIMESTEP
400
ITEM: NUMBER OF ATOMS
7
ITEM: BOX BOUNDS ss ss ss
-2.9592 3.3160
-2.8785 3.2261
-1.9690 2.0506
ITEM: ATOMS id type xs ys zs
1 1 .482536 .991838 .526524
2 1 .991872 .644921 .512912
3 1 .822551 .041359 .445624
4 1 .217721 .008358 .529443
5 1 .007195 .595253 .511597
6 1 .512460 .450145 .987491
7 1 .499054 .470218 .016440
ITEM: TIMESTEP
450
ITEM: NUMBER OF ATOMS
7
ITEM: BOX BOUNDS ss ss ss
-2.9666 3.3303
-2.8797 3.2255
-1.9783 2.0538
ITEM: ATOMS id type xs ys zs
1 1 .481974 .991846 .527331
2 1 .989620 .644893 .513398
3 1 .821031 .041495 .446319
4 1 .218322 .008968 .529959
5 1 .007910 .595421 .512101
6 1 .511856 .450608 .986744
7 1 .498342 .470404 .018718
ITEM: TIMESTEP
500
ITEM: NUMBER OF ATOMS
7
ITEM: BOX BOUNDS ss ss ss
-2.9705 3.3335
-2.8823 3.2241
-1.9626 2.0551
ITEM: ATOMS id type xs ys zs
1 1 .481888 .991724 .525687
2 1 .989042 .645128 .511691
3 1 .821028 .042164 .443474
4 1 .218976 .009687 .527953
5 1 .008048 .595332 .510710
6 1 .511894 .450920 .986978
7 1 .498119 .470954 .015178
ITEM: TIMESTEP
550
ITEM: NUMBER OF ATOMS
7
ITEM: BOX BOUNDS ss ss ss
-2.9845 3.3243
-2.8730 3.2277
-1.9665 2.0577
ITEM: ATOMS id type xs ys zs
1 1 .483614 .990709 .526162
2 1 .990571 .644029 .512700
3 1 .823157 .041123 .443566
4 1 .221483 .008041 .528035
5 1 .009737 .593786 .511818
6 1 .513548 .449608 .987139
7 1 .499599 .469943 .016788
ITEM: TIMESTEP
600
ITEM: NUMBER OF ATOMS
7
ITEM: BOX BOUNDS ss ss ss
-2.9771 3.3265
-2.8843 3.2322
-1.9632 2.0684
ITEM: ATOMS id type xs ys zs
1 1 .482641 .989839 .525020
2 1 .990236 .644186 .511792
3 1 .823038 .043194 .441779
4 1 .221147 .009715 .526265
5 1 .008072 .593699 .510739
6 1 .512581 .450279 .985005
7 1 .498540 .470727 .016616
ITEM: TIMESTEP
650
ITEM: NUMBER OF ATOMS
7
ITEM: BOX BOUNDS ss ss ss
-2.9785 3.3225
-2.8839 3.2305
-1.9695 2.0666
ITEM: ATOMS id type xs ys zs
1 1 .482924 .990082 .526975
2 1 .990834 .644482 .513349
3 1 .823833 .043483 .442819
4 1 .221988 .009456 .527295
5 1 .007909 .593601 .512013
6 1 .512826 .450454 .985880
7 1 .498704 .470950 .018794
ITEM: TIMESTEP
700
ITEM: NUMBER OF ATOMS
7
ITEM: BOX BOUNDS ss ss ss
-2.9829 3.3203
-2.8773 3.2381
-1.9567 2.0658
ITEM: ATOMS id type xs ys zs
1 1 .482925 .989059 .527029
2 1 .991259 .643509 .511971
3 1 .824391 .042743 .441098
4 1 .222968 .008172 .525220
5 1 .008333 .591947 .510983
6 1 .513309 .449308 .986285
7 1 .499186 .470335 .016330
ITEM: TIMESTEP
1
ITEM: NUMBER OF ATOMS
7
ITEM: BOX BOUNDS ss ss ss
-2.9794 3.3251
-2.8809 3.2354
-1.9419 2.0763
ITEM: ATOMS id type xs ys zs
1 1 .484589 .990161 .519407
2 1 .991213 .645326 .507568
3 1 .821395 .043588 .444117
4 1 .219134 .007368 .520183
5 1 .011776 .593522 .510252
6 1 .513386 .448775 .980583
7 1 .500914 .471134 .008258
ITEM: TIMESTEP
50
ITEM: NUMBER OF ATOMS
7
ITEM: BOX BOUNDS ss ss ss
-2.9794 3.3251
-2.8809 3.2354
-1.9425 2.0763
ITEM: ATOMS id type xs ys zs
1 1 .484693 .990301 .519327
2 1 .991364 .645449 .508447
3 1 .821037 .043719 .443313
4 1 .218910 .006912 .521572
5 1 .011981 .593209 .509916
6 1 .513373 .448759 .980323
7 1 .501085 .471510 .007992
ITEM: TIMESTEP
100
ITEM: NUMBER OF ATOMS
7
ITEM: BOX BOUNDS ss ss ss
-2.9794 3.3251
-2.8809 3.2354
-1.9490 2.0763
ITEM: ATOMS id type xs ys zs
1 1 .484749 .990436 .520124
2 1 .991485 .645527 .509794
3 1 .820782 .043723 .443403
4 1 .218852 .006681 .523394
5 1 .012066 .592961 .510213
6 1 .513378 .448818 .980255
7 1 .501208 .471765 .009351
ITEM: TIMESTEP
150
ITEM: NUMBER OF ATOMS
7
ITEM: BOX BOUNDS ss ss ss
-2.9794 3.3251
-2.8849 3.2292
-1.9629 2.0763
ITEM: ATOMS id type xs ys zs
1 1 .484719 .991421 .521935
2 1 .991634 .646374 .511854
3 1 .820683 .044358 .444578
4 1 .218966 .007329 .525852
5 1 .012058 .593697 .511249
6 1 .513364 .449719 .980360
7 1 .501306 .472669 .012720
ITEM: TIMESTEP
200
ITEM: NUMBER OF ATOMS
7
ITEM: BOX BOUNDS ss ss ss
-2.9794 3.3251
-2.8938 3.2291
-1.9631 2.0763
ITEM: ATOMS id type xs ys zs
1 1 .484613 .991261 .522144
2 1 .991802 .646716 .512045
3 1 .820835 .045627 .444094
4 1 .219223 .009011 .526596
5 1 .011886 .594304 .510474
6 1 .513366 .450774 .980352
7 1 .501252 .473343 .012616
ITEM: TIMESTEP
250
ITEM: NUMBER OF ATOMS
7
ITEM: BOX BOUNDS ss ss ss
-2.9794 3.3251
-2.8969 3.2271
-1.9684 2.0763
ITEM: ATOMS id type xs ys zs
1 1 .484007 .991440 .523315
2 1 .991952 .646991 .512725
3 1 .821114 .045820 .444698
4 1 .219619 .010048 .527185
5 1 .011209 .594667 .510056
6 1 .513568 .451505 .979924
7 1 .501081 .473569 .014106
ITEM: TIMESTEP
300
ITEM: NUMBER OF ATOMS
7
ITEM: BOX BOUNDS ss ss ss
-2.9794 3.3251
-2.8845 3.2231
-1.9634 2.0576
ITEM: ATOMS id type xs ys zs
1 1 .481886 .991349 .527585
2 1 .991581 .645578 .514013
3 1 .822232 .043973 .447242
4 1 .221148 .009534 .525133
5 1 .010025 .593843 .510023
6 1 .513828 .450851 .984379
7 1 .501061 .472488 .012847
ITEM: TIMESTEP
350
ITEM: NUMBER OF ATOMS
7
ITEM: BOX BOUNDS ss ss ss
-2.9794 3.3251
-2.8769 3.2206
-1.9598 2.0576
ITEM: ATOMS id type xs ys zs
1 1 .480156 .990522 .528587
2 1 .990815 .644609 .511298
3 1 .823115 .042957 .447496
4 1 .222307 .009544 .520348
5 1 .009303 .593000 .508569
6 1 .513685 .449812 .985302
7 1 .501232 .472342 .010904
ITEM: TIMESTEP
400
ITEM: NUMBER OF ATOMS
7
ITEM: BOX BOUNDS ss ss ss
-2.9794 3.3251
-2.8769 3.2142
-1.9610 2.0576
ITEM: ATOMS id type xs ys zs
1 1 .480194 .991299 .528717
2 1 .990736 .645225 .510281
3 1 .822998 .042915 .446383
4 1 .222316 .009718 .520234
5 1 .009108 .593592 .507916
6 1 .513556 .450126 .985973
7 1 .501280 .473075 .010909
ITEM: TIMESTEP
1
ITEM: NUMBER OF ATOMS
7
ITEM: BOX BOUNDS ss ss ss
-2.9794 3.3251
-2.8769 3.2141
-1.9602 2.0576
ITEM: ATOMS id type xs ys zs
1 1 .484587 .993629 .524026
2 1 .991218 .647361 .512187
3 1 .821392 .043121 .448718
4 1 .219131 .006749 .524803
5 1 .011772 .595339 .514861
6 1 .513385 .449990 .985246
7 1 .500913 .472447 .012819
ITEM: TIMESTEP
50
ITEM: NUMBER OF ATOMS
7
ITEM: BOX BOUNDS ss ss ss
-2.9794 3.3251
-2.8769 3.2141
-1.9602 2.0576
ITEM: ATOMS id type xs ys zs
1 1 .484693 .993772 .523842
2 1 .991360 .647505 .513007
3 1 .820993 .043255 .447801
4 1 .218880 .006256 .526182
5 1 .012002 .595007 .514439
6 1 .513376 .449966 .984984
7 1 .501077 .472843 .012413
ITEM: TIMESTEP
100
ITEM: NUMBER OF ATOMS
7
ITEM: BOX BOUNDS ss ss ss
-2.9794 3.3251
-2.8873 3.2152
-1.9602 2.0576
ITEM: ATOMS id type xs ys zs
1 1 .484695 .993736 .523786
2 1 .991502 .648046 .513664
3 1 .820765 .044869 .446931
4 1 .218844 .007726 .527225
5 1 .012084 .595364 .513966
6 1 .513370 .450837 .984918
7 1 .501211 .473835 .012174
ITEM: TIMESTEP
150
ITEM: NUMBER OF ATOMS
7
ITEM: BOX BOUNDS ss ss ss
-2.9794 3.3251
-2.8881 3.2256
-1.9682 2.0576
ITEM: ATOMS id type xs ys zs
1 1 .484694 .992112 .524899
2 1 .991557 .646947 .515109
3 1 .820768 .044759 .447138
4 1 .218957 .007853 .529054
5 1 .012009 .594265 .514504
6 1 .513414 .450266 .985031
7 1 .501199 .473083 .014187
ITEM: TIMESTEP
200
ITEM: NUMBER OF ATOMS
7
ITEM: BOX BOUNDS ss ss ss
-2.9794 3.3251
-2.8947 3.2205
-1.9674 2.0576
ITEM: ATOMS id type xs ys zs
1 1 .484598 .992962 .524879
2 1 .991390 .647777 .515068
3 1 .820795 .045251 .446564
4 1 .219007 .008963 .529782
5 1 .011742 .595111 .514338
6 1 .513451 .451356 .985504
7 1 .501140 .473756 .014769
ITEM: TIMESTEP
250
ITEM: NUMBER OF ATOMS
7
ITEM: BOX BOUNDS ss ss ss
-2.9794 3.3251
-2.8920 3.2317
-1.9694 2.0675
ITEM: ATOMS id type xs ys zs
1 1 .484459 .991057 .523801
2 1 .991099 .646107 .514224
3 1 .820885 .044107 .445406
4 1 .218813 .008857 .529022
5 1 .011340 .593840 .513234
6 1 .513488 .450291 .983924
7 1 .500997 .472288 .016158
ITEM: TIMESTEP
300
ITEM: NUMBER OF ATOMS
7
ITEM: BOX BOUNDS ss ss ss
-2.9794 3.3251
-2.8923 3.2233
-1.9628 2.0700
ITEM: ATOMS id type xs ys zs
1 1 .484449 .992319 .522309
2 1 .990844 .646595 .513004
3 1 .820996 .043780 .443994
4 1 .218428 .009951 .527248
5 1 .011021 .594903 .511997
6 1 .513661 .450685 .983649
7 1 .500717 .472441 .015117
ITEM: TIMESTEP
350
ITEM: NUMBER OF ATOMS
7
ITEM: BOX BOUNDS ss ss ss
-2.9794 3.3251
-2.8812 3.2286
-1.9619 2.0645
ITEM: ATOMS id type xs ys zs
1 1 .484672 .991800 .522094
2 1 .991009 .645059 .512881
3 1 .821045 .041636 .444303
4 1 .218384 .008940 .526742
5 1 .010901 .593939 .511412
6 1 .513661 .449749 .984244
7 1 .500588 .470819 .014914
ITEM: TIMESTEP
400
ITEM: NUMBER OF ATOMS
7
ITEM: BOX BOUNDS ss ss ss
-2.9794 3.3251
-2.8897 3.2274
-1.9675 2.0707
ITEM: ATOMS id type xs ys zs
1 1 .485226 .992316 .521896
2 1 .991323 .645635 .512374
3 1 .821089 .042981 .444449
4 1 .219025 .010540 .526084
5 1 .010761 .595263 .509351
6 1 .513484 .451376 .982033
7 1 .500725 .471708 .015877
ITEM: TIMESTEP
450
ITEM: NUMBER OF ATOMS
7
ITEM: BOX BOUNDS ss ss ss
-2.9794 3.3251
-2.8961 3.2348
-1.9691 2.0599
ITEM: ATOMS id type xs ys zs
1 1 .485660 .991222 .524449
2 1 .991552 .645306 .514104
3 1 .821305 .044479 .446012
4 1 .219950 .011474 .528059
5 1 .010551 .595401 .509183
6 1 .513096 .451967 .984658
7 1 .500923 .472019 .016084
ITEM: TIMESTEP
500
ITEM: NUMBER OF ATOMS
7
ITEM: BOX BOUNDS ss ss ss
-2.9794 3.3224
-2.8795 3.2321
-1.9571 2.0576
ITEM: ATOMS id type xs ys zs
1 1 .486093 .991474 .524080