ITEM: TIMESTEP
1
ITEM: NUMBER OF ATOMS
7
ITEM: BOX BOUNDS ss ss ss
-2.9140 3.2495
-2.6767 3.2180
-1.9888 1.9542
ITEM: ATOMS id type xs ys zs
1 1 .490933 .999675 .576613
2 1 .999288 .629758 .555382
3 1 .814202 .015388 .483496
4 1 .192495 .000411 .443648
5 1 .000915 .618853 .477463
6 1 .485081 .433597 .998272
7 1 .524132 .466458 .001333
ITEM: TIMESTEP
50
ITEM: NUMBER OF ATOMS
7
ITEM: BOX BOUNDS ss ss ss
-2.9347 3.2697
-2.6982 3.2469
-2.0149 1.9794
ITEM: ATOMS id type xs ys zs
1 1 .491173 .995994 .574850
2 1 .995576 .629273 .556174
3 1 .813058 .018657 .484057
4 1 .195995 .006562 .445358
5 1 .003614 .616834 .480668
6 1 .485678 .433676 .992905
7 1 .523350 .466362 .007374
ITEM: TIMESTEP
100
ITEM: NUMBER OF ATOMS
7
ITEM: BOX BOUNDS ss ss ss
-2.9442 3.2765
-2.7019 3.2543
-2.0209 1.9865
ITEM: ATOMS id type xs ys zs
1 1 .494068 .994939 .574333
2 1 .994628 .629163 .553870
3 1 .816601 .014917 .480341
4 1 .194058 .004153 .444765
5 1 .007109 .618330 .476850
6 1 .485833 .433035 .991666
7 1 .521063 .467463 .010634
ITEM: TIMESTEP
150
ITEM: NUMBER OF ATOMS
7
ITEM: BOX BOUNDS ss ss ss
-2.9437 3.2811
-2.7058 3.2626
-2.0195 1.9938
ITEM: ATOMS id type xs ys zs
1 1 .491916 .994522 .573494
2 1 .993627 .626608 .552239
3 1 .810655 .019875 .487692
4 1 .196054 .008161 .443094
5 1 .005823 .614036 .474631
6 1 .483103 .431235 .986981
7 1 .519089 .465186 .008466
ITEM: TIMESTEP
200
ITEM: NUMBER OF ATOMS
7
ITEM: BOX BOUNDS ss ss ss
-2.9480 3.2814
-2.7043 3.2682
-2.0151 1.9987
ITEM: ATOMS id type xs ys zs
1 1 .497873 .994649 .572949
2 1 .993792 .626486 .549069
3 1 .810907 .017565 .485668
4 1 .199541 .009606 .444207
5 1 .008194 .616229 .469354
6 1 .483773 .431647 .986326
7 1 .519114 .468330 .010526
ITEM: TIMESTEP
250
ITEM: NUMBER OF ATOMS
7
ITEM: BOX BOUNDS ss ss ss
-2.9527 3.2877
-2.7052 3.2734
-2.0146 1.9995
ITEM: ATOMS id type xs ys zs
1 1 .498376 .989702 .566725
2 1 .993360 .628846 .552147
3 1 .809554 .015856 .486944
4 1 .198900 .009696 .441644
5 1 .006328 .616167 .478749
6 1 .485257 .426246 .987641
7 1 .518740 .471178 .011021
ITEM: TIMESTEP
300
ITEM: NUMBER OF ATOMS
7
ITEM: BOX BOUNDS ss ss ss
-2.9617 3.2971
-2.7050 3.2704
-2.0071 2.0011
ITEM: ATOMS id type xs ys zs
1 1 .493813 .992718 .563047
2 1 .989191 .627462 .550524
3 1 .809435 .013618 .484406
4 1 .201941 .010610 .437244
5 1 .009341 .611454 .472669
6 1 .484185 .428528 .989492
7 1 .520543 .472190 .008935
ITEM: TIMESTEP
350
ITEM: NUMBER OF ATOMS
7
ITEM: BOX BOUNDS ss ss ss
-2.9673 3.2855
-2.7053 3.2741
-2.0005 2.0006
ITEM: ATOMS id type xs ys zs
1 1 .494298 .991146 .566085
2 1 .990197 .628181 .550708
3 1 .809421 .014307 .483577
4 1 .203332 .011826 .436302
5 1 .011332 .612144 .469412
6 1 .485601 .428758 .991476
7 1 .521839 .472922 .005391
ITEM: TIMESTEP
400
ITEM: NUMBER OF ATOMS
7
ITEM: BOX BOUNDS ss ss ss
-2.9675 3.2889
-2.7164 3.2770
-1.9999 2.0104
ITEM: ATOMS id type xs ys zs
1 1 .491256 .990400 .567756
2 1 .990309 .626469 .551359
3 1 .812574 .018259 .481370
4 1 .199764 .011383 .438218
5 1 .001875 .616439 .467909
6 1 .481994 .430707 .984243
7 1 .515097 .468932 .017767
ITEM: TIMESTEP
1
ITEM: NUMBER OF ATOMS
7
ITEM: BOX BOUNDS ss ss ss
-2.9559 3.2698
-2.6927 3.2537
-1.9889 1.9775
ITEM: ATOMS id type xs ys zs
1 1 .492927 .993274 .573037
2 1 .996051 .626567 .551267
3 1 .813387 .017760 .480917
4 1 .197240 .003296 .440946
5 1 .007405 .616356 .475224
6 1 .486985 .432480 .993157
7 1 .525168 .465255 .001233
ITEM: TIMESTEP
50
ITEM: NUMBER OF ATOMS
7
ITEM: BOX BOUNDS ss ss ss
-2.9559 3.2727
-2.7022 3.2537
-2.0145 1.9775
ITEM: ATOMS id type xs ys zs
1 1 .491910 .991715 .575998
2 1 .995029 .627734 .554806
3 1 .813180 .019010 .485005
4 1 .197298 .004743 .444985
5 1 .008082 .617918 .476844
6 1 .487433 .432934 .994695
7 1 .524202 .463844 .005999
ITEM: TIMESTEP
100
ITEM: NUMBER OF ATOMS
7
ITEM: BOX BOUNDS ss ss ss
-2.9559 3.2827
-2.6987 3.2537
-2.0240 1.9811
ITEM: ATOMS id type xs ys zs
1 1 .490277 .993982 .580287
2 1 .992569 .629460 .555913
3 1 .813391 .019039 .489103
4 1 .196058 .005083 .451431
5 1 .006270 .615730 .476283
6 1 .484266 .428429 .991129
7 1 .521169 .465768 .007142
ITEM: TIMESTEP
150
ITEM: NUMBER OF ATOMS
7
ITEM: BOX BOUNDS ss ss ss
-2.9559 3.2833
-2.7069 3.2678
-2.0272 1.9961
ITEM: ATOMS id type xs ys zs
1 1 .490627 .993613 .572351
2 1 .991833 .628013 .556519
3 1 .812304 .015518 .486888
4 1 .197427 .007633 .446786
5 1 .011586 .614737 .477726
6 1 .486767 .426892 .986936
7 1 .518655 .468373 .005428
ITEM: TIMESTEP
200
ITEM: NUMBER OF ATOMS
7
ITEM: BOX BOUNDS ss ss ss
-2.9559 3.2849
-2.7071 3.2748
-2.0303 1.9908
ITEM: ATOMS id type xs ys zs
1 1 .493599 .994274 .568009
2 1 .992117 .623926 .552704
3 1 .810662 .017609 .479071
4 1 .197731 .005939 .444324
5 1 .010062 .613561 .471387
6 1 .485574 .432214 .986135
7 1 .519126 .466267 .016430
ITEM: TIMESTEP
250
ITEM: NUMBER OF ATOMS
7
ITEM: BOX BOUNDS ss ss ss
-2.9559 3.2853
-2.7064 3.2821
-2.0331 1.9991
ITEM: ATOMS id type xs ys zs
1 1 .497863 .993683 .576685
2 1 .989696 .627279 .549463
3 1 .812422 .018067 .481744
4 1 .201808 .006371 .449404
5 1 .006282 .613874 .466318
6 1 .487238 .427487 .984475
7 1 .516593 .466630 .013451
ITEM: TIMESTEP
300
ITEM: NUMBER OF ATOMS
7
ITEM: BOX BOUNDS ss ss ss
-2.9559 3.2859
-2.7143 3.2814
-2.0195 1.9964
ITEM: ATOMS id type xs ys zs
1 1 .496249 .991655 .567033
2 1 .996326 .624477 .545891
3 1 .808481 .018004 .477112
4 1 .196554 .010206 .437092
5 1 .010254 .613291 .467063
6 1 .484825 .430931 .985033
7 1 .518463 .471810 .015785
ITEM: TIMESTEP
350
ITEM: NUMBER OF ATOMS
7
ITEM: BOX BOUNDS ss ss ss
-2.9559 3.2900
-2.7168 3.2873
-2.0141 1.9973
ITEM: ATOMS id type xs ys zs
1 1 .494094 .992868 .560658
2 1 .993295 .626554 .554057
3 1 .814517 .016240 .479709
4 1 .200736 .007888 .438738
5 1 .010291 .612701 .475994
6 1 .485029 .423903 .982065
7 1 .516576 .472602 .014562
ITEM: TIMESTEP
400
ITEM: NUMBER OF ATOMS
7
ITEM: BOX BOUNDS ss ss ss
-2.9559 3.2887
-2.7173 3.2872
-2.0105 1.9965
ITEM: ATOMS id type xs ys zs
1 1 .491513 .991433 .565218
2 1 .996877 .627233 .556821
3 1 .809603 .019166 .478338
4 1 .199054 .011604 .443415
5 1 .007242 .611797 .458893
6 1 .487216 .429178 .988731
7 1 .519865 .474240 .012247
ITEM: TIMESTEP
1
ITEM: NUMBER OF ATOMS
7
ITEM: BOX BOUNDS ss ss ss
-2.9559 3.2698
-2.6956 3.2596
-1.9884 1.9815
ITEM: ATOMS id type xs ys zs
1 1 .492915 .992386 .572216
2 1 .995806 .626331 .550940
3 1 .813033 .018161 .480081
4 1 .197125 .003697 .440407
5 1 .007616 .615893 .474544
6 1 .487180 .432403 .992351
7 1 .525153 .465011 .001014
ITEM: TIMESTEP
50
ITEM: NUMBER OF ATOMS
7
ITEM: BOX BOUNDS ss ss ss
-2.9559 3.2711
-2.7015 3.2596
-2.0206 1.9815
ITEM: ATOMS id type xs ys zs
1 1 .492629 .993920 .577100
2 1 .994452 .626640 .553838
3 1 .813683 .019342 .487390
4 1 .196243 .003853 .445916
5 1 .008297 .616592 .479050
6 1 .486120 .433195 .993010
7 1 .522692 .468582 .008784
ITEM: TIMESTEP
100
ITEM: NUMBER OF ATOMS
7
ITEM: BOX BOUNDS ss ss ss
-2.9559 3.2858
-2.7025 3.2596
-2.0227 1.9938
ITEM: ATOMS id type xs ys zs
1 1 .490930 .994939 .579717
2 1 .989608 .625062 .551755
3 1 .811895 .019133 .485344
4 1 .193163 .004564 .446428
5 1 .008265 .616491 .476283
6 1 .484847 .432875 .987354
7 1 .521980 .469437 .009668
ITEM: TIMESTEP
150
ITEM: NUMBER OF ATOMS
7
ITEM: BOX BOUNDS ss ss ss
-2.9559 3.2905
-2.7040 3.2596
-2.0247 2.0029
ITEM: ATOMS id type xs ys zs
1 1 .490363 .992145 .576948
2 1 .996006 .627216 .554121
3 1 .807119 .015686 .477558
4 1 .199184 .006329 .446607
5 1 .006551 .614600 .469679
6 1 .486339 .428983 .984369
7 1 .520129 .470161 .018105
ITEM: TIMESTEP
200
ITEM: NUMBER OF ATOMS
7
ITEM: BOX BOUNDS ss ss ss
-2.9559 3.2963
-2.7032 3.2596
-2.0199 1.9916
ITEM: ATOMS id type xs ys zs
1 1 .490971 .989978 .580852
2 1 .995861 .627572 .553824
3 1 .808562 .013956 .477720
4 1 .201057 .005789 .445846
5 1 .007989 .615610 .469745
6 1 .485379 .430138 .985599
7 1 .519344 .471606 .016613
ITEM: TIMESTEP
250
ITEM: NUMBER OF ATOMS
7
ITEM: BOX BOUNDS ss ss ss
-2.9559 3.2896
-2.7015 3.2596
-2.0192 1.9921
ITEM: ATOMS id type xs ys zs
1 1 .489781 .992140 .567464
2 1 .989878 .629102 .549984
3 1 .812559 .015598 .481182
4 1 .199041 .007176 .442652
5 1 .005854 .609720 .472580
6 1 .488342 .429032 .988377
7 1 .517853 .466140 .009217
ITEM: TIMESTEP
300
ITEM: NUMBER OF ATOMS
7
ITEM: BOX BOUNDS ss ss ss
-2.9559 3.2923
-2.7033 3.2636
-2.0302 2.0004
ITEM: ATOMS id type xs ys zs
1 1 .487930 .990488 .568365
2 1 .988240 .627606 .548331
3 1 .811811 .016452 .482977
4 1 .199136 .005602 .443261
5 1 .005658 .609132 .470133
6 1 .487748 .426429 .984721
7 1 .518107 .464877 .013348
ITEM: TIMESTEP
350
ITEM: NUMBER OF ATOMS
7
ITEM: BOX BOUNDS ss ss ss
-2.9559 3.2941
-2.7059 3.2732
-2.0145 1.9999
ITEM: ATOMS id type xs ys zs
1 1 .496918 .994399 .575020
2 1 .991692 .623938 .551880
3 1 .813099 .012780 .483992
4 1 .201514 .001770 .445540
5 1 .008081 .617974 .461551
6 1 .485207 .427521 .986389
7 1 .515032 .470727 .017402
ITEM: TIMESTEP
400
ITEM: NUMBER OF ATOMS
7
ITEM: BOX BOUNDS ss ss ss
-2.9585 3.2963
-2.7072 3.2777
-2.0089 2.0104
ITEM: ATOMS id type xs ys zs
1 1 .498707 .993754 .572761
2 1 .989776 .624942 .550884
3 1 .813299 .013368 .484664
4 1 .200343 .002017 .444806
5 1 .007070 .616953 .460489
6 1 .485279 .425482 .987041
7 1 .516970 .472475 .016166
ITEM: TIMESTEP
1
ITEM: NUMBER OF ATOMS
7
ITEM: BOX BOUNDS ss ss ss
-2.9441 3.2761
-2.6959 3.2644
-1.9905 1.9794
ITEM: ATOMS id type xs ys zs
1 1 .491349 .991535 .572950
2 1 .995129 .625837 .551761
3 1 .811950 .018347 .480939
4 1 .195429 .003577 .441140
5 1 .005663 .615613 .475343
6 1 .485569 .431662 .993017
7 1 .523845 .464511 .001223
ITEM: TIMESTEP
50
ITEM: NUMBER OF ATOMS
7
ITEM: BOX BOUNDS ss ss ss
-2.9441 3.2761
-2.6994 3.2644
-2.0147 1.9794
ITEM: ATOMS id type xs ys zs
1 1 .489595 .991094 .574463
2 1 .993109 .626432 .555840
3 1 .811111 .017599 .487500
4 1 .194664 .006983 .444978
5 1 .006352 .615059 .476614
6 1 .486405 .433619 .994635
7 1 .521486 .464912 .007542
ITEM: TIMESTEP
100
ITEM: NUMBER OF ATOMS
7
ITEM: BOX BOUNDS ss ss ss
-2.9441 3.2811
-2.7046 3.2644
-2.0243 1.9867
ITEM: ATOMS id type xs ys zs
1 1 .492118 .989875 .576281
2 1 .994541 .629251 .553495
3 1 .814295 .019255 .486521
4 1 .195901 .007947 .445463
5 1 .007150 .617415 .479037
6 1 .483215 .433100 .988787
7 1 .520058 .465206 .007513
ITEM: TIMESTEP
150
ITEM: NUMBER OF ATOMS
7
ITEM: BOX BOUNDS ss ss ss
-2.9441 3.2820
-2.7019 3.2644
-2.0211 1.9989
ITEM: ATOMS id type xs ys zs
1 1 .491462 .990552 .575751
2 1 .993422 .626339 .550504
3 1 .805737 .019999 .493489
4 1 .194202 .007285 .440680
5 1 .006895 .613455 .470835
6 1 .482669 .430447 .992751
7 1 .523071 .466170 .009101
ITEM: TIMESTEP
200
ITEM: NUMBER OF ATOMS
7
ITEM: BOX BOUNDS ss ss ss
-2.9441 3.2761
-2.7006 3.2680
-2.0219 2.0020
ITEM: ATOMS id type xs ys zs
1 1 .489450 .994703 .574215
2 1 .994746 .626041 .549665
3 1 .815183 .015204 .482946
4 1 .199240 .008019 .449557
5 1 .008551 .613210 .477255
6 1 .485224 .429731 .988771
7 1 .517602 .464455 .011414
ITEM: TIMESTEP
250
ITEM: NUMBER OF ATOMS
7
ITEM: BOX BOUNDS ss ss ss
-2.9482 3.2835
-2.7102 3.2740
-2.0187 1.9937
ITEM: ATOMS id type xs ys zs
1 1 .490747 .995055 .573099
2 1 .994117 .629025 .552949
3 1 .816409 .016111 .476157
4 1 .197879 .006877 .442761
5 1 .009439 .616615 .481644
6 1 .487990 .430795 .988369
7 1 .517755 .466207 .013214
ITEM: TIMESTEP
300
ITEM: NUMBER OF ATOMS
7
ITEM: BOX BOUNDS ss ss ss
-2.9517 3.2796
-2.7206 3.2784
-2.0246 1.9942
ITEM: ATOMS id type xs ys zs
1 1 .493742 .992600 .569516
2 1 .992421 .626699 .556805
3 1 .816634 .019397 .483987
4 1 .199083 .008220 .450980
5 1 .008059 .614508 .478276
6 1 .484213 .430351 .986553
7 1 .515029 .467127 .016859
ITEM: TIMESTEP
350
ITEM: NUMBER OF ATOMS
7
ITEM: BOX BOUNDS ss ss ss
-2.9590 3.2900
-2.7268 3.2703
-2.0119 1.9974
ITEM: ATOMS id type xs ys zs
1 1 .494014 .992863 .566184
2 1 .991431 .627706 .557150
3 1 .815834 .021517 .481765
4 1 .199837 .009551 .448187
5 1 .010581 .615341 .475791
6 1 .482918 .431082 .983281
7 1 .516074 .466194 .013640
ITEM: TIMESTEP
400
ITEM: NUMBER OF ATOMS
7
ITEM: BOX BOUNDS ss ss ss
-2.9635 3.2910
-2.7346 3.2804
-2.0079 1.9982
ITEM: ATOMS id type xs ys zs
1 1 .493193 .989744 .562835
2 1 .996087 .629701 .548217
3 1 .810950 .017535 .480795
4 1 .204412 .008731 .440215
5 1 .009781 .612188 .476603
6 1 .491438 .429288 .988736
7 1 .516953 .471659 .017297
ITEM: TIMESTEP
1
ITEM: NUMBER OF ATOMS
7
ITEM: BOX BOUNDS ss ss ss
-2.9437 3.2713
-2.6963 3.2573
-1.9885 1.9768
ITEM: ATOMS id type xs ys zs
1 1 .491870 .992575 .573332
2 1 .995928 .626566 .551575
3 1 .812639 .018604 .480736
4 1 .195759 .003853 .441155
5 1 .005135 .616249 .474846
6 1 .486091 .432368 .993417
7 1 .524202 .465160 .000678
ITEM: TIMESTEP
50
ITEM: NUMBER OF ATOMS
7
ITEM: BOX BOUNDS ss ss ss
-2.9437 3.2748
-2.7010 3.2573
-2.0165 1.9806
ITEM: ATOMS id type xs ys zs
1 1 .491099 .991293 .579028
2 1 .992942 .626292 .554935
3 1 .812142 .019191 .484249
4 1 .194325 .004248 .445885
5 1 .005004 .617956 .479263
6 1 .486704 .433934 .992236
7 1 .524029 .466743 .004844
ITEM: TIMESTEP
100
ITEM: NUMBER OF ATOMS
7
ITEM: BOX BOUNDS ss ss ss
-2.9442 3.2814
-2.7022 3.2573
-2.0301 1.9850
ITEM: ATOMS id type xs ys zs
1 1 .493018 .994967 .572650
2 1 .990276 .626060 .555637
3 1 .812381 .018212 .484004
4 1 .197472 .004535 .443073
5 1 .005172 .618359 .472884
6 1 .481451 .430090 .992587
7 1 .518315 .464281 .012780
ITEM: TIMESTEP
150
ITEM: NUMBER OF ATOMS
7
ITEM: BOX BOUNDS ss ss ss
-2.9471 3.2830
-2.7028 3.2637
-2.0210 1.9857
ITEM: ATOMS id type xs ys zs
1 1 .492997 .993361 .572398
2 1 .990160 .624767 .557722
3 1 .812533 .018821 .480644
4 1 .194003 .003817 .442224
5 1 .005345 .618176 .469943
6 1 .482464 .429905 .995206
7 1 .520950 .463086 .011556
ITEM: TIMESTEP
200
ITEM: NUMBER OF ATOMS
7
ITEM: BOX BOUNDS ss ss ss
-2.9461 3.2741
-2.7175 3.2581
-2.0231 1.9958
ITEM: ATOMS id type xs ys zs
1 1 .492230 .992854 .569896
2 1 .992998 .626865 .559831
3 1 .816502 .018546 .478762
4 1 .196786 .008465 .443664
5 1 .005959 .621249 .476410
6 1 .483975 .425235 .992012
7 1 .519961 .468260 .012673
ITEM: TIMESTEP
250
ITEM: NUMBER OF ATOMS
7
ITEM: BOX BOUNDS ss ss ss
-2.9465 3.2713
-2.7094 3.2662
-2.0340 2.0017
ITEM: ATOMS id type xs ys zs
1 1 .497720 .993563 .570205
2 1 .992701 .628892 .552684
3 1 .814414 .015651 .489669
4 1 .197399 .006933 .443353
5 1 .006087 .620421 .475777
6 1 .484146 .425568 .984048
7 1 .515770 .465020 .011993
ITEM: TIMESTEP
300
ITEM: NUMBER OF ATOMS
7
ITEM: BOX BOUNDS ss ss ss
-2.9531 3.2790
-2.7154 3.2652
-2.0188 1.9979
ITEM: ATOMS id type xs ys zs
1 1 .496228 .997473 .571474
2 1 .991139 .624668 .551108
3 1 .814992 .020554 .482279
4 1 .200056 .005097 .442131
5 1 .007289 .621494 .467317
6 1 .482596 .429040 .979875
7 1 .515949 .469545 .014353
ITEM: TIMESTEP
350
ITEM: NUMBER OF ATOMS
7
ITEM: BOX BOUNDS ss ss ss
-2.9504 3.2794
-2.7165 3.2677
-2.0263 1.9980
ITEM: ATOMS id type xs ys zs
1 1 .495359 .995352 .569645
2 1 .991231 .624600 .551475
3 1 .815707 .021276 .481770
4 1 .199016 .004803 .442682
5 1 .008474 .622149 .467608
6 1 .482454 .427955 .979425
7 1 .515719 .467399 .014501
ITEM: TIMESTEP
400
ITEM: NUMBER OF ATOMS
7
ITEM: BOX BOUNDS ss ss ss
-2.9518 3.2840
-2.7297 3.2676
-2.0288 1.9926
ITEM: ATOMS id type xs ys zs
1 1 .495028 .993692 .565697
2 1 .995606 .632927 .551078
3 1 .814138 .024885 .483108
4 1 .198938 .013400 .443128
5 1 .008332 .615357 .470172
6 1 .485758 .429462 .990230
7 1 .519346 .471004 .017197
ITEM: TIMESTEP
1
ITEM: NUMBER OF ATOMS
7
ITEM: BOX BOUNDS ss ss ss
-2.9437 3.2853
-2.7010 3.2573
-1.9952 1.9849
ITEM: ATOMS id type xs ys zs
1 1 .490682 .992738 .572755
2 1 .993457 .626837 .551021
3 1 .810610 .019341 .480680
4 1 .195171 .004683 .440975
5 1 .005152 .616598 .475290
6 1 .484673 .433008 .991164
7 1 .523365 .465496 .002717
ITEM: TIMESTEP
50
ITEM: NUMBER OF ATOMS
7
ITEM: BOX BOUNDS ss ss ss
-2.9437 3.2853
-2.7031 3.2573
-2.0190 1.9849
ITEM: ATOMS id type xs ys zs
1 1 .490318 .993575 .575740
2 1 .992700 .627959 .555749
3 1 .808602 .020779 .484812
4 1 .194840 .004581 .444509
5 1 .004125 .616318 .479421
6 1 .482366 .434666 .992522
7 1 .524345 .463673 .006253
ITEM: TIMESTEP
100
ITEM: NUMBER OF ATOMS
7
ITEM: BOX BOUNDS ss ss ss
-2.9437 3.2860
-2.7060 3.2573
-2.0341 1.9849
ITEM: ATOMS id type xs ys zs
1 1 .492760 .994296 .575838
2 1 .993941 .628052 .554475
3 1 .810814 .020599 .489024
4 1 .192763 .005483 .450161
5 1 .006819 .615117 .480428
6 1 .483611 .432147 .994081
7 1 .521509 .464690 .009228
ITEM: TIMESTEP
150
ITEM: NUMBER OF ATOMS
7
ITEM: BOX BOUNDS ss ss ss
-2.9437 3.2942
-2.7026 3.2613
-2.0310 1.9849
ITEM: ATOMS id type xs ys zs
1 1 .492091 .993254 .579323
2 1 .996747 .626723 .556418
3 1 .808680 .016192 .482497
4 1 .192266 .006732 .448807
5 1 .004925 .611034 .479595
6 1 .481646 .433762 .994053
7 1 .522722 .466336 .010752
ITEM: TIMESTEP
200
ITEM: NUMBER OF ATOMS
7
ITEM: BOX BOUNDS ss ss ss
-2.9437 3.2981
-2.7010 3.2635
-2.0245 1.9864
ITEM: ATOMS id type xs ys zs
1 1 .494565 .990213 .567065
2 1 .992273 .627600 .555922
3 1 .812949 .018890 .482454
4 1 .194104 .009802 .446265
5 1 .006167 .618423 .478012
6 1 .485183 .428823 .990537
7 1 .517572 .464855 .007012
ITEM: TIMESTEP
250
ITEM: NUMBER OF ATOMS
7
ITEM: BOX BOUNDS ss ss ss
-2.9437 3.2941
-2.7010 3.2654
-2.0208 2.0019
ITEM: ATOMS id type xs ys zs
1 1 .488477 .988861 .565609
2 1 .996649 .625390 .553163
3 1 .810464 .018451 .484409
4 1 .192431 .009772 .439383
5 1 .004461 .612855 .468665
6 1 .485142 .430052 .985303
7 1 .519615 .468016 .013567
ITEM: TIMESTEP
300
ITEM: NUMBER OF ATOMS
7
ITEM: BOX BOUNDS ss ss ss
-2.9458 3.2943
-2.7010 3.2684
-2.0286 1.9904
ITEM: ATOMS id type xs ys zs
1 1 .488642 .991951 .581265
2 1 .993515 .629884 .547500
3 1 .808561 .016141 .477871
4 1 .194851 .008857 .446197
5 1 .004351 .614957 .472816
6 1 .485729 .424147 .989819
7 1 .518295 .469023 .015448
ITEM: TIMESTEP
350
ITEM: NUMBER OF ATOMS
7
ITEM: BOX BOUNDS ss ss ss
-2.9573 3.3108
-2.7010 3.2682
-2.0219 1.9936
ITEM: ATOMS id type xs ys zs
1 1 .486753 .985545 .563263
2 1 .991389 .625275 .551474
3 1 .808929 .016539 .482765
4 1 .198696 .006407 .450459
5 1 .006091 .611079 .465495
6 1 .485605 .426479 .990108
7 1 .515987 .466703 .007015
ITEM: TIMESTEP
400
ITEM: NUMBER OF ATOMS
7
ITEM: BOX BOUNDS ss ss ss
-2.9584 3.3026
-2.7062 3.2645
-2.0208 1.9995
ITEM: ATOMS id type xs ys zs
1 1 .486522 .991640 .574853
2 1 .989021 .625754 .547196
3 1 .805562 .016885 .488655
4 1 .193192 .012832 .443490
5 1 .005568 .612335 .470644
6 1 .484404 .429637 .984308
7 1 .514955 .473706 .013397
ITEM: TIMESTEP
1
ITEM: NUMBER OF ATOMS
7
ITEM: BOX BOUNDS ss ss ss
-2.9528 3.2719
-2.6877 3.2526
-1.9902 1.9893
ITEM: ATOMS id type xs ys zs
1 1 .492597 .993332 .571630
2 1 .995530 .626712 .549877
3 1 .812801 .016980 .479619
4 1 .196576 .002387 .439970
5 1 .006831 .616345 .473817
6 1 .486837 .431914 .990182
7 1 .524954 .464858 .000826
ITEM: TIMESTEP
50
ITEM: NUMBER OF ATOMS
7
ITEM: BOX BOUNDS ss ss ss
-2.9528 3.2747
-2.7027 3.2526
-2.0185 1.9893
ITEM: ATOMS id type xs ys zs
1 1 .493225 .993413 .573844
2 1 .993723 .626451 .551986
3 1 .809569 .018807 .486038
4 1 .197934 .003959 .445477
5 1 .008151 .617387 .481894
6 1 .486941 .434525 .990963
7 1 .523324 .467018 .009789
ITEM: TIMESTEP
100
ITEM: NUMBER OF ATOMS
7
ITEM: BOX BOUNDS ss ss ss
-2.9528 3.2827
-2.7072 3.2578
-2.0316 1.9940
ITEM: ATOMS id type xs ys zs
1 1 .491509 .994002 .572222
2 1 .994731 .629126 .552549
3 1 .812908 .021689 .485055
4 1 .196137 .003008 .445841
5 1 .006947 .616329 .480184
6 1 .485879 .430951 .993189
7 1 .521946 .466312 .009849
ITEM: TIMESTEP
150
ITEM: NUMBER OF ATOMS
7
ITEM: BOX BOUNDS ss ss ss
-2.9528 3.2785
-2.7071 3.2579
-2.0377 2.0068
ITEM: ATOMS id type xs ys zs
1 1 .491348 .992954 .571547
2 1 .993539 .628254 .550160
3 1 .813327 .017752 .486906
4 1 .199071 .007233 .442660
5 1 .005269 .616350 .471795
6 1 .484764 .431320 .988856
7 1 .524088 .468280 .010472
ITEM: TIMESTEP
200
ITEM: NUMBER OF ATOMS
7
ITEM: BOX BOUNDS ss ss ss
-2.9528 3.2816
-2.7062 3.2580
-2.0338 2.0108
ITEM: ATOMS id type xs ys zs
1 1 .493033 .993101 .569450
2 1 .993528 .630121 .547784
3 1 .812816 .017221 .483357
4 1 .196404 .008297 .445601
5 1 .003308 .614201 .473845
6 1 .485437 .430846 .982145
7 1 .518968 .466963 .009833
ITEM: TIMESTEP
250
ITEM: NUMBER OF ATOMS
7
ITEM: BOX BOUNDS ss ss ss
-2.9528 3.2841
-2.7033 3.2682
-2.0257 2.0150
ITEM: ATOMS id type xs ys zs
1 1 .490385 .990770 .572677
2 1 .993294 .626986 .553199
3 1 .813598 .015970 .486689
4 1 .196873 .008237 .436602
5 1 .006040 .612050 .464344
6 1 .486417 .429033 .982836
7 1 .516248 .469358 .008368
ITEM: TIMESTEP
300
ITEM: NUMBER OF ATOMS
7
ITEM: BOX BOUNDS ss ss ss
-2.9636 3.2861
-2.7082 3.2679
-2.0254 2.0087
ITEM: ATOMS id type xs ys zs
1 1 .494702 .990264 .575432
2 1 .989595 .628519 .544739
3 1 .810797 .016258 .486616
4 1 .202218 .005908 .443339
5 1 .011630 .612565 .468535
6 1 .490450 .426838 .991208
7 1 .521532 .468570 .008019
ITEM: TIMESTEP
350
ITEM: NUMBER OF ATOMS
7
ITEM: BOX BOUNDS ss ss ss
-2.9641 3.2766
-2.7099 3.2747
-2.0294 2.0032
ITEM: ATOMS id type xs ys zs
1 1 .496643 .988622 .578678
2 1 .991165 .626666 .545347
3 1 .811567 .017647 .492914
4 1 .200544 .008365 .443867
5 1 .014897 .608986 .473789
6 1 .487950 .425331 .991530
7 1 .520967 .468684 .012090
ITEM: TIMESTEP
400
ITEM: NUMBER OF ATOMS
7
ITEM: BOX BOUNDS ss ss ss
-2.9633 3.2791
-2.7154 3.2722
-2.0261 1.9999
ITEM: ATOMS id type xs ys zs
1 1 .490934 .992879 .575114
2 1 .993258 .628286 .548581
3 1 .813994 .019483 .488620
4 1 .197759 .007893 .433127
5 1 .007185 .616242 .467978
6 1 .488399 .430257 .983242
7 1 .520219 .468974 .017721
ITEM: TIMESTEP
1
ITEM: NUMBER OF ATOMS
7
ITEM: BOX BOUNDS ss ss ss
-2.9528 3.2823
-2.6877 3.2593
-2.0027 1.9893
ITEM: ATOMS id type xs ys zs
1 1 .491678 .992507 .572535
2 1 .993616 .625860 .551319
3 1 .811445 .017172 .481273
4 1 .196333 .002659 .441701
5 1 .006919 .615200 .475386
6 1 .485650 .431810 .990212
7 1 .524080 .464182 .004147
ITEM: TIMESTEP
50
ITEM: NUMBER OF ATOMS
7
ITEM: BOX BOUNDS ss ss ss
-2.9528 3.2823
-2.7044 3.2593
-2.0191 1.9893
ITEM: ATOMS id type xs ys zs
1 1 .492561 .992944 .573651
2 1 .994926 .628571 .553496
3 1 .811503 .019923 .484004
4 1 .198133 .003359 .443868
5 1 .007294 .617285 .477296
6 1 .484686 .433416 .990545
7 1 .525337 .463572 .010056
ITEM: TIMESTEP
100
ITEM: NUMBER OF ATOMS
7
ITEM: BOX BOUNDS ss ss ss
-2.9576 3.2839
-2.7088 3.2593
-2.0257 1.9898
ITEM: ATOMS id type xs ys zs
1 1 .490336 .991513 .577470
2 1 .995674 .629247 .551884
3 1 .815769 .023535 .489198
4 1 .193385 .008968 .444416
5 1 .006512 .615341 .477003
6 1 .485109 .433322 .990789
7 1 .525874 .465327 .008465
ITEM: TIMESTEP
150
ITEM: NUMBER OF ATOMS
7
ITEM: BOX BOUNDS ss ss ss
-2.9528 3.2824
-2.7130 3.2630
-2.0274 1.9985
ITEM: ATOMS id type xs ys zs
1 1 .490932 .989113 .573311
2 1 .991170 .628511 .553091
3 1 .813546 .020118 .486977
4 1 .194678 .007914 .447862
5 1 .005091 .614357 .477638
6 1 .489153 .428632 .990572
7 1 .520581 .469210 .009039
ITEM: TIMESTEP
200
ITEM: NUMBER OF ATOMS
7
ITEM: BOX BOUNDS ss ss ss
-2.9528 3.3008
-2.6944 3.2593
-2.0324 1.9996
ITEM: ATOMS id type xs ys zs
1 1 .490578 .991971 .574554
2 1 .988114 .626095 .552206
3 1 .812002 .016408 .485966
4 1 .193757 .002923 .451144
5 1 .004987 .612398 .477844
6 1 .487905 .426514 .993133
7 1 .523014 .468398 .010952
ITEM: TIMESTEP
250
ITEM: NUMBER OF ATOMS
7
ITEM: BOX BOUNDS ss ss ss
-2.9528 3.3008
-2.7029 3.2683
-2.0258 2.0037
ITEM: ATOMS id type xs ys zs
1 1 .491374 .992058 .567313
2 1 .993326 .629148 .551324
3 1 .809293 .016943 .492907
4 1 .195077 .005794 .454287
5 1 .010439 .616934 .467848
6 1 .486404 .425563 .986699
7 1 .523234 .469454 .013762
ITEM: TIMESTEP
300
ITEM: NUMBER OF ATOMS
7
ITEM: BOX BOUNDS ss ss ss
-2.9528 3.3122
-2.6990 3.2759
-2.0184 2.0139
ITEM: ATOMS id type xs ys zs
1 1 .492524 .989655 .566351
2 1 .992712 .626773 .549630
3 1 .808063 .014187 .486559
4 1 .195684 .006204 .453621
5 1 .008196 .614741 .463460
6 1 .488627 .425321 .982301
7 1 .519736 .466163 .009375
ITEM: TIMESTEP
350
ITEM: NUMBER OF ATOMS
7
ITEM: BOX BOUNDS ss ss ss
-2.9494 3.2968
-2.7117 3.2795
-2.0128 2.0160
ITEM: ATOMS id type xs ys zs
1 1 .490165 .989056 .569802
2 1 .993236 .623106 .549000
3 1 .810576 .018427 .481342
4 1 .195005 .007913 .445044
5 1 .007569 .614140 .465353
6 1 .487080 .425808 .980358
7 1 .518168 .467273 .013409
ITEM: TIMESTEP
400
ITEM: NUMBER OF ATOMS
7
ITEM: BOX BOUNDS ss ss ss
-2.9481 3.2968
-2.7135 3.2824
-2.0058 2.0174
ITEM: ATOMS id type xs ys zs
1 1 .493927 .994087 .572068
2 1 .991769 .627116 .544374
3 1 .811176 .017583 .482556
4 1 .195664 .009356 .448000
5 1 .004357 .616023 .465071
6 1 .485335 .431135 .978935
7 1 .512917 .464200 .012556
ITEM: TIMESTEP
1
ITEM: NUMBER OF ATOMS
7
ITEM: BOX BOUNDS ss ss ss
-2.9381 3.2812
-2.6968 3.2569
-1.9887 1.9756
ITEM: ATOMS id type xs ys zs
1 1 .490780 .992722 .573815
2 1 .994254 .626790 .552146
3 1 .811046 .018732 .481000
4 1 .194414 .004102 .441468
5 1 .004450 .616430 .474532
6 1 .484481 .432367 .993420
7 1 .523053 .465051 .000593
ITEM: TIMESTEP
50
ITEM: NUMBER OF ATOMS
7
ITEM: BOX BOUNDS ss ss ss
-2.9381 3.2812
-2.7064 3.2569
-2.0184 1.9789
ITEM: ATOMS id type xs ys zs
1 1 .491915 .994304 .578134
2 1 .996619 .628881 .556458
3 1 .814214 .020430 .482261
4 1 .193257 .007161 .441446
5 1 .003786 .616898 .479085
6 1 .482964 .434096 .992220
7 1 .521903 .465679 .006379
ITEM: TIMESTEP
100
ITEM: NUMBER OF ATOMS
7
ITEM: BOX BOUNDS ss ss ss
-2.9467 3.2812
-2.7067 3.2569
-2.0289 1.9891
ITEM: ATOMS id type xs ys zs
1 1 .489609 .992627 .572605
2 1 .994493 .628242 .553293
3 1 .812204 .020691 .483243
4 1 .195875 .007203 .446222
5 1 .008171 .617337 .477423
6 1 .484092 .432694 .988978
7 1 .523550 .466356 .008156
ITEM: TIMESTEP
150
ITEM: NUMBER OF ATOMS
7
ITEM: BOX BOUNDS ss ss ss
-2.9488 3.2895
-2.7050 3.2628
-2.0379 1.9824
ITEM: ATOMS id type xs ys zs
1 1 .492785 .992005 .577774
2 1 .992516 .627406 .555269
3 1 .809540 .019614 .488305
4 1 .195287 .008176 .443278
5 1 .007356 .613180 .478342
6 1 .484493 .433724 .989346
7 1 .524179 .467044 .006900
ITEM: TIMESTEP
200
ITEM: NUMBER OF ATOMS
7
ITEM: BOX BOUNDS ss ss ss
-2.9480 3.2950
-2.7013 3.2646
-2.0394 1.9903
ITEM: ATOMS id type xs ys zs
1 1 .487465 .991938 .582367
2 1 .995040 .622617 .556609
3 1 .807102 .015779 .491137
4 1 .195633 .010730 .450224
5 1 .008230 .616009 .479199
6 1 .485429 .428134 .991152
7 1 .518627 .469477 .006113
ITEM: TIMESTEP
250
ITEM: NUMBER OF ATOMS
7
ITEM: BOX BOUNDS ss ss ss
-2.9554 3.2919
-2.7026 3.2642
-2.0398 1.9914
ITEM: ATOMS id type xs ys zs
1 1 .493128 .993643 .577571
2 1 .994348 .629365 .556149
3 1 .810368 .019993 .493013
4 1 .193558 .006421 .446549
5 1 .008623 .615284 .467451
6 1 .482179 .430628 .987837
7 1 .523845 .469560 .013474
ITEM: TIMESTEP
300
ITEM: NUMBER OF ATOMS
7
ITEM: BOX BOUNDS ss ss ss
-2.9612 3.3030
-2.7141 3.2569
-2.0343 2.0001
ITEM: ATOMS id type xs ys zs
1 1 .493472 .991471 .572217
2 1 .990332 .630588 .556022
3 1 .813261 .021361 .480886
4 1 .198825 .009804 .450154
5 1 .006913 .617480 .478316
6 1 .485432 .429984 .986373
7 1 .520589 .471631 .018019
ITEM: TIMESTEP
350
ITEM: NUMBER OF ATOMS
7
ITEM: BOX BOUNDS ss ss ss
-2.9481 3.2979
-2.7059 3.2632
-2.0249 2.0101
ITEM: ATOMS id type xs ys zs
1 1 .491919 .987496 .568778
2 1 .989876 .629487 .552520
3 1 .814701 .020469 .478036
4 1 .197121 .007947 .447215
5 1 .004650 .616715 .475298
6 1 .486019 .429750 .984022
7 1 .519849 .469969 .017502
ITEM: TIMESTEP
400
ITEM: NUMBER OF ATOMS
7
ITEM: BOX BOUNDS ss ss ss
-2.9534 3.2957
-2.7120 3.2713
-2.0283 2.0148
ITEM: ATOMS id type xs ys zs
1 1 .494349 .991980 .576482
2 1 .992126 .627698 .552176
3 1 .805677 .016901 .487997
4 1 .198984 .011056 .447934
5 1 .012398 .615626 .462809
6 1 .485117 .429304 .988536
7 1 .521766 .473075 .008989
ITEM: TIMESTEP
1
ITEM: NUMBER OF ATOMS
7
ITEM: BOX BOUNDS ss ss ss
-2.9434 3.2800
-2.6855 3.2608
-2.0107 1.9965
ITEM: ATOMS id type xs ys zs
1 1 .491161 .992428 .572681
2 1 .994614 .625446 .551513
3 1 .811698 .017329 .481229
4 1 .195267 .002028 .442353
5 1 .005285 .615074 .475559
6 1 .485120 .430889 .988425
7 1 .523598 .463946 .006117
ITEM: TIMESTEP
50
ITEM: NUMBER OF ATOMS
7
ITEM: BOX BOUNDS ss ss ss
-2.9434 3.2800
-2.7052 3.2608
-2.0184 1.9965
ITEM: ATOMS id type xs ys zs
1 1 .490527 .990725 .572282
2 1 .993990 .626602 .550437
3 1 .809524 .019468 .482212
4 1 .194445 .004312 .446248
5 1 .002111 .616136 .480369
6 1 .485803 .433705 .989646
7 1 .522958 .466313 .004866
ITEM: TIMESTEP
100
ITEM: NUMBER OF ATOMS
7
ITEM: BOX BOUNDS ss ss ss
-2.9434 3.2883
-2.7092 3.2608
-2.0277 1.9965
ITEM: ATOMS id type xs ys zs
1 1 .488934 .990818 .581281
2 1 .992463 .628600 .546625
3 1 .810813 .019114 .486852
4 1 .196302 .006775 .439347
5 1 .005491 .616524 .478164
6 1 .482639 .432482 .987592
7 1 .523227 .465894 .010500
ITEM: TIMESTEP
150
ITEM: NUMBER OF ATOMS
7
ITEM: BOX BOUNDS ss ss ss
-2.9434 3.2936
-2.7083 3.2608
-2.0289 1.9977
ITEM: ATOMS id type xs ys zs
1 1 .489199 .992326 .569353
2 1 .995832 .627275 .549825
3 1 .808747 .018599 .480830
4 1 .195079 .005830 .446517
5 1 .007884 .615779 .472118
6 1 .484101 .429436 .986382
7 1 .521167 .465635 .008011
ITEM: TIMESTEP
200
ITEM: NUMBER OF ATOMS
7
ITEM: BOX BOUNDS ss ss ss
-2.9434 3.2948
-2.7190 3.2693
-2.0405 2.0043
ITEM: ATOMS id type xs ys zs
1 1 .489558 .985188 .576324
2 1 .997445 .631566 .552170
3 1 .809942 .024481 .479089
4 1 .192912 .009003 .459784
5 1 .002188 .612543 .468550
6 1 .484697 .429714 .979620
7 1 .520394 .469213 .012375
ITEM: TIMESTEP
250
ITEM: NUMBER OF ATOMS
7
ITEM: BOX BOUNDS ss ss ss
-2.9434 3.3102
-2.7009 3.2608
-2.0369 2.0038
ITEM: ATOMS id type xs ys zs
1 1 .489996 .995496 .578033
2 1 .993188 .627101 .540926
3 1 .805358 .016157 .488562
4 1 .196538 .006432 .444300
5 1 .007253 .616035 .476264
6 1 .485300 .429771 .989310
7 1 .518177 .472859 .012042
ITEM: TIMESTEP
300
ITEM: NUMBER OF ATOMS
7
ITEM: BOX BOUNDS ss ss ss
-2.9470 3.3048
-2.6944 3.2608
-2.0210 2.0100
ITEM: ATOMS id type xs ys zs
1 1 .490009 .995241 .573805
2 1 .991539 .624169 .542722
3 1 .802081 .017341 .484503
4 1 .195734 .004990 .442939
5 1 .009749 .614936 .467758
6 1 .486087 .431212 .982960
7 1 .515688 .471769 .011538
ITEM: TIMESTEP
350
ITEM: NUMBER OF ATOMS
7
ITEM: BOX BOUNDS ss ss ss
-2.9434 3.3044
-2.6954 3.2608
-2.0240 2.0072
ITEM: ATOMS id type xs ys zs
1 1 .489803 .992819 .578335