ITEM: TIMESTEP
1
ITEM: NUMBER OF ATOMS
7
ITEM: BOX BOUNDS ss ss ss
-2.9140 3.2495
-2.6767 3.2180
-1.9888 1.9542
ITEM: ATOMS id type xs ys zs
1 1 .491177 .999389 .576510
2 1 .999188 .629579 .554873
3 1 .814536 .015452 .483548
4 1 .192429 .000579 .443693
5 1 .000575 .619058 .477770
6 1 .485163 .433432 .998955
7 1 .523893 .466474 .000999
ITEM: TIMESTEP
50
ITEM: NUMBER OF ATOMS
7
ITEM: BOX BOUNDS ss ss ss
-2.9347 3.2697
-2.6982 3.2469
-2.0149 1.9794
ITEM: ATOMS id type xs ys zs
1 1 .491390 .994807 .575784
2 1 .996128 .628050 .554322
3 1 .812556 .018627 .484252
4 1 .194592 .004493 .444687
5 1 .004026 .617170 .477926
6 1 .485056 .432936 .992788
7 1 .523300 .466273 .006990
ITEM: TIMESTEP
100
ITEM: NUMBER OF ATOMS
7
ITEM: BOX BOUNDS ss ss ss
-2.9442 3.2765
-2.7019 3.2543
-2.0209 1.9865
ITEM: ATOMS id type xs ys zs
1 1 .492568 .994258 .574539
2 1 .995138 .627766 .553578
3 1 .812236 .018613 .485197
4 1 .196403 .006326 .445053
5 1 .005816 .615818 .477412
6 1 .484324 .431691 .990576
7 1 .521749 .467427 .009274
ITEM: TIMESTEP
150
ITEM: NUMBER OF ATOMS
7
ITEM: BOX BOUNDS ss ss ss
-2.9437 3.2811
-2.7058 3.2626
-2.0195 1.9938
ITEM: ATOMS id type xs ys zs
1 1 .493296 .993305 .572566
2 1 .994490 .627238 .552095
3 1 .811703 .019144 .484620
4 1 .196706 .007449 .444441
5 1 .006297 .615289 .475646
6 1 .483821 .430868 .988931
7 1 .519412 .468184 .009860
ITEM: TIMESTEP
200
ITEM: NUMBER OF ATOMS
7
ITEM: BOX BOUNDS ss ss ss
-2.9480 3.2814
-2.7043 3.2682
-2.0151 1.9987
ITEM: ATOMS id type xs ys zs
1 1 .494727 .992387 .571197
2 1 .994619 .626490 .551389
3 1 .811549 .018245 .484189
4 1 .197159 .007815 .443320
5 1 .006987 .615471 .473747
6 1 .484968 .429555 .988172
7 1 .518141 .468855 .010861
ITEM: TIMESTEP
250
ITEM: NUMBER OF ATOMS
7
ITEM: BOX BOUNDS ss ss ss
-2.9527 3.2877
-2.7052 3.2734
-2.0146 1.9995
ITEM: ATOMS id type xs ys zs
1 1 .494540 .991804 .570508
2 1 .993311 .625851 .551214
3 1 .811258 .017450 .484941
4 1 .197729 .008020 .443386
5 1 .006864 .614738 .473180
6 1 .484871 .428704 .987865
7 1 .517101 .468959 .013378
ITEM: TIMESTEP
300
ITEM: NUMBER OF ATOMS
7
ITEM: BOX BOUNDS ss ss ss
-2.9617 3.2971
-2.7050 3.2704
-2.0071 2.0011
ITEM: ATOMS id type xs ys zs
1 1 .494293 .992732 .568504
2 1 .991374 .626148 .549985
3 1 .810993 .016757 .484500
4 1 .199154 .007483 .442483
5 1 .007491 .614665 .471635
6 1 .484638 .428768 .987341
7 1 .516270 .469443 .013662
ITEM: TIMESTEP
350
ITEM: NUMBER OF ATOMS
7
ITEM: BOX BOUNDS ss ss ss
-2.9673 3.2855
-2.7053 3.2741
-2.0005 2.0006
ITEM: ATOMS id type xs ys zs
1 1 .495485 .992414 .566951
2 1 .993035 .625822 .549129
3 1 .813030 .016485 .484081
4 1 .200722 .007330 .441687
5 1 .007847 .614212 .470602
6 1 .485951 .428523 .987606
7 1 .517278 .469609 .013108
ITEM: TIMESTEP
400
ITEM: NUMBER OF ATOMS
7
ITEM: BOX BOUNDS ss ss ss
-2.9675 3.2889
-2.7164 3.2770
-1.9999 2.0104
ITEM: ATOMS id type xs ys zs
1 1 .494992 .992206 .564725
2 1 .992381 .626208 .547643
3 1 .812866 .018157 .483297
4 1 .201059 .009171 .440356
5 1 .007366 .614491 .469375
6 1 .485733 .429574 .985364
7 1 .516760 .470827 .013650
ITEM: TIMESTEP
1
ITEM: NUMBER OF ATOMS
7
ITEM: BOX BOUNDS ss ss ss
-2.9559 3.2698
-2.6927 3.2537
-1.9889 1.9775
ITEM: ATOMS id type xs ys zs
1 1 .492997 .993383 .573138
2 1 .995933 .626788 .551626
3 1 .813124 .018002 .480719
4 1 .197236 .003256 .441102
5 1 .007302 .616359 .474979
6 1 .487048 .432351 .993088
7 1 .525390 .465101 .001008
ITEM: TIMESTEP
50
ITEM: NUMBER OF ATOMS
7
ITEM: BOX BOUNDS ss ss ss
-2.9559 3.2727
-2.7022 3.2537
-2.0145 1.9775
ITEM: ATOMS id type xs ys zs
1 1 .492817 .993681 .576037
2 1 .995715 .627754 .554516
3 1 .812861 .019225 .484261
4 1 .197034 .005079 .444988
5 1 .007499 .616861 .478219
6 1 .486723 .432886 .993216
7 1 .524950 .466044 .006656
ITEM: TIMESTEP
100
ITEM: NUMBER OF ATOMS
7
ITEM: BOX BOUNDS ss ss ss
-2.9559 3.2827
-2.6987 3.2537
-2.0240 1.9811
ITEM: ATOMS id type xs ys zs
1 1 .492373 .994204 .575766
2 1 .994251 .628428 .554870
3 1 .811734 .017817 .485727
4 1 .196606 .005536 .446094
5 1 .007928 .615685 .478322
6 1 .485981 .431344 .991954
7 1 .522687 .466814 .009081
ITEM: TIMESTEP
150
ITEM: NUMBER OF ATOMS
7
ITEM: BOX BOUNDS ss ss ss
-2.9559 3.2833
-2.7069 3.2678
-2.0272 1.9961
ITEM: ATOMS id type xs ys zs
1 1 .492640 .992498 .572534
2 1 .993967 .628098 .552016
3 1 .811929 .018280 .484514
4 1 .196937 .007384 .445532
5 1 .008527 .614615 .475663
6 1 .486845 .430100 .988061
7 1 .521083 .467306 .010843
ITEM: TIMESTEP
200
ITEM: NUMBER OF ATOMS
7
ITEM: BOX BOUNDS ss ss ss
-2.9559 3.2849
-2.7071 3.2748
-2.0303 1.9908
ITEM: ATOMS id type xs ys zs
1 1 .493517 .992314 .572220
2 1 .993301 .627510 .551633
3 1 .811773 .017852 .485017
4 1 .197550 .007835 .447458
5 1 .008935 .614005 .474605
6 1 .487065 .429806 .988458
7 1 .519793 .468291 .012830
ITEM: TIMESTEP
250
ITEM: NUMBER OF ATOMS
7
ITEM: BOX BOUNDS ss ss ss
-2.9559 3.2853
-2.7064 3.2821
-2.0331 1.9991
ITEM: ATOMS id type xs ys zs
1 1 .494005 .991959 .570712
2 1 .992736 .626353 .550590
3 1 .811318 .017478 .483514
4 1 .198732 .007349 .446953
5 1 .008538 .613192 .472083
6 1 .486391 .429146 .986434
7 1 .518522 .469242 .014984
ITEM: TIMESTEP
300
ITEM: NUMBER OF ATOMS
7
ITEM: BOX BOUNDS ss ss ss
-2.9559 3.2859
-2.7143 3.2814
-2.0195 1.9964
ITEM: ATOMS id type xs ys zs
1 1 .494138 .992382 .569053
2 1 .992445 .626362 .549945
3 1 .811128 .018335 .481435
4 1 .199571 .008460 .444895
5 1 .008308 .613757 .469559
6 1 .485948 .429628 .987035
7 1 .517750 .470872 .012716
ITEM: TIMESTEP
350
ITEM: NUMBER OF ATOMS
7
ITEM: BOX BOUNDS ss ss ss
-2.9559 3.2900
-2.7168 3.2873
-2.0141 1.9973
ITEM: ATOMS id type xs ys zs
1 1 .494024 .991380 .567422
2 1 .992031 .625561 .549693
3 1 .810780 .018393 .480489
4 1 .199677 .008971 .443530
5 1 .008109 .613287 .468596
6 1 .485727 .429149 .986654
7 1 .517081 .471129 .012193
ITEM: TIMESTEP
400
ITEM: NUMBER OF ATOMS
7
ITEM: BOX BOUNDS ss ss ss
-2.9559 3.2887
-2.7173 3.2872
-2.0105 1.9965
ITEM: ATOMS id type xs ys zs
1 1 .494182 .991245 .566406
2 1 .992466 .625301 .549907
3 1 .811276 .018197 .480263
4 1 .199924 .009225 .442590
5 1 .007769 .613256 .468364
6 1 .485912 .428961 .986927
7 1 .517077 .471393 .011965
ITEM: TIMESTEP
1
ITEM: NUMBER OF ATOMS
7
ITEM: BOX BOUNDS ss ss ss
-2.9559 3.2698
-2.6956 3.2596
-1.9884 1.9815
ITEM: ATOMS id type xs ys zs
1 1 .492998 .992402 .572519
2 1 .995934 .626347 .551022
3 1 .813122 .018457 .480180
4 1 .197239 .003734 .440601
5 1 .007304 .615934 .474452
6 1 .487049 .432197 .992090
7 1 .525396 .464894 .000905
ITEM: TIMESTEP
50
ITEM: NUMBER OF ATOMS
7
ITEM: BOX BOUNDS ss ss ss
-2.9559 3.2711
-2.7015 3.2596
-2.0206 1.9815
ITEM: ATOMS id type xs ys zs
1 1 .492827 .992668 .576362
2 1 .995976 .627008 .554566
3 1 .812950 .019299 .484550
4 1 .197092 .004887 .445236
5 1 .007493 .616202 .478589
6 1 .486792 .432496 .992267
7 1 .525205 .465398 .008281
ITEM: TIMESTEP
100
ITEM: NUMBER OF ATOMS
7
ITEM: BOX BOUNDS ss ss ss
-2.9559 3.2858
-2.7025 3.2596
-2.0227 1.9938
ITEM: ATOMS id type xs ys zs
1 1 .491455 .993319 .574641
2 1 .993883 .627290 .552851
3 1 .811121 .018517 .483458
4 1 .197287 .005767 .444218
5 1 .007907 .615536 .476137
6 1 .485738 .431561 .989668
7 1 .522701 .466363 .009188
ITEM: TIMESTEP
150
ITEM: NUMBER OF ATOMS
7
ITEM: BOX BOUNDS ss ss ss
-2.9559 3.2905
-2.7040 3.2596
-2.0247 2.0029
ITEM: ATOMS id type xs ys zs
1 1 .490462 .993044 .575033
2 1 .994244 .628295 .552212
3 1 .809300 .016446 .481541
4 1 .197873 .006582 .445135
5 1 .007794 .615286 .472103
6 1 .484579 .429662 .986803
7 1 .521099 .468406 .012057
ITEM: TIMESTEP
200
ITEM: NUMBER OF ATOMS
7
ITEM: BOX BOUNDS ss ss ss
-2.9559 3.2963
-2.7032 3.2596
-2.0199 1.9916
ITEM: ATOMS id type xs ys zs
1 1 .489939 .993065 .575896
2 1 .992993 .628103 .553466
3 1 .808492 .015337 .482083
4 1 .197822 .006557 .446604
5 1 .008142 .614708 .471364
6 1 .484301 .428624 .989512
7 1 .519836 .469613 .012988
ITEM: TIMESTEP
250
ITEM: NUMBER OF ATOMS
7
ITEM: BOX BOUNDS ss ss ss
-2.9559 3.2896
-2.7015 3.2596
-2.0192 1.9921
ITEM: ATOMS id type xs ys zs
1 1 .491176 .992865 .574639
2 1 .993311 .627676 .553286
3 1 .810142 .014799 .482612
4 1 .198256 .006604 .446035
5 1 .008391 .614027 .470165
6 1 .485510 .427924 .989977
7 1 .519758 .469860 .013458
ITEM: TIMESTEP
300
ITEM: NUMBER OF ATOMS
7
ITEM: BOX BOUNDS ss ss ss
-2.9559 3.2923
-2.7033 3.2636
-2.0302 2.0004
ITEM: ATOMS id type xs ys zs
1 1 .491543 .991952 .573121
2 1 .992240 .626988 .553128
3 1 .810499 .014840 .483876
4 1 .198595 .007191 .445685
5 1 .008072 .613299 .470178
6 1 .485661 .427422 .988449
7 1 .518939 .469848 .016489
ITEM: TIMESTEP
350
ITEM: NUMBER OF ATOMS
7
ITEM: BOX BOUNDS ss ss ss
-2.9559 3.2941
-2.7059 3.2732
-2.0145 1.9999
ITEM: ATOMS id type xs ys zs
1 1 .491066 .990537 .569465
2 1 .991259 .626202 .551297
3 1 .810766 .014896 .482888
4 1 .199029 .007930 .442243
5 1 .007286 .612162 .468297
6 1 .485536 .426924 .988613
7 1 .518234 .469541 .013161
ITEM: TIMESTEP
400
ITEM: NUMBER OF ATOMS
7
ITEM: BOX BOUNDS ss ss ss
-2.9585 3.2963
-2.7072 3.2777
-2.0089 2.0104
ITEM: ATOMS id type xs ys zs
1 1 .490732 .989942 .565823
2 1 .990417 .626039 .548849
3 1 .811016 .014988 .481948
4 1 .199673 .008172 .438847
5 1 .007106 .611444 .466512
6 1 .485452 .426608 .985957
7 1 .517837 .469351 .012290
ITEM: TIMESTEP
1
ITEM: NUMBER OF ATOMS
7
ITEM: BOX BOUNDS ss ss ss
-2.9441 3.2761
-2.6959 3.2644
-1.9905 1.9794
ITEM: ATOMS id type xs ys zs
1 1 .491536 .991596 .573037
2 1 .994917 .625862 .551534
3 1 .811943 .018509 .480690
4 1 .195514 .003790 .441108
5 1 .005410 .615460 .474960
6 1 .485578 .431889 .992607
7 1 .523967 .464550 .001408
ITEM: TIMESTEP
50
ITEM: NUMBER OF ATOMS
7
ITEM: BOX BOUNDS ss ss ss
-2.9441 3.2761
-2.6994 3.2644
-2.0147 1.9794
ITEM: ATOMS id type xs ys zs
1 1 .491536 .991742 .575955
2 1 .994968 .626380 .554236
3 1 .812023 .019043 .484073
4 1 .195390 .004483 .444731
5 1 .005674 .615585 .478094
6 1 .485403 .432089 .992882
7 1 .523702 .464816 .006747
ITEM: TIMESTEP
100
ITEM: NUMBER OF ATOMS
7
ITEM: BOX BOUNDS ss ss ss
-2.9441 3.2811
-2.7046 3.2644
-2.0243 1.9867
ITEM: ATOMS id type xs ys zs
1 1 .490298 .992185 .576237
2 1 .993487 .626879 .554080
3 1 .811493 .019544 .485951
4 1 .195764 .006821 .446003
5 1 .006275 .615632 .477333
6 1 .484893 .431484 .991855
7 1 .521048 .466057 .009656
ITEM: TIMESTEP
150
ITEM: NUMBER OF ATOMS
7
ITEM: BOX BOUNDS ss ss ss
-2.9441 3.2820
-2.7019 3.2644
-2.0211 1.9989
ITEM: ATOMS id type xs ys zs
1 1 .489848 .992711 .574364
2 1 .993210 .627151 .551642
3 1 .811854 .018156 .485139
4 1 .196678 .007021 .444936
5 1 .006659 .615205 .474404
6 1 .484839 .429938 .988534
7 1 .519659 .466494 .009526
ITEM: TIMESTEP
200
ITEM: NUMBER OF ATOMS
7
ITEM: BOX BOUNDS ss ss ss
-2.9441 3.2761
-2.7006 3.2680
-2.0219 2.0020
ITEM: ATOMS id type xs ys zs
1 1 .490670 .992986 .573487
2 1 .993788 .627338 .550636
3 1 .813601 .016764 .483834
4 1 .197823 .006749 .445572
5 1 .006610 .614294 .474305
6 1 .485711 .428493 .986905
7 1 .518940 .466692 .010933
ITEM: TIMESTEP
250
ITEM: NUMBER OF ATOMS
7
ITEM: BOX BOUNDS ss ss ss
-2.9482 3.2835
-2.7102 3.2740
-2.0187 1.9937
ITEM: ATOMS id type xs ys zs
1 1 .491052 .992011 .573439
2 1 .992692 .628007 .551034
3 1 .813350 .017859 .484740
4 1 .198567 .007710 .446594
5 1 .006859 .613541 .474748
6 1 .485880 .428385 .988149
7 1 .517911 .467835 .011472
ITEM: TIMESTEP
300
ITEM: NUMBER OF ATOMS
7
ITEM: BOX BOUNDS ss ss ss
-2.9517 3.2796
-2.7206 3.2784
-2.0246 1.9942
ITEM: ATOMS id type xs ys zs
1 1 .492290 .991486 .573040
2 1 .993497 .628519 .551060
3 1 .814628 .019070 .486330
4 1 .199874 .008725 .447844
5 1 .007122 .613250 .474966
6 1 .486856 .428799 .987836
7 1 .518026 .468982 .014570
ITEM: TIMESTEP
350
ITEM: NUMBER OF ATOMS
7
ITEM: BOX BOUNDS ss ss ss
-2.9590 3.2900
-2.7268 3.2703
-2.0119 1.9974
ITEM: ATOMS id type xs ys zs
1 1 .492439 .992635 .570230
2 1 .991923 .629721 .548869
3 1 .813988 .019857 .484479
4 1 .200980 .009603 .445312
5 1 .007690 .614180 .472447
6 1 .486756 .429806 .987209
7 1 .517321 .470604 .012684
ITEM: TIMESTEP
400
ITEM: NUMBER OF ATOMS
7
ITEM: BOX BOUNDS ss ss ss
-2.9635 3.2910
-2.7346 3.2804
-2.0079 1.9982
ITEM: ATOMS id type xs ys zs
1 1 .492965 .990655 .568759
2 1 .991931 .628700 .547966
3 1 .814329 .020841 .483722
4 1 .201851 .011081 .443414
5 1 .007947 .613379 .471298
6 1 .487050 .429617 .987412
7 1 .517365 .470949 .012729
ITEM: TIMESTEP
1
ITEM: NUMBER OF ATOMS
7
ITEM: BOX BOUNDS ss ss ss
-2.9437 3.2713
-2.6963 3.2573
-1.9885 1.9768
ITEM: ATOMS id type xs ys zs
1 1 .491889 .992785 .573215
2 1 .995689 .626636 .551683
3 1 .812565 .018590 .480756
4 1 .195616 .003853 .441136
5 1 .005356 .616220 .475020
6 1 .485931 .432435 .993266
7 1 .524349 .465135 .000921
ITEM: TIMESTEP
50
ITEM: NUMBER OF ATOMS
7
ITEM: BOX BOUNDS ss ss ss
-2.9437 3.2748
-2.7010 3.2573
-2.0165 1.9806
ITEM: ATOMS id type xs ys zs
1 1 .491545 .993023 .576327
2 1 .995229 .627076 .554291
3 1 .812131 .019295 .483981
4 1 .195303 .004655 .444874
5 1 .005583 .616486 .478141
6 1 .485472 .432650 .992412
7 1 .524070 .465311 .007047
ITEM: TIMESTEP
100
ITEM: NUMBER OF ATOMS
7
ITEM: BOX BOUNDS ss ss ss
-2.9442 3.2814
-2.7022 3.2573
-2.0301 1.9850
ITEM: ATOMS id type xs ys zs
1 1 .491724 .994237 .576767
2 1 .993368 .626523 .555537
3 1 .812210 .018501 .485722
4 1 .195673 .006151 .446103
5 1 .006537 .616119 .477951
6 1 .483611 .430987 .991370
7 1 .521790 .465571 .010862
ITEM: TIMESTEP
150
ITEM: NUMBER OF ATOMS
7
ITEM: BOX BOUNDS ss ss ss
-2.9471 3.2830
-2.7028 3.2637
-2.0210 1.9857
ITEM: ATOMS id type xs ys zs
1 1 .491997 .993527 .573426
2 1 .992095 .625794 .554765
3 1 .812381 .017457 .483665
4 1 .196389 .005995 .443564
5 1 .006365 .616387 .474473
6 1 .482242 .429280 .990970
7 1 .520303 .465763 .009930
ITEM: TIMESTEP
200
ITEM: NUMBER OF ATOMS
7
ITEM: BOX BOUNDS ss ss ss
-2.9461 3.2741
-2.7175 3.2581
-2.0231 1.9958
ITEM: ATOMS id type xs ys zs
1 1 .494535 .994095 .571014
2 1 .992792 .627663 .552758
3 1 .813068 .018983 .482393
4 1 .197200 .008160 .441291
5 1 .007130 .618608 .471363
6 1 .482635 .429993 .987874
7 1 .519220 .467634 .009956
ITEM: TIMESTEP
250
ITEM: NUMBER OF ATOMS
7
ITEM: BOX BOUNDS ss ss ss
-2.9465 3.2713
-2.7094 3.2662
-2.0340 2.0017
ITEM: ATOMS id type xs ys zs
1 1 .496415 .992561 .570923
2 1 .993529 .626092 .551982
3 1 .813675 .017467 .482931
4 1 .197584 .006765 .441591
5 1 .007467 .616575 .470259
6 1 .483179 .427808 .985768
7 1 .518302 .467462 .013457
ITEM: TIMESTEP
300
ITEM: NUMBER OF ATOMS
7
ITEM: BOX BOUNDS ss ss ss
-2.9531 3.2790
-2.7154 3.2652
-2.0188 1.9979
ITEM: ATOMS id type xs ys zs
1 1 .496876 .992722 .569316
2 1 .992613 .626496 .549840
3 1 .813252 .018440 .481150
4 1 .198436 .007691 .439755
5 1 .008307 .616448 .467644
6 1 .483439 .428081 .986267
7 1 .517437 .468981 .010565
ITEM: TIMESTEP
350
ITEM: NUMBER OF ATOMS
7
ITEM: BOX BOUNDS ss ss ss
-2.9504 3.2794
-2.7165 3.2677
-2.0263 1.9980
ITEM: ATOMS id type xs ys zs
1 1 .496309 .992366 .569701
2 1 .992712 .626307 .550429
3 1 .813134 .018359 .482318
4 1 .198387 .008024 .440560
5 1 .007441 .616088 .468346
6 1 .483599 .427816 .986140
7 1 .516953 .469639 .013059
ITEM: TIMESTEP
400
ITEM: NUMBER OF ATOMS
7
ITEM: BOX BOUNDS ss ss ss
-2.9518 3.2840
-2.7297 3.2676
-2.0288 1.9926
ITEM: ATOMS id type xs ys zs
1 1 .495566 .992393 .570623
2 1 .992306 .626815 .551507
3 1 .812548 .020275 .483996
4 1 .198740 .010264 .441256
5 1 .007092 .616732 .469919
6 1 .483666 .429088 .987559
7 1 .516663 .471876 .014611
ITEM: TIMESTEP
1
ITEM: NUMBER OF ATOMS
7
ITEM: BOX BOUNDS ss ss ss
-2.9437 3.2853
-2.7010 3.2573
-1.9952 1.9849
ITEM: ATOMS id type xs ys zs
1 1 .490777 .992790 .572763
2 1 .993445 .626934 .551316
3 1 .810733 .019377 .480651
4 1 .195172 .004648 .441178
5 1 .005345 .616530 .474938
6 1 .484834 .432894 .991259
7 1 .523168 .465561 .002596
ITEM: TIMESTEP
50
ITEM: NUMBER OF ATOMS
7
ITEM: BOX BOUNDS ss ss ss
-2.9437 3.2853
-2.7031 3.2573
-2.0190 1.9849
ITEM: ATOMS id type xs ys zs
1 1 .490632 .992931 .576137
2 1 .993691 .627218 .553877
3 1 .810685 .019793 .483786
4 1 .194898 .004855 .444818
5 1 .005546 .616746 .478121
6 1 .484634 .433179 .991417
7 1 .523364 .465307 .007314
ITEM: TIMESTEP
100
ITEM: NUMBER OF ATOMS
7
ITEM: BOX BOUNDS ss ss ss
-2.9437 3.2860
-2.7060 3.2573
-2.0341 1.9849
ITEM: ATOMS id type xs ys zs
1 1 .490658 .993328 .576586
2 1 .994709 .627845 .555540
3 1 .811475 .019762 .485914
4 1 .194735 .006426 .447446
5 1 .006264 .617220 .478970
6 1 .484645 .432439 .990864
7 1 .522122 .466215 .011155
ITEM: TIMESTEP
150
ITEM: NUMBER OF ATOMS
7
ITEM: BOX BOUNDS ss ss ss
-2.9437 3.2942
-2.7026 3.2613
-2.0310 1.9849
ITEM: ATOMS id type xs ys zs
1 1 .490573 .993267 .575058
2 1 .993968 .627587 .554762
3 1 .810439 .018194 .485282
4 1 .194503 .007555 .447096
5 1 .006594 .615418 .477700
6 1 .484108 .431112 .990713
7 1 .520995 .466939 .012413
ITEM: TIMESTEP
200
ITEM: NUMBER OF ATOMS
7
ITEM: BOX BOUNDS ss ss ss
-2.9437 3.2981
-2.7010 3.2635
-2.0245 1.9864
ITEM: ATOMS id type xs ys zs
1 1 .490427 .992688 .573930
2 1 .992800 .627527 .553012
3 1 .811586 .017583 .485433
4 1 .193996 .007942 .447042
5 1 .006507 .616034 .471799
6 1 .483351 .429266 .989301
7 1 .519310 .466767 .011618
ITEM: TIMESTEP
250
ITEM: NUMBER OF ATOMS
7
ITEM: BOX BOUNDS ss ss ss
-2.9437 3.2941
-2.7010 3.2654
-2.0208 2.0019
ITEM: ATOMS id type xs ys zs
1 1 .491036 .991946 .571194
2 1 .992727 .627577 .549514
3 1 .814052 .017157 .483399
4 1 .193350 .008022 .446006
5 1 .006510 .616155 .464721
6 1 .483760 .427454 .984146
7 1 .518614 .466016 .011677
ITEM: TIMESTEP
300
ITEM: NUMBER OF ATOMS
7
ITEM: BOX BOUNDS ss ss ss
-2.9458 3.2943
-2.7010 3.2684
-2.0286 1.9904
ITEM: ATOMS id type xs ys zs
1 1 .491604 .991249 .573276
2 1 .992358 .627351 .551881
3 1 .814318 .016839 .486249
4 1 .193838 .008119 .448486
5 1 .006624 .615866 .465845
6 1 .484054 .426671 .986933
7 1 .518001 .466084 .014305
ITEM: TIMESTEP
350
ITEM: NUMBER OF ATOMS
7
ITEM: BOX BOUNDS ss ss ss
-2.9573 3.3108
-2.7010 3.2682
-2.0219 1.9936
ITEM: ATOMS id type xs ys zs
1 1 .491169 .991472 .571900
2 1 .989323 .626449 .550436
3 1 .810978 .016419 .485631
4 1 .195627 .008365 .445878
5 1 .007716 .615791 .465418
6 1 .483572 .426722 .987005
7 1 .516517 .467426 .013258
ITEM: TIMESTEP
400
ITEM: NUMBER OF ATOMS
7
ITEM: BOX BOUNDS ss ss ss
-2.9584 3.3026
-2.7062 3.2645
-2.0208 1.9995
ITEM: ATOMS id type xs ys zs
1 1 .491481 .992764 .572069
2 1 .989636 .625850 .548315
3 1 .810129 .016399 .486123
4 1 .196796 .009568 .443290
5 1 .007457 .616386 .466399
6 1 .483932 .427910 .986807
7 1 .516325 .469521 .013233
ITEM: TIMESTEP
1
ITEM: NUMBER OF ATOMS
7
ITEM: BOX BOUNDS ss ss ss
-2.9528 3.2719
-2.6877 3.2526
-1.9902 1.9893
ITEM: ATOMS id type xs ys zs
1 1 .492579 .993549 .571594
2 1 .995593 .626585 .550140
3 1 .812752 .017189 .479462
4 1 .196774 .002412 .439983
5 1 .006815 .616152 .473750
6 1 .486630 .431954 .990147
7 1 .524994 .464722 .001334
ITEM: TIMESTEP
50
ITEM: NUMBER OF ATOMS
7
ITEM: BOX BOUNDS ss ss ss
-2.9528 3.2747
-2.7027 3.2526
-2.0185 1.9893
ITEM: ATOMS id type xs ys zs
1 1 .492126 .993624 .575253
2 1 .995273 .627816 .553110
3 1 .812380 .019765 .483025
4 1 .196499 .004812 .444243
5 1 .007021 .617117 .477629
6 1 .486200 .433518 .990357
7 1 .524986 .465596 .007158
ITEM: TIMESTEP
100
ITEM: NUMBER OF ATOMS
7
ITEM: BOX BOUNDS ss ss ss
-2.9528 3.2827
-2.7072 3.2578
-2.0316 1.9940
ITEM: ATOMS id type xs ys zs
1 1 .491465 .993183 .575343
2 1 .994041 .627863 .553446
3 1 .811491 .019548 .484497
4 1 .196424 .006413 .446509
5 1 .007125 .616130 .478301
6 1 .485268 .433101 .989264
7 1 .522934 .465777 .009631
ITEM: TIMESTEP
150
ITEM: NUMBER OF ATOMS
7
ITEM: BOX BOUNDS ss ss ss
-2.9528 3.2785
-2.7071 3.2579
-2.0377 2.0068
ITEM: ATOMS id type xs ys zs
1 1 .491941 .993262 .574049
2 1 .994386 .628025 .551013
3 1 .811535 .018479 .486234
4 1 .197213 .007045 .444504
5 1 .006931 .615889 .475391
6 1 .485761 .432196 .987100
7 1 .522140 .466785 .012776
ITEM: TIMESTEP
200
ITEM: NUMBER OF ATOMS
7
ITEM: BOX BOUNDS ss ss ss
-2.9528 3.2816
-2.7062 3.2580
-2.0338 2.0108
ITEM: ATOMS id type xs ys zs
1 1 .491673 .993528 .572902
2 1 .993859 .628192 .549345
3 1 .810929 .018307 .486814
4 1 .197666 .007938 .442895
5 1 .006890 .615290 .472998
6 1 .485553 .431730 .985968
7 1 .520599 .467395 .012174
ITEM: TIMESTEP
250
ITEM: NUMBER OF ATOMS
7
ITEM: BOX BOUNDS ss ss ss
-2.9528 3.2841
-2.7033 3.2682
-2.0257 2.0150
ITEM: ATOMS id type xs ys zs
1 1 .491638 .991632 .570821
2 1 .992416 .627416 .547253
3 1 .811181 .017449 .485888
4 1 .197906 .008347 .441092
5 1 .006960 .613898 .470418
6 1 .485523 .429422 .984245
7 1 .519190 .467622 .010369
ITEM: TIMESTEP
300
ITEM: NUMBER OF ATOMS
7
ITEM: BOX BOUNDS ss ss ss
-2.9636 3.2861
-2.7082 3.2679
-2.0254 2.0087
ITEM: ATOMS id type xs ys zs
1 1 .492244 .991882 .571733
2 1 .991486 .628074 .547981
3 1 .811902 .017998 .486976
4 1 .199497 .009730 .441321
5 1 .008552 .614597 .470078
6 1 .486158 .428917 .985315
7 1 .518906 .469041 .010844
ITEM: TIMESTEP
350
ITEM: NUMBER OF ATOMS
7
ITEM: BOX BOUNDS ss ss ss
-2.9641 3.2766
-2.7099 3.2747
-2.0294 2.0032
ITEM: ATOMS id type xs ys zs
1 1 .492997 .991134 .571950
2 1 .993116 .627489 .548516
3 1 .813553 .018009 .488903
4 1 .200109 .010083 .441566
5 1 .008573 .614256 .470646
6 1 .486788 .428447 .986595
7 1 .519358 .469334 .013068
ITEM: TIMESTEP
400
ITEM: NUMBER OF ATOMS
7
ITEM: BOX BOUNDS ss ss ss
-2.9633 3.2791
-2.7154 3.2722
-2.0261 1.9999
ITEM: ATOMS id type xs ys zs
1 1 .492601 .992032 .570690
2 1 .993170 .627953 .548013
3 1 .813704 .018529 .489796
4 1 .200227 .010694 .439709
5 1 .008315 .614902 .470051
6 1 .486566 .429256 .987350
7 1 .519199 .470351 .014421
ITEM: TIMESTEP
1
ITEM: NUMBER OF ATOMS
7
ITEM: BOX BOUNDS ss ss ss
-2.9528 3.2823
-2.6877 3.2593
-2.0027 1.9893
ITEM: ATOMS id type xs ys zs
1 1 .491761 .992442 .572936
2 1 .993935 .625886 .551544
3 1 .811400 .017168 .481092
4 1 .196448 .002409 .441732
5 1 .006806 .615467 .475397
6 1 .485823 .431474 .990175
7 1 .524121 .464206 .004462
ITEM: TIMESTEP
50
ITEM: NUMBER OF ATOMS
7
ITEM: BOX BOUNDS ss ss ss
-2.9528 3.2823
-2.7044 3.2593
-2.0191 1.9893
ITEM: ATOMS id type xs ys zs
1 1 .491553 .992550 .575567
2 1 .994090 .627171 .553400
3 1 .811320 .020142 .483227
4 1 .195986 .005120 .444310
5 1 .006938 .616656 .477623
6 1 .485636 .433174 .990341
7 1 .524526 .465182 .007336
ITEM: TIMESTEP
100
ITEM: NUMBER OF ATOMS
7
ITEM: BOX BOUNDS ss ss ss
-2.9576 3.2839
-2.7088 3.2593
-2.0257 1.9898
ITEM: ATOMS id type xs ys zs
1 1 .492027 .992401 .576055
2 1 .993911 .628625 .553657
3 1 .811619 .020501 .485381
4 1 .196140 .006924 .445325
5 1 .008122 .615635 .477838
6 1 .485811 .432524 .990642
7 1 .523955 .466420 .008052
ITEM: TIMESTEP
150
ITEM: NUMBER OF ATOMS
7
ITEM: BOX BOUNDS ss ss ss
-2.9528 3.2824
-2.7130 3.2630
-2.0274 1.9985
ITEM: ATOMS id type xs ys zs
1 1 .492279 .990562 .575046
2 1 .994228 .628916 .551261
3 1 .811873 .020812 .486470
4 1 .194882 .009661 .445874
5 1 .007561 .615161 .476609
6 1 .486354 .430646 .988303
7 1 .522935 .467511 .008710
ITEM: TIMESTEP
200
ITEM: NUMBER OF ATOMS
7
ITEM: BOX BOUNDS ss ss ss
-2.9528 3.3008
-2.6944 3.2593
-2.0324 1.9996
ITEM: ATOMS id type xs ys zs
1 1 .490961 .992504 .574352
2 1 .991872 .628205 .550929
3 1 .808495 .015165 .486435
4 1 .194867 .006772 .448753
5 1 .008375 .615149 .473979
6 1 .484971 .428224 .987167
7 1 .520965 .465623 .012172
ITEM: TIMESTEP
250
ITEM: NUMBER OF ATOMS
7
ITEM: BOX BOUNDS ss ss ss
-2.9528 3.3008
-2.7029 3.2683
-2.0258 2.0037
ITEM: ATOMS id type xs ys zs
1 1 .491036 .992316 .572841
2 1 .991974 .627876 .550489
3 1 .808739 .014431 .484952
4 1 .195764 .007734 .447976
5 1 .008694 .615021 .471655
6 1 .485146 .427983 .985803
7 1 .520240 .466605 .012895
ITEM: TIMESTEP
300
ITEM: NUMBER OF ATOMS
7
ITEM: BOX BOUNDS ss ss ss
-2.9528 3.3122
-2.6990 3.2759
-2.0184 2.0139
ITEM: ATOMS id type xs ys zs
1 1 .490741 .991609 .570405
2 1 .990005 .626051 .548702
3 1 .808101 .012681 .482926
4 1 .196038 .006819 .445611
5 1 .008419 .613642 .469309
6 1 .484480 .426770 .982640
7 1 .518134 .465910 .013054
ITEM: TIMESTEP
350
ITEM: NUMBER OF ATOMS
7
ITEM: BOX BOUNDS ss ss ss
-2.9494 3.2968
-2.7117 3.2795
-2.0128 2.0160
ITEM: ATOMS id type xs ys zs
1 1 .492143 .991382 .569284
2 1 .992581 .625325 .547043
3 1 .810452 .013910 .482448
4 1 .196400 .008331 .444956
5 1 .007712 .613800 .467464
6 1 .485836 .427816 .981518
7 1 .518244 .466530 .013226
ITEM: TIMESTEP
400
ITEM: NUMBER OF ATOMS
7
ITEM: BOX BOUNDS ss ss ss
-2.9481 3.2968
-2.7135 3.2824
-2.0058 2.0174
ITEM: ATOMS id type xs ys zs
1 1 .492238 .990878 .568404
2 1 .992313 .624844 .545485
3 1 .810725 .014088 .481622
4 1 .196352 .008407 .444234
5 1 .007444 .613494 .465251
6 1 .486038 .427634 .981120
7 1 .517602 .466627 .012152
ITEM: TIMESTEP
1
ITEM: NUMBER OF ATOMS
7
ITEM: BOX BOUNDS ss ss ss
-2.9381 3.2812
-2.6968 3.2569
-1.9887 1.9756
ITEM: ATOMS id type xs ys zs
1 1 .490641 .992849 .573408
2 1 .994088 .626709 .551865
3 1 .811093 .018677 .480920
4 1 .194575 .003933 .441289
5 1 .004453 .616299 .475183
6 1 .484687 .432521 .993560
7 1 .523086 .465210 .000953
ITEM: TIMESTEP
50
ITEM: NUMBER OF ATOMS
7
ITEM: BOX BOUNDS ss ss ss
-2.9381 3.2812
-2.7064 3.2569
-2.0184 1.9789
ITEM: ATOMS id type xs ys zs
1 1 .490422 .992957 .577021
2 1 .994214 .627566 .554731
3 1 .811038 .020438 .484401
4 1 .194215 .005463 .445407
5 1 .004660 .617032 .478787
6 1 .484539 .433516 .992849
7 1 .523400 .465551 .006839
ITEM: TIMESTEP
100
ITEM: NUMBER OF ATOMS
7
ITEM: BOX BOUNDS ss ss ss
-2.9467 3.2812
-2.7067 3.2569
-2.0289 1.9891
ITEM: ATOMS id type xs ys zs
1 1 .491215 .993532 .576546
2 1 .993600 .627885 .554983
3 1 .811226 .020042 .486213
4 1 .195842 .006630 .446310
5 1 .006331 .616195 .477603
6 1 .484748 .432682 .989425
7 1 .523589 .467045 .007740
ITEM: TIMESTEP
150
ITEM: NUMBER OF ATOMS
7
ITEM: BOX BOUNDS ss ss ss
-2.9488 3.2895
-2.7050 3.2628
-2.0379 1.9824
ITEM: ATOMS id type xs ys zs
1 1 .490984 .992769 .578708
2 1 .992879 .627393 .556707
3 1 .809999 .019160 .490098
4 1 .196311 .007176 .449217
5 1 .006825 .614793 .479020
6 1 .483808 .431018 .990892
7 1 .522378 .467096 .009461
ITEM: TIMESTEP
200
ITEM: NUMBER OF ATOMS
7
ITEM: BOX BOUNDS ss ss ss
-2.9480 3.2950
-2.7013 3.2646
-2.0394 1.9903
ITEM: ATOMS id type xs ys zs
1 1 .491283 .991769 .577186
2 1 .992238 .627761 .555991
3 1 .809750 .018155 .490088
4 1 .196674 .007464 .449796
5 1 .006676 .614315 .477094
6 1 .483092 .430081 .988762
7 1 .521645 .468448 .011272
ITEM: TIMESTEP
250
ITEM: NUMBER OF ATOMS
7
ITEM: BOX BOUNDS ss ss ss
-2.9554 3.2919
-2.7026 3.2642
-2.0398 1.9914
ITEM: ATOMS id type xs ys zs
1 1 .493002 .991106 .576392
2 1 .993244 .628485 .555818
3 1 .810616 .018120 .490249
4 1 .197761 .008009 .449733
5 1 .007923 .614428 .474586
6 1 .484235 .429499 .988948
7 1 .521943 .470022 .012607
ITEM: TIMESTEP
300
ITEM: NUMBER OF ATOMS
7
ITEM: BOX BOUNDS ss ss ss
-2.9612 3.3030
-2.7141 3.2569
-2.0343 2.0001
ITEM: ATOMS id type xs ys zs
1 1 .493087 .992421 .574604
2 1 .991564 .630051 .553460
3 1 .809773 .019844 .488234
4 1 .198436 .010188 .448147
5 1 .009194 .616063 .471490
6 1 .484491 .430553 .988338
7 1 .520708 .472256 .012690
ITEM: TIMESTEP
350
ITEM: NUMBER OF ATOMS
7
ITEM: BOX BOUNDS ss ss ss
-2.9481 3.2979
-2.7059 3.2632
-2.0249 2.0101
ITEM: ATOMS id type xs ys zs
1 1 .492528 .992008 .571796
2 1 .992065 .628849 .550349
3 1 .810266 .018689 .484996
4 1 .197080 .009164 .445550
5 1 .007250 .614937 .468123
6 1 .484040 .429047 .986557
7 1 .519167 .471710 .011114
ITEM: TIMESTEP
400
ITEM: NUMBER OF ATOMS
7
ITEM: BOX BOUNDS ss ss ss
-2.9534 3.2957
-2.7120 3.2713
-2.0283 2.0148
ITEM: ATOMS id type xs ys zs
1 1 .492767 .991498 .571307
2 1 .991998 .628481 .549773
3 1 .810428 .019512 .484785
4 1 .197268 .010244 .444747
5 1 .008442 .614499 .466417
6 1 .484871 .428857 .985023
7 1 .519307 .471887 .012325
ITEM: TIMESTEP
1
ITEM: NUMBER OF ATOMS
7
ITEM: BOX BOUNDS ss ss ss
-2.9434 3.2800
-2.6855 3.2608
-2.0107 1.9965
ITEM: ATOMS id type xs ys zs
1 1 .491177 .992172 .572758
2 1 .994302 .625577 .551446
3 1 .811419 .016799 .481256
4 1 .195308 .002037 .442053
5 1 .005304 .615159 .475591
6 1 .485227 .431152 .988416
7 1 .523601 .463880 .006432
ITEM: TIMESTEP
50
ITEM: NUMBER OF ATOMS
7
ITEM: BOX BOUNDS ss ss ss
-2.9434 3.2800
-2.7052 3.2608
-2.0184 1.9965
ITEM: ATOMS id type xs ys zs
1 1 .490964 .992287 .574652
2 1 .994476 .627045 .552137
3 1 .811303 .020318 .482151
4 1 .194920 .005085 .443399
5 1 .005502 .616475 .476801
6 1 .485064 .433343 .988717
7 1 .524146 .464956 .006964
ITEM: TIMESTEP
100
ITEM: NUMBER OF ATOMS
7
ITEM: BOX BOUNDS ss ss ss
-2.9434 3.2883
-2.7092 3.2608
-2.0277 1.9965
ITEM: ATOMS id type xs ys zs
1 1 .490004 .992485 .574811
2 1 .993906 .627831 .552062
3 1 .809303 .020373 .483075
4 1 .194864 .005756 .445509
5 1 .006148 .615694 .477367
6 1 .484466 .432480 .988829
7 1 .521851 .465827 .008715
ITEM: TIMESTEP
150
ITEM: NUMBER OF ATOMS
7
ITEM: BOX BOUNDS ss ss ss
-2.9434 3.2936
-2.7083 3.2608
-2.0289 1.9977
ITEM: ATOMS id type xs ys zs
1 1 .489327 .992125 .575159
2 1 .993400 .628214 .550254
3 1 .808632 .019454 .483287
4 1 .194616 .005754 .446467
5 1 .006653 .615096 .476527
6 1 .484313 .431590 .987531
7 1 .520188 .466548 .008908
ITEM: TIMESTEP
200
ITEM: NUMBER OF ATOMS
7
ITEM: BOX BOUNDS ss ss ss
-2.9434 3.2948
-2.7190 3.2693
-2.0405 2.0043
ITEM: ATOMS id type xs ys zs
1 1 .489155 .990929 .576713
2 1 .994056 .627985 .549350
3 1 .807460 .020566 .485142
4 1 .194411 .008669 .445355
5 1 .007285 .614675 .475922
6 1 .485137 .431607 .986796
7 1 .519307 .468237 .013099
ITEM: TIMESTEP
250
ITEM: NUMBER OF ATOMS
7
ITEM: BOX BOUNDS ss ss ss
-2.9434 3.3102
-2.7009 3.2608
-2.0369 2.0038
ITEM: ATOMS id type xs ys zs
1 1 .489651 .992344 .579265
2 1 .992143 .626623 .544785
3 1 .803737 .017010 .486894
4 1 .194836 .007363 .443461
5 1 .007635 .614593 .475751
6 1 .484487 .430448 .989104
7 1 .517219 .469722 .014158
ITEM: TIMESTEP
300
ITEM: NUMBER OF ATOMS
7
ITEM: BOX BOUNDS ss ss ss
-2.9470 3.3048
-2.6944 3.2608
-2.0210 2.0100
ITEM: ATOMS id type xs ys zs
1 1 .491519 .992288 .578236
2 1 .992867 .626625 .541193
3 1 .805218 .015452 .485132
4 1 .196031 .007279 .440917
5 1 .008032 .613932 .472541
6 1 .485688 .429076 .988433
7 1 .516438 .469012 .010850
ITEM: TIMESTEP
350
ITEM: NUMBER OF ATOMS
7
ITEM: BOX BOUNDS ss ss ss
-2.9434 3.3044
-2.6954 3.2608
-2.0240 2.0072
ITEM: ATOMS id type xs ys zs
1 1 .491776 .992418 .579536