ITEM: TIMESTEP
1
ITEM: NUMBER OF ATOMS
7
ITEM: BOX BOUNDS ss ss ss
-2.9140 3.2495
-2.6767 3.2180
-1.9888 1.9542
ITEM: ATOMS id type xs ys zs
1 1 .491214 .999438 .576344
2 1 .999202 .629579 .554924
3 1 .814589 .015317 .483645
4 1 .192513 .000671 .443703
5 1 .000585 .618983 .477700
6 1 .485151 .433292 .998954
7 1 .523712 .466613 .001107
ITEM: TIMESTEP
50
ITEM: NUMBER OF ATOMS
7
ITEM: BOX BOUNDS ss ss ss
-2.9347 3.2697
-2.6982 3.2469
-2.0149 1.9794
ITEM: ATOMS id type xs ys zs
1 1 .492483 .996056 .572982
2 1 .996624 .627958 .552849
3 1 .812885 .018013 .485618
4 1 .195813 .005347 .444471
5 1 .004604 .616756 .477886
6 1 .482815 .431947 .991031
7 1 .520571 .467721 .008662
ITEM: TIMESTEP
100
ITEM: NUMBER OF ATOMS
7
ITEM: BOX BOUNDS ss ss ss
-2.9442 3.2765
-2.7019 3.2543
-2.0209 1.9865
ITEM: ATOMS id type xs ys zs
1 1 .492982 .994460 .568322
2 1 .995647 .628665 .551397
3 1 .812440 .018338 .485553
4 1 .196388 .006987 .449471
5 1 .005499 .616586 .476894
6 1 .483740 .431339 .989511
7 1 .519083 .468279 .011057
ITEM: TIMESTEP
150
ITEM: NUMBER OF ATOMS
7
ITEM: BOX BOUNDS ss ss ss
-2.9437 3.2811
-2.7058 3.2626
-2.0195 1.9938
ITEM: ATOMS id type xs ys zs
1 1 .493499 .994480 .571882
2 1 .994618 .626498 .552995
3 1 .812391 .017358 .487118
4 1 .198014 .007591 .443632
5 1 .005068 .615556 .476467
6 1 .483327 .429564 .988359
7 1 .517044 .468837 .016372
ITEM: TIMESTEP
200
ITEM: NUMBER OF ATOMS
7
ITEM: BOX BOUNDS ss ss ss
-2.9480 3.2814
-2.7043 3.2682
-2.0151 1.9987
ITEM: ATOMS id type xs ys zs
1 1 .493609 .992858 .567087
2 1 .993106 .625955 .552061
3 1 .813916 .017267 .487116
4 1 .199313 .006875 .442448
5 1 .004756 .612689 .474436
6 1 .483850 .428498 .988402
7 1 .515570 .467893 .018863
ITEM: TIMESTEP
250
ITEM: NUMBER OF ATOMS
7
ITEM: BOX BOUNDS ss ss ss
-2.9527 3.2877
-2.7052 3.2734
-2.0146 1.9995
ITEM: ATOMS id type xs ys zs
1 1 .493676 .993765 .566949
2 1 .992256 .626257 .552248
3 1 .811679 .016896 .486654
4 1 .199583 .007570 .443207
5 1 .004406 .613236 .475025
6 1 .483794 .429852 .988074
7 1 .515633 .469959 .018281
ITEM: TIMESTEP
300
ITEM: NUMBER OF ATOMS
7
ITEM: BOX BOUNDS ss ss ss
-2.9617 3.2971
-2.7050 3.2704
-2.0071 2.0011
ITEM: ATOMS id type xs ys zs
1 1 .493353 .993883 .564164
2 1 .990925 .626379 .551614
3 1 .811357 .016374 .486045
4 1 .201294 .007438 .440886
5 1 .006042 .613687 .473291
6 1 .484469 .429764 .988143
7 1 .516023 .470613 .016040
ITEM: TIMESTEP
350
ITEM: NUMBER OF ATOMS
7
ITEM: BOX BOUNDS ss ss ss
-2.9673 3.2855
-2.7053 3.2741
-2.0005 2.0006
ITEM: ATOMS id type xs ys zs
1 1 .494771 .993438 .560747
2 1 .994032 .624635 .550555
3 1 .812676 .016766 .483356
4 1 .202323 .008214 .439540
5 1 .006710 .613019 .474266
6 1 .486542 .430317 .988490
7 1 .516611 .471409 .015187
ITEM: TIMESTEP
400
ITEM: NUMBER OF ATOMS
7
ITEM: BOX BOUNDS ss ss ss
-2.9675 3.2889
-2.7164 3.2770
-1.9999 2.0104
ITEM: ATOMS id type xs ys zs
1 1 .493862 .992078 .560934
2 1 .992591 .626344 .549879
3 1 .812674 .017762 .482312
4 1 .201777 .010172 .437748
5 1 .006066 .613432 .472755
6 1 .486323 .429945 .985773
7 1 .516858 .472075 .014755
ITEM: TIMESTEP
1
ITEM: NUMBER OF ATOMS
7
ITEM: BOX BOUNDS ss ss ss
-2.9559 3.2698
-2.6927 3.2537
-1.9889 1.9775
ITEM: ATOMS id type xs ys zs
1 1 .493045 .993430 .572948
2 1 .995945 .626830 .551624
3 1 .813193 .017878 .480828
4 1 .197308 .003374 .441101
5 1 .007332 .616312 .474868
6 1 .487038 .432209 .993097
7 1 .525211 .465270 .001131
ITEM: TIMESTEP
50
ITEM: NUMBER OF ATOMS
7
ITEM: BOX BOUNDS ss ss ss
-2.9559 3.2727
-2.7022 3.2537
-2.0145 1.9775
ITEM: ATOMS id type xs ys zs
1 1 .493377 .993658 .574602
2 1 .994404 .626965 .554506
3 1 .812700 .019177 .484702
4 1 .196223 .006996 .444495
5 1 .006743 .615271 .479168
6 1 .485776 .432804 .994003
7 1 .521084 .468871 .006304
ITEM: TIMESTEP
100
ITEM: NUMBER OF ATOMS
7
ITEM: BOX BOUNDS ss ss ss
-2.9559 3.2827
-2.6987 3.2537
-2.0240 1.9811
ITEM: ATOMS id type xs ys zs
1 1 .493355 .996916 .571379
2 1 .992977 .626555 .555081
3 1 .811322 .018121 .482937
4 1 .199201 .005183 .447103
5 1 .008390 .615750 .473902
6 1 .486172 .432673 .989289
7 1 .520926 .471486 .008914
ITEM: TIMESTEP
150
ITEM: NUMBER OF ATOMS
7
ITEM: BOX BOUNDS ss ss ss
-2.9559 3.2833
-2.7069 3.2678
-2.0272 1.9961
ITEM: ATOMS id type xs ys zs
1 1 .493433 .994471 .570545
2 1 .993928 .625784 .552963
3 1 .811361 .018651 .483876
4 1 .198520 .007636 .443600
5 1 .008287 .614389 .474199
6 1 .486033 .430384 .986851
7 1 .518889 .469582 .015253
ITEM: TIMESTEP
200
ITEM: NUMBER OF ATOMS
7
ITEM: BOX BOUNDS ss ss ss
-2.9559 3.2849
-2.7071 3.2748
-2.0303 1.9908
ITEM: ATOMS id type xs ys zs
1 1 .494886 .992109 .570967
2 1 .993087 .624771 .553414
3 1 .811089 .017002 .483824
4 1 .201669 .005601 .447320
5 1 .006949 .613580 .474357
6 1 .486328 .430168 .990385
7 1 .517315 .470900 .016542
ITEM: TIMESTEP
250
ITEM: NUMBER OF ATOMS
7
ITEM: BOX BOUNDS ss ss ss
-2.9559 3.2853
-2.7064 3.2821
-2.0331 1.9991
ITEM: ATOMS id type xs ys zs
1 1 .494917 .992326 .567142
2 1 .993584 .624027 .552584
3 1 .811826 .016127 .483150
4 1 .201356 .006811 .443941
5 1 .007907 .612580 .472959
6 1 .486645 .428541 .985271
7 1 .516646 .470962 .017068
ITEM: TIMESTEP
300
ITEM: NUMBER OF ATOMS
7
ITEM: BOX BOUNDS ss ss ss
-2.9559 3.2859
-2.7143 3.2814
-2.0195 1.9964
ITEM: ATOMS id type xs ys zs
1 1 .494831 .991119 .563448
2 1 .993603 .625434 .553937
3 1 .812164 .017842 .481541
4 1 .201472 .007963 .441336
5 1 .006907 .613612 .473813
6 1 .486871 .428292 .986293
7 1 .516959 .471171 .015598
ITEM: TIMESTEP
350
ITEM: NUMBER OF ATOMS
7
ITEM: BOX BOUNDS ss ss ss
-2.9559 3.2900
-2.7168 3.2873
-2.0141 1.9973
ITEM: ATOMS id type xs ys zs
1 1 .493748 .990948 .564573
2 1 .992744 .624524 .552201
3 1 .812107 .018124 .480852
4 1 .201151 .009350 .438131
5 1 .006442 .612656 .475269
6 1 .486608 .428614 .985496
7 1 .516073 .472539 .013754
ITEM: TIMESTEP
400
ITEM: NUMBER OF ATOMS
7
ITEM: BOX BOUNDS ss ss ss
-2.9559 3.2887
-2.7173 3.2872
-2.0105 1.9965
ITEM: ATOMS id type xs ys zs
1 1 .493201 .990925 .562468
2 1 .993829 .624352 .555235
3 1 .813620 .019904 .481156
4 1 .201291 .008595 .437411
5 1 .006013 .612110 .473763
6 1 .486719 .428819 .985640
7 1 .517373 .472507 .014395
ITEM: TIMESTEP
1
ITEM: NUMBER OF ATOMS
7
ITEM: BOX BOUNDS ss ss ss
-2.9559 3.2698
-2.6956 3.2596
-1.9884 1.9815
ITEM: ATOMS id type xs ys zs
1 1 .493047 .992524 .572258
2 1 .995925 .626377 .551016
3 1 .813152 .018314 .480215
4 1 .197318 .003899 .440534
5 1 .007304 .615814 .474358
6 1 .486965 .431990 .992091
7 1 .525162 .465101 .001157
ITEM: TIMESTEP
50
ITEM: NUMBER OF ATOMS
7
ITEM: BOX BOUNDS ss ss ss
-2.9559 3.2711
-2.7015 3.2596
-2.0206 1.9815
ITEM: ATOMS id type xs ys zs
1 1 .493332 .992836 .574773
2 1 .996208 .626694 .554097
3 1 .814275 .018530 .485864
4 1 .198819 .005026 .444679
5 1 .008264 .614985 .476957
6 1 .487683 .431140 .993072
7 1 .523845 .467116 .009547
ITEM: TIMESTEP
100
ITEM: NUMBER OF ATOMS
7
ITEM: BOX BOUNDS ss ss ss
-2.9559 3.2858
-2.7025 3.2596
-2.0227 1.9938
ITEM: ATOMS id type xs ys zs
1 1 .492526 .992075 .572193
2 1 .993982 .624292 .549354
3 1 .808294 .016676 .482204
4 1 .196901 .006877 .442857
5 1 .006003 .615554 .476249
6 1 .486119 .430099 .990411
7 1 .520347 .468602 .011339
ITEM: TIMESTEP
150
ITEM: NUMBER OF ATOMS
7
ITEM: BOX BOUNDS ss ss ss
-2.9559 3.2905
-2.7040 3.2596
-2.0247 2.0029
ITEM: ATOMS id type xs ys zs
1 1 .490314 .993027 .571125
2 1 .993057 .627242 .554365
3 1 .809203 .015408 .481104
4 1 .199644 .006731 .443024
5 1 .008146 .614617 .472806
6 1 .484984 .429855 .986789
7 1 .519173 .469828 .015542
ITEM: TIMESTEP
200
ITEM: NUMBER OF ATOMS
7
ITEM: BOX BOUNDS ss ss ss
-2.9559 3.2963
-2.7032 3.2596
-2.0199 1.9916
ITEM: ATOMS id type xs ys zs
1 1 .489848 .991267 .567408
2 1 .991697 .627731 .553085
3 1 .812354 .015393 .478702
4 1 .198325 .005587 .442743
5 1 .006773 .612327 .475387
6 1 .486450 .426618 .990406
7 1 .518890 .471285 .012083
ITEM: TIMESTEP
250
ITEM: NUMBER OF ATOMS
7
ITEM: BOX BOUNDS ss ss ss
-2.9559 3.2896
-2.7015 3.2596
-2.0192 1.9921
ITEM: ATOMS id type xs ys zs
1 1 .489698 .991741 .565983
2 1 .991465 .627623 .553100
3 1 .812268 .014079 .484100
4 1 .199241 .006154 .441750
5 1 .005923 .612855 .472627
6 1 .485981 .426894 .989968
7 1 .518724 .469499 .014109
ITEM: TIMESTEP
300
ITEM: NUMBER OF ATOMS
7
ITEM: BOX BOUNDS ss ss ss
-2.9559 3.2923
-2.7033 3.2636
-2.0302 2.0004
ITEM: ATOMS id type xs ys zs
1 1 .490762 .992704 .567047
2 1 .991552 .626591 .556055
3 1 .812057 .014001 .483806
4 1 .199911 .007669 .442055
5 1 .005665 .613262 .472760
6 1 .486020 .428066 .988318
7 1 .518293 .470720 .018616
ITEM: TIMESTEP
350
ITEM: NUMBER OF ATOMS
7
ITEM: BOX BOUNDS ss ss ss
-2.9559 3.2941
-2.7059 3.2732
-2.0145 1.9999
ITEM: ATOMS id type xs ys zs
1 1 .490056 .991917 .565508
2 1 .990998 .626767 .552232
3 1 .811358 .014610 .484360
4 1 .200414 .007641 .439436
5 1 .006040 .611573 .472471
6 1 .485811 .427569 .988056
7 1 .517110 .470731 .015677
ITEM: TIMESTEP
400
ITEM: NUMBER OF ATOMS
7
ITEM: BOX BOUNDS ss ss ss
-2.9585 3.2963
-2.7072 3.2777
-2.0089 2.0104
ITEM: ATOMS id type xs ys zs
1 1 .491279 .991985 .563947
2 1 .991024 .626585 .552794
3 1 .810972 .015661 .481121
4 1 .200765 .008933 .436188
5 1 .006118 .611860 .469024
6 1 .484851 .428805 .985485
7 1 .517507 .471705 .015543
ITEM: TIMESTEP
1
ITEM: NUMBER OF ATOMS
7
ITEM: BOX BOUNDS ss ss ss
-2.9441 3.2761
-2.6959 3.2644
-1.9905 1.9794
ITEM: ATOMS id type xs ys zs
1 1 .491607 .991639 .572841
2 1 .994917 .625868 .551516
3 1 .811948 .018357 .480806
4 1 .195582 .003884 .441039
5 1 .005434 .615323 .474915
6 1 .485541 .431759 .992670
7 1 .523715 .464721 .001564
ITEM: TIMESTEP
50
ITEM: NUMBER OF ATOMS
7
ITEM: BOX BOUNDS ss ss ss
-2.9441 3.2761
-2.6994 3.2644
-2.0147 1.9794
ITEM: ATOMS id type xs ys zs
1 1 .490080 .991602 .576265
2 1 .993502 .625654 .555544
3 1 .810628 .016650 .486468
4 1 .196948 .007004 .445256
5 1 .004940 .615758 .475657
6 1 .485384 .431411 .994183
7 1 .521616 .466724 .008798
ITEM: TIMESTEP
100
ITEM: NUMBER OF ATOMS
7
ITEM: BOX BOUNDS ss ss ss
-2.9441 3.2811
-2.7046 3.2644
-2.0243 1.9867
ITEM: ATOMS id type xs ys zs
1 1 .490214 .991856 .573590
2 1 .993537 .626817 .553604
3 1 .810367 .018891 .488297
4 1 .196975 .007314 .446835
5 1 .006043 .615078 .477081
6 1 .484095 .428541 .993289
7 1 .519938 .467103 .014113
ITEM: TIMESTEP
150
ITEM: NUMBER OF ATOMS
7
ITEM: BOX BOUNDS ss ss ss
-2.9441 3.2820
-2.7019 3.2644
-2.0211 1.9989
ITEM: ATOMS id type xs ys zs
1 1 .490724 .993103 .571063
2 1 .994091 .628974 .551357
3 1 .813336 .017181 .484349
4 1 .198232 .006202 .446788
5 1 .004945 .613217 .476679
6 1 .484533 .428681 .986288
7 1 .517460 .467416 .013163
ITEM: TIMESTEP
200
ITEM: NUMBER OF ATOMS
7
ITEM: BOX BOUNDS ss ss ss
-2.9441 3.2761
-2.7006 3.2680
-2.0219 2.0020
ITEM: ATOMS id type xs ys zs
1 1 .492360 .992709 .568238
2 1 .995296 .628463 .549354
3 1 .813797 .015897 .482844
4 1 .198206 .005610 .446695
5 1 .004724 .612713 .477675
6 1 .486335 .427135 .984495
7 1 .517642 .468517 .014551
ITEM: TIMESTEP
250
ITEM: NUMBER OF ATOMS
7
ITEM: BOX BOUNDS ss ss ss
-2.9482 3.2835
-2.7102 3.2740
-2.0187 1.9937
ITEM: ATOMS id type xs ys zs
1 1 .492700 .990071 .569591
2 1 .993665 .626528 .551868
3 1 .813218 .015910 .484543
4 1 .199658 .008131 .441644
5 1 .004047 .613355 .475573
6 1 .486150 .428815 .991428
7 1 .516361 .469077 .015171
ITEM: TIMESTEP
300
ITEM: NUMBER OF ATOMS
7
ITEM: BOX BOUNDS ss ss ss
-2.9517 3.2796
-2.7206 3.2784
-2.0246 1.9942
ITEM: ATOMS id type xs ys zs
1 1 .494058 .992246 .566989
2 1 .995168 .629719 .553370
3 1 .815814 .018505 .484418
4 1 .201675 .009303 .442038
5 1 .006679 .612408 .477642
6 1 .487578 .428960 .986983
7 1 .517641 .472252 .016538
ITEM: TIMESTEP
350
ITEM: NUMBER OF ATOMS
7
ITEM: BOX BOUNDS ss ss ss
-2.9590 3.2900
-2.7268 3.2703
-2.0119 1.9974
ITEM: ATOMS id type xs ys zs
1 1 .494449 .995111 .563936
2 1 .992570 .630455 .551948
3 1 .813852 .020165 .481932
4 1 .203282 .009590 .441080
5 1 .007664 .614934 .475826
6 1 .488118 .429767 .986429
7 1 .516762 .473143 .013916
ITEM: TIMESTEP
400
ITEM: NUMBER OF ATOMS
7
ITEM: BOX BOUNDS ss ss ss
-2.9635 3.2910
-2.7346 3.2804
-2.0079 1.9982
ITEM: ATOMS id type xs ys zs
1 1 .492857 .993071 .561488
2 1 .993174 .630560 .549801
3 1 .812391 .022258 .483946
4 1 .202899 .011569 .439279
5 1 .006487 .613911 .476704
6 1 .488670 .432194 .985993
7 1 .516398 .474716 .015674
ITEM: TIMESTEP
1
ITEM: NUMBER OF ATOMS
7
ITEM: BOX BOUNDS ss ss ss
-2.9437 3.2713
-2.6963 3.2573
-1.9885 1.9768
ITEM: ATOMS id type xs ys zs
1 1 .491938 .992840 .573011
2 1 .995704 .626648 .551719
3 1 .812597 .018487 .480853
4 1 .195719 .003947 .441134
5 1 .005362 .616121 .474947
6 1 .485920 .432311 .993329
7 1 .524142 .465269 .001081
ITEM: TIMESTEP
50
ITEM: NUMBER OF ATOMS
7
ITEM: BOX BOUNDS ss ss ss
-2.9437 3.2748
-2.7010 3.2573
-2.0165 1.9806
ITEM: ATOMS id type xs ys zs
1 1 .492754 .995753 .573407
2 1 .993183 .625182 .555263
3 1 .814016 .017381 .483688
4 1 .196470 .005533 .442717
5 1 .005495 .615969 .474945
6 1 .483478 .429883 .991432
7 1 .521875 .465081 .009979
ITEM: TIMESTEP
100
ITEM: NUMBER OF ATOMS
7
ITEM: BOX BOUNDS ss ss ss
-2.9442 3.2814
-2.7022 3.2573
-2.0301 1.9850
ITEM: ATOMS id type xs ys zs
1 1 .489004 .995159 .572413
2 1 .992436 .625295 .556196
3 1 .812044 .018237 .485220
4 1 .195845 .005540 .443395
5 1 .004055 .616492 .478249
6 1 .481505 .428418 .991168
7 1 .519676 .469693 .017057
ITEM: TIMESTEP
150
ITEM: NUMBER OF ATOMS
7
ITEM: BOX BOUNDS ss ss ss
-2.9471 3.2830
-2.7028 3.2637
-2.0210 1.9857
ITEM: ATOMS id type xs ys zs
1 1 .492194 .994381 .570544
2 1 .992913 .625238 .554625
3 1 .811915 .014631 .485903
4 1 .198126 .007074 .440758
5 1 .005459 .615001 .477564
6 1 .480671 .428587 .992323
7 1 .519651 .470852 .012143
ITEM: TIMESTEP
200
ITEM: NUMBER OF ATOMS
7
ITEM: BOX BOUNDS ss ss ss
-2.9461 3.2741
-2.7175 3.2581
-2.0231 1.9958
ITEM: ATOMS id type xs ys zs
1 1 .491770 .995948 .567586
2 1 .994630 .627315 .551423
3 1 .812895 .016980 .482430
4 1 .198924 .009179 .438576
5 1 .005012 .616822 .476191
6 1 .484078 .430450 .987633
7 1 .521040 .474311 .014302
ITEM: TIMESTEP
250
ITEM: NUMBER OF ATOMS
7
ITEM: BOX BOUNDS ss ss ss
-2.9465 3.2713
-2.7094 3.2662
-2.0340 2.0017
ITEM: ATOMS id type xs ys zs
1 1 .493081 .993611 .567757
2 1 .995153 .626636 .551274
3 1 .813810 .015473 .481351
4 1 .199413 .006808 .439147
5 1 .005180 .615266 .476306
6 1 .485184 .428715 .984882
7 1 .519640 .473122 .016835
ITEM: TIMESTEP
300
ITEM: NUMBER OF ATOMS
7
ITEM: BOX BOUNDS ss ss ss
-2.9531 3.2790
-2.7154 3.2652
-2.0188 1.9979
ITEM: ATOMS id type xs ys zs
1 1 .494669 .993430 .568394
2 1 .994967 .625107 .549458
3 1 .813141 .017740 .484329
4 1 .199887 .008802 .437955
5 1 .006044 .615962 .475039
6 1 .484638 .429891 .987704
7 1 .518240 .474459 .013635
ITEM: TIMESTEP
350
ITEM: NUMBER OF ATOMS
7
ITEM: BOX BOUNDS ss ss ss
-2.9504 3.2794
-2.7165 3.2677
-2.0263 1.9980
ITEM: ATOMS id type xs ys zs
1 1 .492121 .993727 .568284
2 1 .995029 .627067 .552357
3 1 .812859 .019928 .485545
4 1 .200054 .010354 .440336
5 1 .004801 .615214 .477379
6 1 .485324 .430091 .988045
7 1 .517953 .476177 .016184
ITEM: TIMESTEP
400
ITEM: NUMBER OF ATOMS
7
ITEM: BOX BOUNDS ss ss ss
-2.9518 3.2840
-2.7297 3.2676
-2.0288 1.9926
ITEM: ATOMS id type xs ys zs
1 1 .494538 .994071 .569014
2 1 .996190 .625786 .551516
3 1 .813677 .021386 .488900
4 1 .202092 .012936 .440256
5 1 .004823 .616106 .476540
6 1 .486139 .431522 .988699
7 1 .517307 .475875 .018903
ITEM: TIMESTEP
1
ITEM: NUMBER OF ATOMS
7
ITEM: BOX BOUNDS ss ss ss
-2.9437 3.2853
-2.7010 3.2573
-1.9952 1.9849
ITEM: ATOMS id type xs ys zs
1 1 .490873 .992958 .572668
2 1 .993467 .626936 .551321
3 1 .810760 .019235 .480746
4 1 .195298 .004830 .441252
5 1 .005345 .616409 .474890
6 1 .484850 .432750 .991244
7 1 .522983 .465816 .002797
ITEM: TIMESTEP
50
ITEM: NUMBER OF ATOMS
7
ITEM: BOX BOUNDS ss ss ss
-2.9437 3.2853
-2.7031 3.2573
-2.0190 1.9849
ITEM: ATOMS id type xs ys zs
1 1 .491727 .992656 .570661
2 1 .996292 .626571 .553590
3 1 .812729 .018420 .484433
4 1 .195083 .005945 .446193
5 1 .006175 .618496 .475251
6 1 .484680 .432360 .990016
7 1 .521735 .466269 .009483
ITEM: TIMESTEP
100
ITEM: NUMBER OF ATOMS
7
ITEM: BOX BOUNDS ss ss ss
-2.9437 3.2860
-2.7060 3.2573
-2.0341 1.9849
ITEM: ATOMS id type xs ys zs
1 1 .491258 .994511 .574474
2 1 .994611 .627579 .555231
3 1 .811520 .018796 .485847
4 1 .195394 .008227 .446934
5 1 .006527 .615912 .478628
6 1 .484683 .431762 .990489
7 1 .521582 .468810 .014334
ITEM: TIMESTEP
150
ITEM: NUMBER OF ATOMS
7
ITEM: BOX BOUNDS ss ss ss
-2.9437 3.2942
-2.7026 3.2613
-2.0310 1.9849
ITEM: ATOMS id type xs ys zs
1 1 .491334 .994628 .574901
2 1 .993533 .626751 .555968
3 1 .810971 .017611 .485695
4 1 .196715 .008744 .444199
5 1 .006253 .617274 .478910
6 1 .484457 .431151 .992952
7 1 .520496 .469843 .015712
ITEM: TIMESTEP
200
ITEM: NUMBER OF ATOMS
7
ITEM: BOX BOUNDS ss ss ss
-2.9437 3.2981
-2.7010 3.2635
-2.0245 1.9864
ITEM: ATOMS id type xs ys zs
1 1 .490511 .992924 .570706
2 1 .991768 .626328 .553729
3 1 .809360 .016879 .485386
4 1 .195467 .006803 .445138
5 1 .005239 .615047 .476668
6 1 .484946 .431496 .991591
7 1 .516980 .468846 .015934
ITEM: TIMESTEP
250
ITEM: NUMBER OF ATOMS
7
ITEM: BOX BOUNDS ss ss ss
-2.9437 3.2941
-2.7010 3.2654
-2.0208 2.0019
ITEM: ATOMS id type xs ys zs
1 1 .491642 .989443 .565763
2 1 .995032 .625415 .552760
3 1 .810405 .018535 .487362
4 1 .195548 .007506 .438099
5 1 .003906 .613811 .470787
6 1 .484685 .428895 .986365
7 1 .518087 .469718 .013919
ITEM: TIMESTEP
300
ITEM: NUMBER OF ATOMS
7
ITEM: BOX BOUNDS ss ss ss
-2.9458 3.2943
-2.7010 3.2684
-2.0286 1.9904
ITEM: ATOMS id type xs ys zs
1 1 .492073 .993588 .569493
2 1 .993239 .625023 .555699
3 1 .810015 .015348 .489605
4 1 .194853 .010846 .441313
5 1 .006184 .615039 .482695
6 1 .483856 .431222 .988958
7 1 .518801 .469372 .019157
ITEM: TIMESTEP
350
ITEM: NUMBER OF ATOMS
7
ITEM: BOX BOUNDS ss ss ss
-2.9573 3.3108
-2.7010 3.2682
-2.0219 1.9936
ITEM: ATOMS id type xs ys zs
1 1 .490220 .992284 .569739
2 1 .988683 .625532 .552409
3 1 .807284 .015986 .486609
4 1 .198155 .008455 .441429
5 1 .007424 .615389 .471709
6 1 .483965 .427605 .989253
7 1 .515529 .470147 .014821
ITEM: TIMESTEP
400
ITEM: NUMBER OF ATOMS
7
ITEM: BOX BOUNDS ss ss ss
-2.9584 3.3026
-2.7062 3.2645
-2.0208 1.9995
ITEM: ATOMS id type xs ys zs
1 1 .492532 .993876 .571058
2 1 .989256 .624994 .549760
3 1 .809130 .014978 .486784
4 1 .197813 .010172 .438197
5 1 .006031 .615836 .468902
6 1 .483254 .427370 .987378
7 1 .515711 .471784 .014053
ITEM: TIMESTEP
1
ITEM: NUMBER OF ATOMS
7
ITEM: BOX BOUNDS ss ss ss
-2.9528 3.2719
-2.6877 3.2526
-1.9902 1.9893
ITEM: ATOMS id type xs ys zs
1 1 .492637 .993606 .571407
2 1 .995621 .626619 .550201
3 1 .812776 .017056 .479564
4 1 .196856 .002495 .439986
5 1 .006816 .616087 .473685
6 1 .486652 .431821 .990147
7 1 .524800 .464894 .001480
ITEM: TIMESTEP
50
ITEM: NUMBER OF ATOMS
7
ITEM: BOX BOUNDS ss ss ss
-2.9528 3.2747
-2.7027 3.2526
-2.0185 1.9893
ITEM: ATOMS id type xs ys zs
1 1 .493543 .991562 .574444
2 1 .994410 .626761 .549621
3 1 .814337 .019700 .481552
4 1 .196786 .006240 .442869
5 1 .006934 .615829 .476922
6 1 .485890 .431926 .989725
7 1 .521833 .467513 .010322
ITEM: TIMESTEP
100
ITEM: NUMBER OF ATOMS
7
ITEM: BOX BOUNDS ss ss ss
-2.9528 3.2827
-2.7072 3.2578
-2.0316 1.9940
ITEM: ATOMS id type xs ys zs
1 1 .491631 .992665 .570349
2 1 .993019 .628080 .551625
3 1 .811455 .018671 .487845
4 1 .197373 .006601 .445160
5 1 .006261 .615623 .476087
6 1 .484593 .432062 .991673
7 1 .521949 .468274 .012232
ITEM: TIMESTEP
150
ITEM: NUMBER OF ATOMS
7
ITEM: BOX BOUNDS ss ss ss
-2.9528 3.2785
-2.7071 3.2579
-2.0377 2.0068
ITEM: ATOMS id type xs ys zs
1 1 .491648 .994549 .570795
2 1 .993832 .627869 .550639
3 1 .811938 .018265 .487112
4 1 .197702 .008936 .441558
5 1 .006359 .616433 .475685
6 1 .486287 .433032 .984843
7 1 .519820 .468454 .013880
ITEM: TIMESTEP
200
ITEM: NUMBER OF ATOMS
7
ITEM: BOX BOUNDS ss ss ss
-2.9528 3.2816
-2.7062 3.2580
-2.0338 2.0108
ITEM: ATOMS id type xs ys zs
1 1 .491008 .993885 .570215
2 1 .993224 .627057 .550178
3 1 .812552 .017503 .486633
4 1 .198247 .009608 .439659
5 1 .006506 .615344 .473590
6 1 .485225 .430868 .983329
7 1 .517925 .470536 .014075
ITEM: TIMESTEP
250
ITEM: NUMBER OF ATOMS
7
ITEM: BOX BOUNDS ss ss ss
-2.9528 3.2841
-2.7033 3.2682
-2.0257 2.0150
ITEM: ATOMS id type xs ys zs
1 1 .492711 .991446 .559419
2 1 .991880 .627100 .543931
3 1 .809716 .019426 .484659
4 1 .197795 .008664 .442293
5 1 .005621 .612591 .474263
6 1 .485962 .430303 .983250
7 1 .517398 .470458 .011860
ITEM: TIMESTEP
300
ITEM: NUMBER OF ATOMS
7
ITEM: BOX BOUNDS ss ss ss
-2.9636 3.2861
-2.7082 3.2679
-2.0254 2.0087
ITEM: ATOMS id type xs ys zs
1 1 .492149 .993815 .568528
2 1 .994063 .626966 .549996
3 1 .814710 .017326 .487364
4 1 .202223 .009695 .437420
5 1 .008775 .613675 .469513
6 1 .486846 .429319 .983012
7 1 .519080 .471166 .015054
ITEM: TIMESTEP
350
ITEM: NUMBER OF ATOMS
7
ITEM: BOX BOUNDS ss ss ss
-2.9641 3.2766
-2.7099 3.2747
-2.0294 2.0032
ITEM: ATOMS id type xs ys zs
1 1 .491361 .992219 .566315
2 1 .995501 .626326 .552232
3 1 .816612 .018358 .486455
4 1 .201870 .010647 .438562
5 1 .006172 .614786 .470165
6 1 .488108 .429007 .984389
7 1 .520290 .472277 .017532
ITEM: TIMESTEP
400
ITEM: NUMBER OF ATOMS
7
ITEM: BOX BOUNDS ss ss ss
-2.9633 3.2791
-2.7154 3.2722
-2.0261 1.9999
ITEM: ATOMS id type xs ys zs
1 1 .492270 .992109 .565137
2 1 .993864 .627402 .551565
3 1 .815154 .019375 .487061
4 1 .201484 .012539 .438886
5 1 .006212 .615104 .471964
6 1 .487269 .430845 .987075
7 1 .520065 .472211 .016735
ITEM: TIMESTEP
1
ITEM: NUMBER OF ATOMS
7
ITEM: BOX BOUNDS ss ss ss
-2.9528 3.2823
-2.6877 3.2593
-2.0027 1.9893
ITEM: ATOMS id type xs ys zs
1 1 .491834 .992478 .572693
2 1 .993888 .625962 .551526
3 1 .811402 .017029 .481150
4 1 .196531 .002587 .441732
5 1 .006848 .615410 .475344
6 1 .485835 .431197 .990211
7 1 .523864 .464446 .004586
ITEM: TIMESTEP
50
ITEM: NUMBER OF ATOMS
7
ITEM: BOX BOUNDS ss ss ss
-2.9528 3.2823
-2.7044 3.2593
-2.0191 1.9893
ITEM: ATOMS id type xs ys zs
1 1 .492263 .993131 .574047
2 1 .995789 .629519 .553091
3 1 .809636 .018844 .485070
4 1 .198228 .004914 .443080
5 1 .007251 .617193 .478110
6 1 .484503 .432104 .992260
7 1 .522154 .467019 .009704
ITEM: TIMESTEP
100
ITEM: NUMBER OF ATOMS
7
ITEM: BOX BOUNDS ss ss ss
-2.9576 3.2839
-2.7088 3.2593
-2.0257 1.9898
ITEM: ATOMS id type xs ys zs
1 1 .494010 .993057 .573074
2 1 .994231 .627438 .552523
3 1 .810476 .017878 .484532
4 1 .196920 .007570 .449330
5 1 .008090 .616517 .474656
6 1 .486804 .429757 .987913
7 1 .523060 .466739 .011002
ITEM: TIMESTEP
150
ITEM: NUMBER OF ATOMS
7
ITEM: BOX BOUNDS ss ss ss
-2.9528 3.2824
-2.7130 3.2630
-2.0274 1.9985
ITEM: ATOMS id type xs ys zs
1 1 .492223 .990273 .569179
2 1 .995920 .628501 .550947
3 1 .811494 .017238 .484957
4 1 .196641 .011655 .444118
5 1 .007155 .617742 .475872
6 1 .487901 .430534 .988018
7 1 .523512 .468949 .011573
ITEM: TIMESTEP
200
ITEM: NUMBER OF ATOMS
7
ITEM: BOX BOUNDS ss ss ss
-2.9528 3.3008
-2.6944 3.2593
-2.0324 1.9996
ITEM: ATOMS id type xs ys zs
1 1 .491474 .993403 .571573
2 1 .990953 .630308 .554979
3 1 .806597 .015409 .487025
4 1 .198940 .007384 .442561
5 1 .008471 .615122 .478736
6 1 .482941 .426682 .991120
7 1 .518980 .470555 .016599
ITEM: TIMESTEP
250
ITEM: NUMBER OF ATOMS
7
ITEM: BOX BOUNDS ss ss ss
-2.9528 3.3008
-2.7029 3.2683
-2.0258 2.0037
ITEM: ATOMS id type xs ys zs
1 1 .491100 .994488 .569990
2 1 .991853 .625241 .549967
3 1 .810530 .011776 .486544
4 1 .198734 .007278 .447033
5 1 .007579 .614316 .471626
6 1 .485070 .428302 .985230
7 1 .517466 .467087 .016738
ITEM: TIMESTEP
300
ITEM: NUMBER OF ATOMS
7
ITEM: BOX BOUNDS ss ss ss
-2.9528 3.3122
-2.6990 3.2759
-2.0184 2.0139
ITEM: ATOMS id type xs ys zs
1 1 .491268 .991088 .563657
2 1 .991729 .623987 .549050
3 1 .809290 .011498 .481676
4 1 .196935 .006510 .444117
5 1 .008186 .613261 .468370
6 1 .485440 .425667 .982546
7 1 .516599 .465905 .016556
ITEM: TIMESTEP
350
ITEM: NUMBER OF ATOMS
7
ITEM: BOX BOUNDS ss ss ss
-2.9494 3.2968
-2.7117 3.2795
-2.0128 2.0160
ITEM: ATOMS id type xs ys zs
1 1 .492199 .991208 .561183
2 1 .993792 .623453 .550423
3 1 .810381 .014450 .480215
4 1 .196406 .008772 .442660
5 1 .006235 .613102 .467100
6 1 .486601 .425943 .981212
7 1 .517339 .467404 .016811
ITEM: TIMESTEP
400
ITEM: NUMBER OF ATOMS
7
ITEM: BOX BOUNDS ss ss ss
-2.9481 3.2968
-2.7135 3.2824
-2.0058 2.0174
ITEM: ATOMS id type xs ys zs
1 1 .492860 .990912 .560168
2 1 .992911 .622945 .549669
3 1 .810076 .013404 .480055
4 1 .196111 .007584 .442193
5 1 .006791 .613704 .465869
6 1 .486124 .426493 .980075
7 1 .516930 .467943 .014689
ITEM: TIMESTEP
1
ITEM: NUMBER OF ATOMS
7
ITEM: BOX BOUNDS ss ss ss
-2.9381 3.2812
-2.6968 3.2569
-1.9887 1.9756
ITEM: ATOMS id type xs ys zs
1 1 .490693 .992890 .573199
2 1 .994114 .626724 .551884
3 1 .811137 .018533 .481063
4 1 .194668 .004016 .441276
5 1 .004451 .616241 .475047
6 1 .484671 .432351 .993560
7 1 .522863 .465382 .001117
ITEM: TIMESTEP
50
ITEM: NUMBER OF ATOMS
7
ITEM: BOX BOUNDS ss ss ss
-2.9381 3.2812
-2.7064 3.2569
-2.0184 1.9789
ITEM: ATOMS id type xs ys zs
1 1 .490604 .993006 .575241
2 1 .993816 .627534 .555997
3 1 .811514 .019292 .487390
4 1 .195434 .006886 .445136
5 1 .004883 .616101 .475938
6 1 .483877 .432042 .992037
7 1 .522550 .468101 .006585
ITEM: TIMESTEP
100
ITEM: NUMBER OF ATOMS
7
ITEM: BOX BOUNDS ss ss ss
-2.9467 3.2812
-2.7067 3.2569
-2.0289 1.9891
ITEM: ATOMS id type xs ys zs
1 1 .491376 .992745 .573336
2 1 .994717 .628561 .555940
3 1 .811226 .020351 .487944
4 1 .197086 .008400 .445727
5 1 .005072 .616216 .473906
6 1 .484159 .431920 .988849
7 1 .523985 .468932 .012608
ITEM: TIMESTEP
150
ITEM: NUMBER OF ATOMS
7
ITEM: BOX BOUNDS ss ss ss
-2.9488 3.2895
-2.7050 3.2628
-2.0379 1.9824
ITEM: ATOMS id type xs ys zs
1 1 .493333 .991360 .576563
2 1 .993071 .629263 .555444
3 1 .811274 .017507 .485903
4 1 .199294 .008722 .452889
5 1 .005094 .614816 .482307
6 1 .485037 .431396 .989120
7 1 .517494 .471288 .012623
ITEM: TIMESTEP
200
ITEM: NUMBER OF ATOMS
7
ITEM: BOX BOUNDS ss ss ss
-2.9480 3.2950
-2.7013 3.2646
-2.0394 1.9903
ITEM: ATOMS id type xs ys zs
1 1 .492546 .990285 .574946
2 1 .993260 .628486 .553937
3 1 .810198 .016842 .485769
4 1 .200035 .008520 .450123
5 1 .004727 .614260 .481344
6 1 .484495 .429419 .991045
7 1 .518873 .471631 .015013
ITEM: TIMESTEP
250
ITEM: NUMBER OF ATOMS
7
ITEM: BOX BOUNDS ss ss ss
-2.9554 3.2919
-2.7026 3.2642
-2.0398 1.9914
ITEM: ATOMS id type xs ys zs
1 1 .493701 .988493 .572007
2 1 .993168 .628210 .553015
3 1 .811687 .017050 .485219
4 1 .200712 .009452 .447551
5 1 .006964 .613602 .479908
6 1 .485151 .428474 .990310
7 1 .519301 .472012 .015958
ITEM: TIMESTEP
300
ITEM: NUMBER OF ATOMS
7
ITEM: BOX BOUNDS ss ss ss
-2.9612 3.3030
-2.7141 3.2569
-2.0343 2.0001
ITEM: ATOMS id type xs ys zs
1 1 .495139 .993240 .573858
2 1 .990969 .628692 .553271
3 1 .808884 .020682 .481652
4 1 .201164 .011654 .449365
5 1 .007853 .616348 .482181
6 1 .484678 .430694 .990795
7 1 .517466 .475973 .015452
ITEM: TIMESTEP
350
ITEM: NUMBER OF ATOMS
7
ITEM: BOX BOUNDS ss ss ss
-2.9481 3.2979
-2.7059 3.2632
-2.0249 2.0101
ITEM: ATOMS id type xs ys zs
1 1 .493692 .991305 .566558
2 1 .992351 .626438 .549633
3 1 .810074 .018596 .478081
4 1 .199272 .011267 .446360
5 1 .005660 .616647 .474427
6 1 .485750 .430607 .987809
7 1 .517924 .474351 .013808
ITEM: TIMESTEP
400
ITEM: NUMBER OF ATOMS
7
ITEM: BOX BOUNDS ss ss ss
-2.9534 3.2957
-2.7120 3.2713
-2.0283 2.0148
ITEM: ATOMS id type xs ys zs
1 1 .494426 .990087 .566961
2 1 .993296 .627141 .550813
3 1 .811049 .019568 .481209
4 1 .198913 .010756 .444023
5 1 .006501 .615262 .471324
6 1 .485501 .429617 .984725
7 1 .518972 .471908 .015380
ITEM: TIMESTEP
1
ITEM: NUMBER OF ATOMS
7
ITEM: BOX BOUNDS ss ss ss
-2.9434 3.2800
-2.6855 3.2608
-2.0107 1.9965
ITEM: ATOMS id type xs ys zs
1 1 .491237 .992274 .572567
2 1 .994329 .625584 .551481
3 1 .811450 .016658 .481404
4 1 .195375 .002154 .441956
5 1 .005310 .615032 .475544
6 1 .485253 .430977 .988382
7 1 .523385 .464043 .006598
ITEM: TIMESTEP
50
ITEM: NUMBER OF ATOMS
7
ITEM: BOX BOUNDS ss ss ss
-2.9434 3.2800
-2.7052 3.2608
-2.0184 1.9965
ITEM: ATOMS id type xs ys zs
1 1 .491182 .992294 .571961
2 1 .994515 .626603 .550479
3 1 .809117 .018027 .481094
4 1 .196228 .004818 .442285
5 1 .006939 .615491 .475709
6 1 .485771 .431148 .990618
7 1 .521874 .466458 .008727
ITEM: TIMESTEP
100
ITEM: NUMBER OF ATOMS
7
ITEM: BOX BOUNDS ss ss ss
-2.9434 3.2883
-2.7092 3.2608
-2.0277 1.9965
ITEM: ATOMS id type xs ys zs
1 1 .491535 .992518 .571997
2 1 .994709 .625810 .550130
3 1 .807794 .016583 .482917
4 1 .195407 .006919 .443548
5 1 .007019 .615200 .480656
6 1 .485627 .431790 .991467
7 1 .520443 .467446 .011269
ITEM: TIMESTEP
150
ITEM: NUMBER OF ATOMS
7
ITEM: BOX BOUNDS ss ss ss
-2.9434 3.2936
-2.7083 3.2608
-2.0289 1.9977
ITEM: ATOMS id type xs ys zs
1 1 .488943 .992877 .575519
2 1 .995534 .626810 .550811
3 1 .806029 .016826 .484744
4 1 .194676 .009063 .441087
5 1 .007027 .615320 .473553
6 1 .486085 .432055 .989726
7 1 .519009 .469488 .014461
ITEM: TIMESTEP
200
ITEM: NUMBER OF ATOMS
7
ITEM: BOX BOUNDS ss ss ss
-2.9434 3.2948
-2.7190 3.2693
-2.0405 2.0043
ITEM: ATOMS id type xs ys zs
1 1 .489814 .991840 .572589
2 1 .994028 .627449 .553829
3 1 .806290 .019793 .483608
4 1 .195377 .012138 .441854
5 1 .006433 .615027 .475231
6 1 .486935 .431696 .988904
7 1 .519177 .470604 .017279
ITEM: TIMESTEP
250
ITEM: NUMBER OF ATOMS
7
ITEM: BOX BOUNDS ss ss ss
-2.9434 3.3102
-2.7009 3.2608
-2.0369 2.0038
ITEM: ATOMS id type xs ys zs
1 1 .492305 .992161 .577314
2 1 .989548 .626882 .548709
3 1 .805397 .017002 .486383
4 1 .197679 .008340 .442484
5 1 .006823 .614650 .475099
6 1 .486503 .428868 .989758
7 1 .513276 .469705 .018631
ITEM: TIMESTEP
300
ITEM: NUMBER OF ATOMS
7
ITEM: BOX BOUNDS ss ss ss
-2.9470 3.3048
-2.6944 3.2608
-2.0210 2.0100
ITEM: ATOMS id type xs ys zs
1 1 .493184 .992112 .574205
2 1 .993050 .624319 .544812
3 1 .806947 .013457 .486514
4 1 .195496 .007643 .438760
5 1 .008568 .615399 .474227
6 1 .483179 .427600 .987117
7 1 .516092 .470142 .015593
ITEM: TIMESTEP
350
ITEM: NUMBER OF ATOMS
7
ITEM: BOX BOUNDS ss ss ss
-2.9434 3.3044
-2.6954 3.2608
-2.0240 2.0072
ITEM: ATOMS id type xs ys zs
1 1 .492080 .992776 .577491