ITEM: TIMESTEP
1
ITEM: NUMBER OF ATOMS
7
ITEM: BOX BOUNDS ss ss ss
-2.9701 3.3111
-2.5715 3.3094
-1.8434 2.0348
ITEM: ATOMS id type xs ys zs
1 1 .486111 .999381 .571366
2 1 .999359 .614588 .530146
3 1 .812482 .009930 .432316
4 1 .206940 .000648 .452700
5 1 .000669 .610871 .527478
6 1 .506058 .428310 .999080
7 1 .502411 .475217 .000975
ITEM: TIMESTEP
50
ITEM: NUMBER OF ATOMS
7
ITEM: BOX BOUNDS ss ss ss
-2.9936 3.3387
-2.5943 3.3332
-1.8661 2.0556
ITEM: ATOMS id type xs ys zs
1 1 .487118 .994966 .569821
2 1 .993479 .615125 .530037
3 1 .810491 .011622 .435577
4 1 .208711 .004471 .452528
5 1 .004866 .609933 .525816
6 1 .505108 .428960 .995646
7 1 .501999 .476440 .008730
ITEM: TIMESTEP
100
ITEM: NUMBER OF ATOMS
7
ITEM: BOX BOUNDS ss ss ss
-3.0034 3.3447
-2.6010 3.3447
-1.8802 2.0698
ITEM: ATOMS id type xs ys zs
1 1 .490190 .994623 .568816
2 1 .993391 .615788 .528022
3 1 .810306 .012621 .437724
4 1 .210838 .005535 .453877
5 1 .005645 .609512 .526152
6 1 .502942 .426562 .991632
7 1 .501964 .476227 .009148
ITEM: TIMESTEP
150
ITEM: NUMBER OF ATOMS
7
ITEM: BOX BOUNDS ss ss ss
-3.0031 3.3570
-2.6061 3.3495
-1.8787 2.0712
ITEM: ATOMS id type xs ys zs
1 1 .487654 .993431 .570591
2 1 .991615 .618121 .528651
3 1 .809061 .012065 .434398
4 1 .208739 .004402 .454036
5 1 .010218 .608639 .524492
6 1 .504805 .425856 .988309
7 1 .500391 .476711 .012084
ITEM: TIMESTEP
200
ITEM: NUMBER OF ATOMS
7
ITEM: BOX BOUNDS ss ss ss
-3.0077 3.3534
-2.6025 3.3612
-1.8873 2.0790
ITEM: ATOMS id type xs ys zs
1 1 .490254 .992637 .572231
2 1 .992448 .616907 .526822
3 1 .808833 .011493 .435193
4 1 .209764 .006209 .455360
5 1 .010843 .607318 .525935
6 1 .503812 .423213 .990684
7 1 .502863 .477712 .013142
ITEM: TIMESTEP
250
ITEM: NUMBER OF ATOMS
7
ITEM: BOX BOUNDS ss ss ss
-3.0117 3.3533
-2.6053 3.3631
-1.8768 2.0865
ITEM: ATOMS id type xs ys zs
1 1 .491221 .991035 .569861
2 1 .991385 .617758 .526100
3 1 .809538 .014248 .434240
4 1 .209823 .004012 .448077
5 1 .011153 .607577 .521137
6 1 .505385 .422439 .986314
7 1 .501914 .476665 .012468
ITEM: TIMESTEP
300
ITEM: NUMBER OF ATOMS
7
ITEM: BOX BOUNDS ss ss ss
-3.0096 3.3480
-2.6113 3.3656
-1.8773 2.0934
ITEM: ATOMS id type xs ys zs
1 1 .493946 .992906 .565821
2 1 .989387 .620210 .526966
3 1 .810308 .014539 .431282
4 1 .208520 .006946 .449768
5 1 .011915 .611215 .522262
6 1 .503374 .423384 .985792
7 1 .502583 .479528 .013723
ITEM: TIMESTEP
350
ITEM: NUMBER OF ATOMS
7
ITEM: BOX BOUNDS ss ss ss
-2.9975 3.3469
-2.6236 3.3602
-1.8753 2.0905
ITEM: ATOMS id type xs ys zs
1 1 .491519 .993004 .565328
2 1 .988713 .622836 .524452
3 1 .808473 .015659 .431907
4 1 .207029 .007568 .449558
5 1 .009797 .611561 .521928
6 1 .502810 .424770 .987558
7 1 .502593 .479417 .010398
ITEM: TIMESTEP
400
ITEM: NUMBER OF ATOMS
7
ITEM: BOX BOUNDS ss ss ss
-2.9955 3.3406
-2.6244 3.3605
-1.8822 2.0926
ITEM: ATOMS id type xs ys zs
1 1 .493837 .992674 .566264
2 1 .990085 .623662 .523262
3 1 .810990 .017049 .433846
4 1 .208749 .008563 .451231
5 1 .009877 .610300 .524998
6 1 .503979 .424882 .987583
7 1 .501781 .479825 .012834
ITEM: TIMESTEP
1
ITEM: NUMBER OF ATOMS
7
ITEM: BOX BOUNDS ss ss ss
-2.9706 3.3109
-2.5965 3.3485
-1.8727 2.0708
ITEM: ATOMS id type xs ys zs
1 1 .486182 .992804 .569309
2 1 .999397 .612173 .528806
3 1 .812485 .014018 .432572
4 1 .206989 .004840 .452644
5 1 .000765 .608503 .526191
6 1 .506128 .427894 .989993
7 1 .502459 .474295 .008363
ITEM: TIMESTEP
50
ITEM: NUMBER OF ATOMS
7
ITEM: BOX BOUNDS ss ss ss
-2.9930 3.3397
-2.5965 3.3485
-1.8727 2.0708
ITEM: ATOMS id type xs ys zs
1 1 .487640 .991927 .568258
2 1 .994903 .615990 .530911
3 1 .810485 .010574 .433964
4 1 .207892 .004220 .452216
5 1 .006100 .607150 .527481
6 1 .505407 .427378 .990445
7 1 .502308 .475851 .008504
ITEM: TIMESTEP
100
ITEM: NUMBER OF ATOMS
7
ITEM: BOX BOUNDS ss ss ss
-3.0024 3.3511
-2.6029 3.3485
-1.8727 2.0711
ITEM: ATOMS id type xs ys zs
1 1 .489146 .993076 .567181
2 1 .992195 .617897 .530211
3 1 .810961 .011796 .434344
4 1 .208842 .004415 .451486
5 1 .009018 .606377 .525122
6 1 .503861 .426110 .990624
7 1 .502400 .476676 .008712
ITEM: TIMESTEP
150
ITEM: NUMBER OF ATOMS
7
ITEM: BOX BOUNDS ss ss ss
-2.9965 3.3470
-2.6083 3.3485
-1.8814 2.0755
ITEM: ATOMS id type xs ys zs
1 1 .489403 .992683 .566307
2 1 .990444 .619266 .528179
3 1 .810063 .011170 .435184
4 1 .208569 .005522 .452189
5 1 .009121 .607491 .523757
6 1 .504841 .424008 .987827
7 1 .501075 .478079 .009874
ITEM: TIMESTEP
200
ITEM: NUMBER OF ATOMS
7
ITEM: BOX BOUNDS ss ss ss
-2.9951 3.3503
-2.6185 3.3491
-1.8815 2.0807
ITEM: ATOMS id type xs ys zs
1 1 .490233 .992227 .564035
2 1 .989926 .619778 .526259
3 1 .810090 .013646 .434194
4 1 .208828 .007144 .450475
5 1 .008758 .608887 .524873
6 1 .505730 .425423 .988979
7 1 .500734 .478497 .011119
ITEM: TIMESTEP
250
ITEM: NUMBER OF ATOMS
7
ITEM: BOX BOUNDS ss ss ss
-2.9988 3.3497
-2.6245 3.3537
-1.8771 2.0914
ITEM: ATOMS id type xs ys zs
1 1 .491872 .993106 .563633
2 1 .990436 .621590 .524851
3 1 .809177 .015199 .435076
4 1 .208206 .008761 .449676
5 1 .010948 .605463 .524443
6 1 .504782 .425744 .988361
7 1 .502924 .478581 .011495
ITEM: TIMESTEP
300
ITEM: NUMBER OF ATOMS
7
ITEM: BOX BOUNDS ss ss ss
-2.9937 3.3453
-2.6285 3.3600
-1.8791 2.0887
ITEM: ATOMS id type xs ys zs
1 1 .491776 .990092 .562590
2 1 .989827 .621041 .526742
3 1 .810788 .016961 .435997
4 1 .207402 .007864 .447789
5 1 .007907 .606177 .522980
6 1 .503890 .423821 .986262
7 1 .500957 .478069 .009482
ITEM: TIMESTEP
350
ITEM: NUMBER OF ATOMS
7
ITEM: BOX BOUNDS ss ss ss
-2.9981 3.3408
-2.6256 3.3684
-1.8781 2.0964
ITEM: ATOMS id type xs ys zs
1 1 .492585 .988345 .559741
2 1 .990597 .620651 .524031
3 1 .811594 .015983 .434247
4 1 .207191 .005809 .445786
5 1 .010115 .604503 .521996
6 1 .504066 .421969 .984597
7 1 .501714 .477034 .011013
ITEM: TIMESTEP
400
ITEM: NUMBER OF ATOMS
7
ITEM: BOX BOUNDS ss ss ss
-2.9967 3.3387
-2.6317 3.3618
-1.8870 2.0992
ITEM: ATOMS id type xs ys zs
1 1 .495207 .990298 .563194
2 1 .989423 .620387 .526780
3 1 .811209 .016511 .433654
4 1 .208591 .007334 .446704
5 1 .011395 .606569 .524626
6 1 .503657 .422208 .987050
7 1 .501656 .479257 .012649
ITEM: TIMESTEP
1
ITEM: NUMBER OF ATOMS
7
ITEM: BOX BOUNDS ss ss ss
-2.9702 3.3135
-2.6161 3.3354
-1.8641 2.0741
ITEM: ATOMS id type xs ys zs
1 1 .485931 .995007 .567945
2 1 .998969 .614784 .527353
3 1 .812173 .017310 .431000
4 1 .206878 .008133 .451066
5 1 .000675 .611122 .524685
6 1 .505875 .430727 .989135
7 1 .502211 .477086 .006194
ITEM: TIMESTEP
50
ITEM: NUMBER OF ATOMS
7
ITEM: BOX BOUNDS ss ss ss
-2.9941 3.3437
-2.6161 3.3354
-1.8675 2.0741
ITEM: ATOMS id type xs ys zs
1 1 .485883 .995060 .566323
2 1 .994045 .615792 .524889
3 1 .808979 .014667 .429059
4 1 .208396 .008235 .450726
5 1 .006586 .611151 .525212
6 1 .505331 .429120 .991280
7 1 .500811 .477939 .008486
ITEM: TIMESTEP
100
ITEM: NUMBER OF ATOMS
7
ITEM: BOX BOUNDS ss ss ss
-2.9979 3.3479
-2.6161 3.3434
-1.8792 2.0741
ITEM: ATOMS id type xs ys zs
1 1 .487046 .993624 .567382
2 1 .993417 .617370 .525649
3 1 .810302 .013831 .430843
4 1 .208106 .007550 .450526
5 1 .009709 .610337 .524268
6 1 .505273 .427894 .990930
7 1 .500337 .477700 .010746
ITEM: TIMESTEP
150
ITEM: NUMBER OF ATOMS
7
ITEM: BOX BOUNDS ss ss ss
-3.0094 3.3517
-2.6161 3.3509
-1.8806 2.0761
ITEM: ATOMS id type xs ys zs
1 1 .487329 .994157 .572778
2 1 .992011 .617956 .528974
3 1 .808239 .016000 .438646
4 1 .210339 .005669 .453876
5 1 .009886 .606749 .522643
6 1 .502165 .424274 .988913
7 1 .502797 .478080 .011881
ITEM: TIMESTEP
200
ITEM: NUMBER OF ATOMS
7
ITEM: BOX BOUNDS ss ss ss
-3.0083 3.3622
-2.6161 3.3594
-1.8772 2.0805
ITEM: ATOMS id type xs ys zs
1 1 .487225 .993024 .564714
2 1 .989230 .618708 .528396
3 1 .805356 .014572 .436371
4 1 .208114 .007716 .449869
5 1 .008529 .604794 .525488
6 1 .503162 .426983 .989811
7 1 .501464 .481511 .012667
ITEM: TIMESTEP
250
ITEM: NUMBER OF ATOMS
7
ITEM: BOX BOUNDS ss ss ss
-3.0067 3.3605
-2.6161 3.3651
-1.8860 2.0877
ITEM: ATOMS id type xs ys zs
1 1 .488697 .992663 .565225
2 1 .987463 .619997 .526215
3 1 .805408 .015281 .437584
4 1 .206056 .008793 .451124
5 1 .007560 .604303 .524064
6 1 .502493 .427304 .987760
7 1 .503019 .479621 .014188
ITEM: TIMESTEP
300
ITEM: NUMBER OF ATOMS
7
ITEM: BOX BOUNDS ss ss ss
-3.0104 3.3483
-2.6172 3.3669
-1.8690 2.0819
ITEM: ATOMS id type xs ys zs
1 1 .488829 .992166 .565689
2 1 .989910 .621296 .524752
3 1 .805744 .015554 .437549
4 1 .209620 .008822 .450336
5 1 .009200 .604569 .523773
6 1 .502893 .426247 .991478
7 1 .502904 .480167 .010745
ITEM: TIMESTEP
350
ITEM: NUMBER OF ATOMS
7
ITEM: BOX BOUNDS ss ss ss
-3.0151 3.3456
-2.6146 3.3653
-1.8710 2.0867
ITEM: ATOMS id type xs ys zs
1 1 .493033 .992524 .566082
2 1 .988317 .620600 .525537
3 1 .809158 .013278 .440347
4 1 .208614 .006774 .446440
5 1 .008690 .604668 .518291
6 1 .503665 .425974 .986513
7 1 .504235 .477925 .012744
ITEM: TIMESTEP
400
ITEM: NUMBER OF ATOMS
7
ITEM: BOX BOUNDS ss ss ss
-3.0121 3.3425
-2.6183 3.3659
-1.8723 2.0956
ITEM: ATOMS id type xs ys zs
1 1 .493421 .992734 .564745
2 1 .991261 .619953 .520034
3 1 .808579 .016730 .435316
4 1 .208973 .008292 .449789
5 1 .012139 .607068 .521316
6 1 .505259 .424696 .989627
7 1 .501653 .478716 .010756
ITEM: TIMESTEP
1
ITEM: NUMBER OF ATOMS
7
ITEM: BOX BOUNDS ss ss ss
-2.9789 3.3122
-2.5993 3.3442
-1.8592 2.0720
ITEM: ATOMS id type xs ys zs
1 1 .486756 .993529 .567676
2 1 .999172 .612794 .527059
3 1 .812581 .014489 .430471
4 1 .208008 .005282 .450647
5 1 .002063 .609114 .524380
6 1 .506663 .428451 .989663
7 1 .503017 .474898 .004957
ITEM: TIMESTEP
50
ITEM: NUMBER OF ATOMS
7
ITEM: BOX BOUNDS ss ss ss
-2.9962 3.3366
-2.5993 3.3442
-1.8675 2.0720
ITEM: ATOMS id type xs ys zs
1 1 .488047 .993557 .567918
2 1 .995094 .615405 .528173
3 1 .810784 .013874 .433231
4 1 .208198 .006231 .452443
5 1 .007551 .607677 .525829
6 1 .506546 .428747 .990509
7 1 .502879 .475214 .008565
ITEM: TIMESTEP
100
ITEM: NUMBER OF ATOMS
7
ITEM: BOX BOUNDS ss ss ss
-3.0108 3.3540
-2.6007 3.3537
-1.8753 2.0720
ITEM: ATOMS id type xs ys zs
1 1 .489965 .991080 .569607
2 1 .990562 .612067 .527990
3 1 .808930 .010949 .432076
4 1 .209589 .004225 .447220
5 1 .011300 .608869 .527439
6 1 .504360 .425020 .988406
7 1 .501462 .476501 .008340
ITEM: TIMESTEP
150
ITEM: NUMBER OF ATOMS
7
ITEM: BOX BOUNDS ss ss ss
-3.0152 3.3648
-2.6046 3.3473
-1.8753 2.0816
ITEM: ATOMS id type xs ys zs
1 1 .489413 .992807 .568140
2 1 .989740 .617505 .521165
3 1 .806298 .011947 .429450
4 1 .206970 .004146 .447698
5 1 .008054 .610308 .527939
6 1 .501627 .426392 .987077
7 1 .500286 .476681 .011347
ITEM: TIMESTEP
200
ITEM: NUMBER OF ATOMS
7
ITEM: BOX BOUNDS ss ss ss
-3.0078 3.3540
-2.6091 3.3578
-1.8763 2.0856
ITEM: ATOMS id type xs ys zs
1 1 .490170 .990771 .570472
2 1 .990230 .616325 .522731
3 1 .807853 .014192 .430203
4 1 .206710 .005922 .447164
5 1 .007341 .607697 .527046
6 1 .503039 .425409 .987925
7 1 .499956 .475715 .010701
ITEM: TIMESTEP
250
ITEM: NUMBER OF ATOMS
7
ITEM: BOX BOUNDS ss ss ss
-3.0161 3.3555
-2.6102 3.3630
-1.8823 2.0785
ITEM: ATOMS id type xs ys zs
1 1 .488375 .990498 .567199
2 1 .988378 .616335 .522097
3 1 .808057 .010764 .432769
4 1 .208431 .003750 .450766
5 1 .010608 .607099 .528419
6 1 .506035 .423121 .988302
7 1 .501270 .475527 .011177
ITEM: TIMESTEP
300
ITEM: NUMBER OF ATOMS
7
ITEM: BOX BOUNDS ss ss ss
-3.0174 3.3524
-2.6273 3.3654
-1.8720 2.0809
ITEM: ATOMS id type xs ys zs
1 1 .492728 .990515 .567689
2 1 .989114 .617866 .522755
3 1 .806129 .012869 .436914
4 1 .208043 .010550 .453330
5 1 .012168 .607386 .524495
6 1 .506350 .426400 .989928
7 1 .501895 .477968 .007485
ITEM: TIMESTEP
350
ITEM: NUMBER OF ATOMS
7
ITEM: BOX BOUNDS ss ss ss
-3.0126 3.3455
-2.6194 3.3706
-1.8783 2.0943
ITEM: ATOMS id type xs ys zs
1 1 .494416 .990298 .566445
2 1 .990316 .618289 .520483
3 1 .806937 .012183 .434702
4 1 .209027 .007630 .450380
5 1 .010845 .607835 .519392
6 1 .505430 .425569 .986745
7 1 .501295 .476458 .011680
ITEM: TIMESTEP
400
ITEM: NUMBER OF ATOMS
7
ITEM: BOX BOUNDS ss ss ss
-3.0059 3.3359
-2.6179 3.3765
-1.8833 2.1025
ITEM: ATOMS id type xs ys zs
1 1 .495248 .988522 .565387
2 1 .991165 .617725 .519007
3 1 .807936 .011910 .438037
4 1 .208027 .007623 .451542
5 1 .010022 .607213 .519691
6 1 .504824 .423187 .984294
7 1 .501544 .475377 .014850
ITEM: TIMESTEP
1
ITEM: NUMBER OF ATOMS
7
ITEM: BOX BOUNDS ss ss ss
-2.9704 3.3136
-2.6014 3.3438
-1.8603 2.0601
ITEM: ATOMS id type xs ys zs
1 1 .485933 .993612 .569531
2 1 .998943 .612981 .528766
3 1 .812139 .014819 .431972
4 1 .206887 .005652 .452194
5 1 .000718 .609265 .526132
6 1 .505878 .428686 .992653
7 1 .502212 .475102 .005249
ITEM: TIMESTEP
50
ITEM: NUMBER OF ATOMS
7
ITEM: BOX BOUNDS ss ss ss
-2.9968 3.3379
-2.6014 3.3438
-1.8704 2.0601
ITEM: ATOMS id type xs ys zs
1 1 .487360 .994258 .569801
2 1 .995254 .614383 .528223
3 1 .809926 .013313 .434447
4 1 .208784 .006346 .453611
5 1 .005887 .608843 .527561
6 1 .503582 .428827 .995373
7 1 .502245 .476060 .009396
ITEM: TIMESTEP
100
ITEM: NUMBER OF ATOMS
7
ITEM: BOX BOUNDS ss ss ss
-3.0061 3.3534
-2.6106 3.3438
-1.8777 2.0678
ITEM: ATOMS id type xs ys zs
1 1 .489164 .994236 .569229
2 1 .991632 .617490 .530333
3 1 .808334 .014260 .437299
4 1 .209108 .007232 .453361
5 1 .007640 .609241 .524695
6 1 .504632 .428788 .991549
7 1 .502841 .473741 .009701
ITEM: TIMESTEP
150
ITEM: NUMBER OF ATOMS
7
ITEM: BOX BOUNDS ss ss ss
-3.0079 3.3618
-2.6074 3.3504
-1.8817 2.0813
ITEM: ATOMS id type xs ys zs
1 1 .488035 .992412 .567706
2 1 .990294 .617303 .530830
3 1 .810916 .013426 .433948
4 1 .207934 .006655 .453373
5 1 .007721 .607995 .523926
6 1 .503186 .424868 .989354
7 1 .502592 .473423 .013766
ITEM: TIMESTEP
200
ITEM: NUMBER OF ATOMS
7
ITEM: BOX BOUNDS ss ss ss
-3.0121 3.3644
-2.6148 3.3504
-1.8779 2.0833
ITEM: ATOMS id type xs ys zs
1 1 .489711 .993041 .563666
2 1 .989318 .617031 .527518
3 1 .810029 .012942 .434121
4 1 .210814 .007629 .454531
5 1 .009996 .608287 .522115
6 1 .504479 .427402 .986677
7 1 .502206 .475747 .011483
ITEM: TIMESTEP
250
ITEM: NUMBER OF ATOMS
7
ITEM: BOX BOUNDS ss ss ss
-3.0071 3.3580
-2.6193 3.3670
-1.8783 2.0731
ITEM: ATOMS id type xs ys zs
1 1 .490847 .987570 .564826
2 1 .990172 .615926 .530006
3 1 .808523 .013138 .433230
4 1 .208627 .008753 .450555
5 1 .007432 .608144 .519937
6 1 .501284 .425094 .990619
7 1 .503174 .475268 .010041
ITEM: TIMESTEP
300
ITEM: NUMBER OF ATOMS
7
ITEM: BOX BOUNDS ss ss ss
-3.0003 3.3634
-2.6184 3.3769
-1.8743 2.0774
ITEM: ATOMS id type xs ys zs
1 1 .490721 .987446 .563543
2 1 .989607 .615949 .530570
3 1 .806846 .011950 .432447
4 1 .208366 .007831 .449880
5 1 .006885 .607031 .519631
6 1 .501644 .423991 .990836
7 1 .502149 .475448 .009287
ITEM: TIMESTEP
350
ITEM: NUMBER OF ATOMS
7
ITEM: BOX BOUNDS ss ss ss
-3.0023 3.3724
-2.6220 3.3737
-1.8672 2.0927
ITEM: ATOMS id type xs ys zs
1 1 .490768 .987414 .562280
2 1 .987953 .616257 .528969
3 1 .806292 .013270 .433279
4 1 .207337 .008462 .445274
5 1 .008730 .608838 .516525
6 1 .500872 .423216 .985846
7 1 .500405 .476247 .009104
ITEM: TIMESTEP
400
ITEM: NUMBER OF ATOMS
7
ITEM: BOX BOUNDS ss ss ss
-3.0014 3.3595
-2.6205 3.3795
-1.8781 2.0796
ITEM: ATOMS id type xs ys zs
1 1 .492942 .987259 .567028
2 1 .989883 .615754 .531332
3 1 .807383 .012493 .436839
4 1 .206826 .008519 .447913
5 1 .008947 .607337 .518789
6 1 .502160 .422189 .988329
7 1 .502476 .476309 .011129
ITEM: TIMESTEP
1
ITEM: NUMBER OF ATOMS
7
ITEM: BOX BOUNDS ss ss ss
-2.9722 3.3189
-2.6014 3.3438
-1.8607 2.0601
ITEM: ATOMS id type xs ys zs
1 1 .485672 .993598 .569565
2 1 .998105 .612987 .528794
3 1 .811531 .014848 .432028
4 1 .206964 .005672 .452216
5 1 .000981 .609301 .526165
6 1 .505604 .428702 .992689
7 1 .501950 .475111 .005364
ITEM: TIMESTEP
50
ITEM: NUMBER OF ATOMS
7
ITEM: BOX BOUNDS ss ss ss
-3.0010 3.3431
-2.6014 3.3438
-1.8758 2.0601
ITEM: ATOMS id type xs ys zs
1 1 .486640 .993885 .567957
2 1 .992782 .615264 .532181
3 1 .810608 .015498 .436602
4 1 .209743 .005655 .458402
5 1 .007082 .609501 .526577
6 1 .504942 .428695 .992876
7 1 .502306 .476244 .005194
ITEM: TIMESTEP
100
ITEM: NUMBER OF ATOMS
7
ITEM: BOX BOUNDS ss ss ss
-3.0100 3.3587
-2.6014 3.3438
-1.8779 2.0723
ITEM: ATOMS id type xs ys zs
1 1 .486469 .993829 .564673
2 1 .989747 .616367 .529754
3 1 .808411 .014876 .435794
4 1 .209815 .007194 .456809
5 1 .008201 .609706 .524778
6 1 .504408 .428244 .989601
7 1 .501719 .476387 .006520
ITEM: TIMESTEP
150
ITEM: NUMBER OF ATOMS
7
ITEM: BOX BOUNDS ss ss ss
-3.0113 3.3820
-2.6056 3.3477
-1.8890 2.0720
ITEM: ATOMS id type xs ys zs
1 1 .487547 .992530 .563972
2 1 .984983 .617273 .531352
3 1 .803903 .015533 .436932
4 1 .208758 .008134 .460910
5 1 .009387 .610667 .526346
6 1 .501922 .428421 .987544
7 1 .500886 .478455 .006837
ITEM: TIMESTEP
200
ITEM: NUMBER OF ATOMS
7
ITEM: BOX BOUNDS ss ss ss
-3.0101 3.3649
-2.6195 3.3519
-1.9090 2.0876
ITEM: ATOMS id type xs ys zs
1 1 .489642 .991867 .563343
2 1 .989899 .620428 .527082
3 1 .805294 .016651 .434776
4 1 .207932 .011302 .459293
5 1 .008655 .610080 .530430
6 1 .503126 .428198 .984089
7 1 .503361 .480730 .015151
ITEM: TIMESTEP
250
ITEM: NUMBER OF ATOMS
7
ITEM: BOX BOUNDS ss ss ss
-3.0101 3.3676
-2.6244 3.3528
-1.8927 2.0856
ITEM: ATOMS id type xs ys zs
1 1 .491591 .993060 .560167
2 1 .991124 .621217 .526627
3 1 .805634 .018571 .433393
4 1 .208245 .010155 .457405
5 1 .010168 .611204 .527752
6 1 .504897 .429028 .983560
7 1 .501732 .480582 .012323
ITEM: TIMESTEP
300
ITEM: NUMBER OF ATOMS
7
ITEM: BOX BOUNDS ss ss ss
-3.0116 3.3572
-2.6106 3.3553
-1.8976 2.0870
ITEM: ATOMS id type xs ys zs
1 1 .493799 .993453 .560773
2 1 .991472 .620810 .525664
3 1 .807659 .017020 .433452
4 1 .209707 .008056 .458867
5 1 .010859 .608815 .529093
6 1 .505258 .427432 .986101
7 1 .502583 .478875 .013244
ITEM: TIMESTEP
350
ITEM: NUMBER OF ATOMS
7
ITEM: BOX BOUNDS ss ss ss
-3.0095 3.3615
-2.6110 3.3643
-1.8972 2.0894
ITEM: ATOMS id type xs ys zs
1 1 .495072 .992416 .559996
2 1 .991435 .619180 .525364
3 1 .807452 .017676 .433996
4 1 .208477 .008939 .458832
5 1 .011341 .608089 .527018
6 1 .504937 .428105 .988172
7 1 .500528 .478091 .014841
ITEM: TIMESTEP
400
ITEM: NUMBER OF ATOMS
7
ITEM: BOX BOUNDS ss ss ss
-3.0077 3.3656
-2.6270 3.3516
-1.8983 2.0828
ITEM: ATOMS id type xs ys zs
1 1 .495036 .994715 .561788
2 1 .989540 .622754 .527531
3 1 .807796 .020167 .435086
4 1 .207300 .010899 .457369
5 1 .012158 .610985 .525038
6 1 .503979 .430220 .989801
7 1 .500358 .480553 .012299
ITEM: TIMESTEP
1
ITEM: NUMBER OF ATOMS
7
ITEM: BOX BOUNDS ss ss ss
-2.9705 3.3401
-2.5954 3.3403
-1.8711 2.0656
ITEM: ATOMS id type xs ys zs
1 1 .483943 .994193 .569835
2 1 .994753 .612967 .529329
3 1 .808750 .013864 .432925
4 1 .206000 .004657 .453055
5 1 .000715 .609279 .526697
6 1 .503733 .428379 .991312
7 1 .500085 .474854 .008002
ITEM: TIMESTEP
50
ITEM: NUMBER OF ATOMS
7
ITEM: BOX BOUNDS ss ss ss
-2.9978 3.3436
-2.5954 3.3403
-1.8711 2.0656
ITEM: ATOMS id type xs ys zs
1 1 .486039 .994562 .566733
2 1 .994630 .616250 .530658
3 1 .809722 .011489 .431229
4 1 .208601 .006289 .451369
5 1 .005260 .609474 .528749
6 1 .504698 .426775 .990789
7 1 .501195 .476164 .008091
ITEM: TIMESTEP
100
ITEM: NUMBER OF ATOMS
7
ITEM: BOX BOUNDS ss ss ss
-3.0018 3.3575
-2.5981 3.3425
-1.8756 2.0656
ITEM: ATOMS id type xs ys zs
1 1 .485457 .994603 .568110
2 1 .990945 .618363 .528806
3 1 .808432 .012194 .433609
4 1 .207630 .005719 .455145
5 1 .005672 .607149 .530358
6 1 .504938 .425401 .992021
7 1 .501497 .476800 .008828
ITEM: TIMESTEP
150
ITEM: NUMBER OF ATOMS
7
ITEM: BOX BOUNDS ss ss ss
-3.0135 3.3612
-2.5976 3.3551
-1.8853 2.0739
ITEM: ATOMS id type xs ys zs
1 1 .487126 .992001 .569760
2 1 .991818 .616010 .528245
3 1 .808316 .011060 .434442
4 1 .210336 .004735 .453441
5 1 .010213 .605304 .530440
6 1 .504669 .423878 .989601
7 1 .500852 .476792 .012170
ITEM: TIMESTEP
200
ITEM: NUMBER OF ATOMS
7
ITEM: BOX BOUNDS ss ss ss
-3.0100 3.3641
-2.6077 3.3515
-1.8795 2.0824
ITEM: ATOMS id type xs ys zs
1 1 .487539 .993501 .569241
2 1 .990915 .617623 .527048
3 1 .807957 .012510 .432386
4 1 .208509 .006728 .453590
5 1 .009678 .607215 .528682
6 1 .505817 .424193 .988223
7 1 .501906 .478498 .012811
ITEM: TIMESTEP
250
ITEM: NUMBER OF ATOMS
7
ITEM: BOX BOUNDS ss ss ss
-3.0216 3.3644
-2.6130 3.3599
-1.8854 2.0867
ITEM: ATOMS id type xs ys zs
1 1 .489853 .992315 .571049
2 1 .990298 .616355 .526501
3 1 .808552 .014276 .434087
4 1 .210424 .006670 .452436
5 1 .011597 .605902 .527240
6 1 .506306 .424308 .987026
7 1 .503057 .479723 .015016
ITEM: TIMESTEP
300
ITEM: NUMBER OF ATOMS
7
ITEM: BOX BOUNDS ss ss ss
-3.0090 3.3616
-2.6185 3.3573
-1.8788 2.0965
ITEM: ATOMS id type xs ys zs
1 1 .487941 .991374 .569930
2 1 .987486 .617440 .520710
3 1 .807598 .014888 .432739
4 1 .209623 .007189 .450408
5 1 .012005 .606915 .527476
6 1 .504574 .424841 .985461
7 1 .501222 .479975 .012651
ITEM: TIMESTEP
350
ITEM: NUMBER OF ATOMS
7
ITEM: BOX BOUNDS ss ss ss
-3.0057 3.3673
-2.6141 3.3650
-1.8767 2.0954
ITEM: ATOMS id type xs ys zs
1 1 .489022 .989930 .572074
2 1 .985269 .617041 .519300
3 1 .805987 .012908 .435957
4 1 .209748 .007370 .450612
5 1 .011166 .605825 .526189
6 1 .503371 .421641 .987708
7 1 .501028 .479939 .008976
ITEM: TIMESTEP
400
ITEM: NUMBER OF ATOMS
7
ITEM: BOX BOUNDS ss ss ss
-3.0167 3.3589
-2.6151 3.3730
-1.8759 2.0865
ITEM: ATOMS id type xs ys zs
1 1 .491195 .989600 .572659
2 1 .987315 .616279 .519942
3 1 .806853 .014670 .434441
4 1 .209537 .007401 .452506
5 1 .013581 .605898 .527875
6 1 .505368 .423272 .990874
7 1 .502729 .479438 .009964
ITEM: TIMESTEP
1
ITEM: NUMBER OF ATOMS
7
ITEM: BOX BOUNDS ss ss ss
-2.9708 3.3360
-2.5997 3.3431
-1.8560 2.0823
ITEM: ATOMS id type xs ys zs
1 1 .484268 .993688 .565810
2 1 .995398 .612967 .525234
3 1 .809282 .014572 .429003
4 1 .206221 .005372 .449031
5 1 .000772 .609264 .522661
6 1 .504132 .428606 .987101
7 1 .500444 .475082 .004129
ITEM: TIMESTEP
50
ITEM: NUMBER OF ATOMS
7
ITEM: BOX BOUNDS ss ss ss
-2.9965 3.3412
-2.5997 3.3431
-1.8706 2.0823
ITEM: ATOMS id type xs ys zs
1 1 .486117 .994964 .566853
2 1 .994561 .613978 .526977
3 1 .808622 .013576 .432696
4 1 .209033 .005475 .450234
5 1 .004666 .608848 .523335
6 1 .505098 .428371 .987349
7 1 .501426 .476961 .008894
ITEM: TIMESTEP
100
ITEM: NUMBER OF ATOMS
7
ITEM: BOX BOUNDS ss ss ss
-3.0151 3.3581
-2.6040 3.3480
-1.8732 2.0823
ITEM: ATOMS id type xs ys zs
1 1 .487227 .994049 .564738
2 1 .993052 .614912 .528943
3 1 .808106 .014446 .438048
4 1 .210320 .005390 .448565
5 1 .007073 .610050 .525277
6 1 .505536 .428139 .987671
7 1 .499678 .478657 .008351
ITEM: TIMESTEP
150
ITEM: NUMBER OF ATOMS
7
ITEM: BOX BOUNDS ss ss ss
-3.0110 3.3800
-2.6133 3.3643
-1.8791 2.0823
ITEM: ATOMS id type xs ys zs
1 1 .485030 .990905 .565906
2 1 .988544 .614353 .529007
3 1 .805313 .017331 .441142
4 1 .210572 .008510 .448692
5 1 .005614 .608166 .524153
6 1 .500904 .427823 .989562
7 1 .497193 .478316 .010711
ITEM: TIMESTEP
200
ITEM: NUMBER OF ATOMS
7
ITEM: BOX BOUNDS ss ss ss
-3.0166 3.3684
-2.6160 3.3673
-1.8772 2.0823
ITEM: ATOMS id type xs ys zs
1 1 .487492 .992540 .563066
2 1 .992013 .614559 .526387
3 1 .806509 .015322 .440280
4 1 .210883 .007485 .452295
5 1 .007206 .607883 .527473
6 1 .504773 .426746 .986918
7 1 .498698 .478103 .012039
ITEM: TIMESTEP
250
ITEM: NUMBER OF ATOMS
7
ITEM: BOX BOUNDS ss ss ss
-3.0206 3.3728
-2.6171 3.3688
-1.8758 2.0823
ITEM: ATOMS id type xs ys zs
1 1 .485465 .990429 .562585
2 1 .987778 .615790 .530377
3 1 .806487 .017331 .439113
4 1 .211034 .010310 .449767
5 1 .005669 .608017 .522426
6 1 .502046 .426902 .988841
7 1 .497919 .480306 .011358
ITEM: TIMESTEP
300
ITEM: NUMBER OF ATOMS
7
ITEM: BOX BOUNDS ss ss ss
-3.0231 3.3713
-2.6051 3.3721
-1.8741 2.0900
ITEM: ATOMS id type xs ys zs
1 1 .486429 .989398 .560526
2 1 .988018 .615298 .525738
3 1 .806958 .016507 .436423
4 1 .209588 .007898 .447915
5 1 .006804 .606986 .523379
6 1 .505018 .424139 .983401
7 1 .499436 .478544 .010407
ITEM: TIMESTEP
350
ITEM: NUMBER OF ATOMS
7
ITEM: BOX BOUNDS ss ss ss
-3.0173 3.3757
-2.6130 3.3732
-1.8660 2.0893
ITEM: ATOMS id type xs ys zs
1 1 .484883 .992669 .563007
2 1 .987698 .614819 .527527
3 1 .801286 .013661 .429987
4 1 .210078 .008781 .446935
5 1 .007667 .603229 .517542
6 1 .501763 .426408 .989291
7 1 .500987 .480608 .013099
ITEM: TIMESTEP
400
ITEM: NUMBER OF ATOMS
7
ITEM: BOX BOUNDS ss ss ss
-3.0266 3.3704
-2.6087 3.3831
-1.8675 2.0823
ITEM: ATOMS id type xs ys zs
1 1 .485596 .989784 .567342
2 1 .989649 .614549 .529355
3 1 .804294 .012313 .432114
4 1 .211210 .006321 .449506
5 1 .008282 .602119 .520311
6 1 .502915 .425119 .988954
7 1 .502014 .479409 .015147
ITEM: TIMESTEP
1
ITEM: NUMBER OF ATOMS
7
ITEM: BOX BOUNDS ss ss ss
-2.9991 3.3456
-2.5997 3.3573
-1.8560 2.0823
ITEM: ATOMS id type xs ys zs
1 1 .485813 .991338 .565871
2 1 .993929 .611470 .525300
3 1 .808919 .014539 .428932
4 1 .209465 .005350 .449028
5 1 .005241 .607799 .522647
6 1 .505563 .427556 .987064
7 1 .501945 .473875 .004164
ITEM: TIMESTEP
50
ITEM: NUMBER OF ATOMS
7
ITEM: BOX BOUNDS ss ss ss
-2.9991 3.3456
-2.5997 3.3573
-1.8695 2.0823
ITEM: ATOMS id type xs ys zs
1 1 .485859 .992621 .566281
2 1 .992143 .613398 .524391
3 1 .809077 .012581 .432249
4 1 .208827 .004522 .452272
5 1 .004404 .608569 .522145
6 1 .504779 .425524 .986449
7 1 .502023 .472289 .009789
ITEM: TIMESTEP
100
ITEM: NUMBER OF ATOMS
7
ITEM: BOX BOUNDS ss ss ss
-3.0145 3.3563
-2.6036 3.3573
-1.8774 2.0823
ITEM: ATOMS id type xs ys zs
1 1 .484828 .993478 .568360
2 1 .989885 .614392 .526682
3 1 .807687 .012909 .434095
4 1 .211150 .006321 .451981
5 1 .008047 .607440 .525401
6 1 .504315 .425942 .989116
7 1 .501623 .474150 .012502
ITEM: TIMESTEP
150
ITEM: NUMBER OF ATOMS
7
ITEM: BOX BOUNDS ss ss ss
-3.0238 3.3648
-2.6067 3.3573
-1.8784 2.0823
ITEM: ATOMS id type xs ys zs
1 1 .485296 .994626 .566797
2 1 .988953 .615404 .528220
3 1 .806650 .013717 .434750
4 1 .210705 .005466 .453826
5 1 .009736 .608003 .524699
6 1 .502243 .426101 .989959
7 1 .501003 .475280 .015853
ITEM: TIMESTEP
200
ITEM: NUMBER OF ATOMS
7
ITEM: BOX BOUNDS ss ss ss
-3.0223 3.3692
-2.6014 3.3573
-1.8781 2.0840
ITEM: ATOMS id type xs ys zs
1 1 .484939 .994579 .567138
2 1 .987462 .616249 .526493
3 1 .806479 .012932 .435073
4 1 .207731 .004704 .453912
5 1 .008439 .606113 .523290
6 1 .500906 .424601 .989459
7 1 .499667 .476719 .015517
ITEM: TIMESTEP
250
ITEM: NUMBER OF ATOMS
7
ITEM: BOX BOUNDS ss ss ss
-3.0271 3.3699
-2.6128 3.3588
-1.8795 2.0823
ITEM: ATOMS id type xs ys zs
1 1 .486376 .993578 .565586
2 1 .986141 .617475 .526952
3 1 .806820 .016497 .433969
4 1 .209490 .006933 .452096
5 1 .009527 .606932 .523642
6 1 .500816 .425574 .990884
7 1 .500621 .477827 .014005
ITEM: TIMESTEP
300
ITEM: NUMBER OF ATOMS
7
ITEM: BOX BOUNDS ss ss ss
-3.0158 3.3785
-2.6178 3.3671
-1.8907 2.0825
ITEM: ATOMS id type xs ys zs
1 1 .486012 .993011 .568757
2 1 .985812 .618120 .526300
3 1 .805589 .018272 .438349
4 1 .209268 .008348 .454134
5 1 .008150 .606222 .524896
6 1 .500010 .424309 .993193
7 1 .497519 .480136 .017680
ITEM: TIMESTEP
350
ITEM: NUMBER OF ATOMS
7
ITEM: BOX BOUNDS ss ss ss
-3.0185 3.3622
-2.6282 3.3805
-1.8571 2.0908
ITEM: ATOMS id type xs ys zs
1 1 .487983 .991638 .565635
2 1 .986795 .620001 .520223
3 1 .809228 .019137 .433138
4 1 .211136 .010400 .447963
5 1 .008264 .606164 .519075
6 1 .501990 .424162 .990219
7 1 .501717 .482424 .008729
ITEM: TIMESTEP
400
ITEM: NUMBER OF ATOMS
7
ITEM: BOX BOUNDS ss ss ss
-3.0355 3.3475
-2.6270 3.3752
-1.8586 2.0847
ITEM: ATOMS id type xs ys zs
1 1 .489558 .991557 .568588
2 1 .988326 .621222 .522751
3 1 .810630 .017860 .433589
4 1 .212436 .010061 .443725
5 1 .011214 .608231 .521016
6 1 .504836 .424574 .991371
7 1 .502828 .482350 .011849
ITEM: TIMESTEP
1
ITEM: NUMBER OF ATOMS
7
ITEM: BOX BOUNDS ss ss ss
-2.9985 3.3130
-2.6010 3.3545
-1.8437 2.0715
ITEM: ATOMS id type xs ys zs
1 1 .488280 .991785 .565993
2 1 .999029 .611850 .525198
3 1 .813112 .014734 .428300
4 1 .210445 .005537 .448494
5 1 .005152 .608138 .522580
6 1 .508145 .427859 .989758
7 1 .504465 .474214 .001011
ITEM: TIMESTEP
50
ITEM: NUMBER OF ATOMS
7
ITEM: BOX BOUNDS ss ss ss
-2.9995 3.3443
-2.6010 3.3545
-1.8680 2.0715
ITEM: ATOMS id type xs ys zs
1 1 .487515 .993569 .570313
2 1 .994825 .616316 .526556
3 1 .808482 .014665 .433974
4 1 .209916 .005722 .452364
5 1 .005672 .607122 .525838
6 1 .506750 .429836 .987243
7 1 .502160 .475894 .007581
ITEM: TIMESTEP
100
ITEM: NUMBER OF ATOMS
7
ITEM: BOX BOUNDS ss ss ss
-3.0156 3.3540
-2.6050 3.3545
-1.8852 2.0715
ITEM: ATOMS id type xs ys zs
1 1 .488461 .991698 .567612
2 1 .994056 .616776 .527305
3 1 .809744 .015133 .439049
4 1 .212243 .008780 .454696
5 1 .006450 .607764 .525238
6 1 .506380 .426774 .987364
7 1 .502019 .477523 .009379
ITEM: TIMESTEP
150
ITEM: NUMBER OF ATOMS
7
ITEM: BOX BOUNDS ss ss ss
-3.0147 3.3678
-2.6020 3.3545
-1.8838 2.0715
ITEM: ATOMS id type xs ys zs
1 1 .488123 .990649 .565351
2 1 .991195 .616955 .527862
3 1 .807677 .013949 .439155
4 1 .210924 .007264 .452457
5 1 .005027 .606188 .526135
6 1 .504516 .425217 .989635
7 1 .500290 .478067 .009135
ITEM: TIMESTEP
200
ITEM: NUMBER OF ATOMS
7
ITEM: BOX BOUNDS ss ss ss
-3.0201 3.3879
-2.6029 3.3545
-1.8942 2.0715
ITEM: ATOMS id type xs ys zs
1 1 .487288 .993951 .565951
2 1 .986481 .617232 .528284
3 1 .804318 .012315 .442227
4 1 .209592 .008402 .462141
5 1 .008171 .609260 .526267
6 1 .503874 .427943 .989702
7 1 .499272 .474797 .013678
ITEM: TIMESTEP
250
ITEM: NUMBER OF ATOMS
7
ITEM: BOX BOUNDS ss ss ss
-3.0284 3.3663
-2.6073 3.3583
-1.8920 2.0738
ITEM: ATOMS id type xs ys zs
1 1 .489343 .990649 .562987
2 1 .989301 .616910 .530908
3 1 .808855 .012868 .441728
4 1 .213130 .004137 .450794
5 1 .009482 .602624 .526817
6 1 .504466 .427177 .987959
7 1 .500453 .475871 .012523
ITEM: TIMESTEP
300
ITEM: NUMBER OF ATOMS
7
ITEM: BOX BOUNDS ss ss ss
-3.0401 3.3636
-2.6108 3.3565
-1.8885 2.0741
ITEM: ATOMS id type xs ys zs
1 1 .493040 .993852 .565151
2 1 .988521 .618232 .530184
3 1 .807865 .010661 .439247
4 1 .210889 .008090 .460445
5 1 .012174 .608914 .521767
6 1 .503241 .429502 .988898
7 1 .503664 .474223 .011520
ITEM: TIMESTEP
350
ITEM: NUMBER OF ATOMS
7
ITEM: BOX BOUNDS ss ss ss
-3.0295 3.3697
-2.6175 3.3571
-1.8841 2.0901
ITEM: ATOMS id type xs ys zs
1 1 .491849 .995712 .562399