ITEM: TIMESTEP
1
ITEM: NUMBER OF ATOMS
7
ITEM: BOX BOUNDS ss ss ss
-2.9701 3.3111
-2.5715 3.3094
-1.8434 2.0348
ITEM: ATOMS id type xs ys zs
1 1 .485961 .999209 .571288
2 1 .999415 .614520 .530039
3 1 .812565 .010302 .432367
4 1 .206990 .000695 .452673
5 1 .000631 .611172 .527273
6 1 .505948 .428530 .999150
7 1 .502587 .475431 .001227
ITEM: TIMESTEP
50
ITEM: NUMBER OF ATOMS
7
ITEM: BOX BOUNDS ss ss ss
-2.9936 3.3387
-2.5943 3.3332
-1.8661 2.0556
ITEM: ATOMS id type xs ys zs
1 1 .486970 .995071 .567151
2 1 .994464 .611793 .527888
3 1 .808778 .014199 .430273
4 1 .208489 .003248 .452558
5 1 .005060 .609532 .524317
6 1 .506406 .430124 .993945
7 1 .501667 .475787 .008948
ITEM: TIMESTEP
100
ITEM: NUMBER OF ATOMS
7
ITEM: BOX BOUNDS ss ss ss
-3.0034 3.3447
-2.6010 3.3447
-1.8802 2.0698
ITEM: ATOMS id type xs ys zs
1 1 .484519 .993898 .571150
2 1 .997012 .614884 .532054
3 1 .810616 .012501 .431337
4 1 .208619 .006580 .452624
5 1 .003469 .606239 .530272
6 1 .505622 .427058 .989461
7 1 .501752 .475119 .010504
ITEM: TIMESTEP
150
ITEM: NUMBER OF ATOMS
7
ITEM: BOX BOUNDS ss ss ss
-3.0031 3.3570
-2.6061 3.3495
-1.8787 2.0712
ITEM: ATOMS id type xs ys zs
1 1 .483720 .993974 .569727
2 1 .991961 .614018 .527916
3 1 .805633 .015034 .433855
4 1 .208847 .009711 .457830
5 1 .007093 .608178 .529448
6 1 .505116 .429113 .990373
7 1 .503282 .480701 .009116
ITEM: TIMESTEP
200
ITEM: NUMBER OF ATOMS
7
ITEM: BOX BOUNDS ss ss ss
-3.0077 3.3534
-2.6025 3.3612
-1.8873 2.0790
ITEM: ATOMS id type xs ys zs
1 1 .493375 .992612 .565221
2 1 .995066 .614097 .526307
3 1 .810506 .012411 .441125
4 1 .210805 .004468 .456008
5 1 .006076 .610173 .526228
6 1 .504717 .427569 .990865
7 1 .500678 .478256 .013742
ITEM: TIMESTEP
250
ITEM: NUMBER OF ATOMS
7
ITEM: BOX BOUNDS ss ss ss
-3.0117 3.3533
-2.6053 3.3631
-1.8768 2.0865
ITEM: ATOMS id type xs ys zs
1 1 .489395 .990256 .560636
2 1 .993703 .614880 .522658
3 1 .811014 .011322 .432423
4 1 .208406 .004586 .453624
5 1 .006667 .605226 .518649
6 1 .505991 .424228 .983017
7 1 .503028 .474537 .007664
ITEM: TIMESTEP
300
ITEM: NUMBER OF ATOMS
7
ITEM: BOX BOUNDS ss ss ss
-3.0096 3.3480
-2.6113 3.3656
-1.8773 2.0934
ITEM: ATOMS id type xs ys zs
1 1 .487993 .989817 .562196
2 1 .994549 .614969 .520328
3 1 .811963 .012877 .432383
4 1 .208972 .006769 .455558
5 1 .008198 .605397 .518683
6 1 .505311 .422817 .982114
7 1 .505111 .475848 .006290
ITEM: TIMESTEP
350
ITEM: NUMBER OF ATOMS
7
ITEM: BOX BOUNDS ss ss ss
-2.9975 3.3469
-2.6236 3.3602
-1.8753 2.0905
ITEM: ATOMS id type xs ys zs
1 1 .488992 .992034 .563022
2 1 .993823 .613496 .522737
3 1 .813425 .013657 .429627
4 1 .208988 .007826 .457164
5 1 .006618 .605307 .516169
6 1 .505062 .424291 .984725
7 1 .504614 .475482 .008273
ITEM: TIMESTEP
400
ITEM: NUMBER OF ATOMS
7
ITEM: BOX BOUNDS ss ss ss
-2.9955 3.3406
-2.6244 3.3605
-1.8822 2.0926
ITEM: ATOMS id type xs ys zs
1 1 .488464 .993139 .564816
2 1 .987933 .622125 .523326
3 1 .808771 .018223 .435748
4 1 .212458 .007572 .456922
5 1 .002691 .608978 .523336
6 1 .502230 .430918 .989598
7 1 .499614 .483520 .014956
ITEM: TIMESTEP
1
ITEM: NUMBER OF ATOMS
7
ITEM: BOX BOUNDS ss ss ss
-2.9706 3.3109
-2.5965 3.3485
-1.8727 2.0708
ITEM: ATOMS id type xs ys zs
1 1 .486209 .992977 .569486
2 1 .999616 .612000 .528948
3 1 .812350 .013717 .432409
4 1 .206830 .004757 .452704
5 1 .000789 .608571 .526357
6 1 .506285 .428063 .990189
7 1 .502948 .474480 .008561
ITEM: TIMESTEP
50
ITEM: NUMBER OF ATOMS
7
ITEM: BOX BOUNDS ss ss ss
-2.9930 3.3397
-2.5965 3.3485
-1.8727 2.0708
ITEM: ATOMS id type xs ys zs
1 1 .484007 .992685 .569812
2 1 .995569 .610625 .528553
3 1 .809223 .012626 .432949
4 1 .208036 .005721 .452388
5 1 .002978 .609170 .526790
6 1 .504104 .427986 .990995
7 1 .503917 .473342 .007618
ITEM: TIMESTEP
100
ITEM: NUMBER OF ATOMS
7
ITEM: BOX BOUNDS ss ss ss
-3.0024 3.3511
-2.6029 3.3485
-1.8727 2.0711
ITEM: ATOMS id type xs ys zs
1 1 .486875 .991248 .573029
2 1 .995802 .615561 .531396
3 1 .809227 .013160 .433559
4 1 .208197 .002712 .453189
5 1 .006237 .605347 .526997
6 1 .503985 .429062 .989890
7 1 .500624 .474751 .008155
ITEM: TIMESTEP
150
ITEM: NUMBER OF ATOMS
7
ITEM: BOX BOUNDS ss ss ss
-2.9965 3.3470
-2.6083 3.3485
-1.8814 2.0755
ITEM: ATOMS id type xs ys zs
1 1 .487551 .987603 .564211
2 1 .992455 .618101 .526803
3 1 .809042 .013457 .435046
4 1 .203479 .006848 .451221
5 1 .007276 .605470 .527465
6 1 .504996 .427047 .989479
7 1 .503422 .478212 .013233
ITEM: TIMESTEP
200
ITEM: NUMBER OF ATOMS
7
ITEM: BOX BOUNDS ss ss ss
-2.9951 3.3503
-2.6185 3.3491
-1.8815 2.0807
ITEM: ATOMS id type xs ys zs
1 1 .487433 .991404 .568769
2 1 .993569 .621867 .534339
3 1 .809635 .010849 .432893
4 1 .209265 .005439 .453280
5 1 .005234 .603196 .528535
6 1 .505837 .428555 .991367
7 1 .501172 .475882 .011224
ITEM: TIMESTEP
250
ITEM: NUMBER OF ATOMS
7
ITEM: BOX BOUNDS ss ss ss
-2.9988 3.3497
-2.6245 3.3537
-1.8771 2.0914
ITEM: ATOMS id type xs ys zs
1 1 .488463 .989727 .562134
2 1 .994314 .618748 .532672
3 1 .808916 .016732 .433875
4 1 .208889 .010869 .454219
5 1 .007140 .606787 .522726
6 1 .504532 .427210 .992916
7 1 .505899 .479117 .011204
ITEM: TIMESTEP
300
ITEM: NUMBER OF ATOMS
7
ITEM: BOX BOUNDS ss ss ss
-2.9937 3.3453
-2.6285 3.3600
-1.8791 2.0887
ITEM: ATOMS id type xs ys zs
1 1 .487536 .988101 .561220
2 1 .993199 .618314 .525737
3 1 .810093 .014751 .434467
4 1 .210327 .009477 .452702
5 1 .006777 .605145 .519003
6 1 .502990 .426408 .992122
7 1 .504330 .477727 .009254
ITEM: TIMESTEP
350
ITEM: NUMBER OF ATOMS
7
ITEM: BOX BOUNDS ss ss ss
-2.9981 3.3408
-2.6256 3.3684
-1.8781 2.0964
ITEM: ATOMS id type xs ys zs
1 1 .486940 .992213 .565868
2 1 .991198 .619260 .524755
3 1 .809660 .013777 .436028
4 1 .208065 .004274 .458618
5 1 .011481 .603778 .521109
6 1 .508210 .425213 .985869
7 1 .502382 .476178 .012082
ITEM: TIMESTEP
400
ITEM: NUMBER OF ATOMS
7
ITEM: BOX BOUNDS ss ss ss
-2.9967 3.3387
-2.6317 3.3618
-1.8870 2.0992
ITEM: ATOMS id type xs ys zs
1 1 .491362 .989294 .564885
2 1 .993520 .620204 .529068
3 1 .811899 .018078 .433193
4 1 .210529 .009032 .453709
5 1 .011252 .608015 .516330
6 1 .503611 .426732 .988843
7 1 .503779 .478302 .012646
ITEM: TIMESTEP
1
ITEM: NUMBER OF ATOMS
7
ITEM: BOX BOUNDS ss ss ss
-2.9702 3.3135
-2.6161 3.3354
-1.8641 2.0741
ITEM: ATOMS id type xs ys zs
1 1 .485977 .994918 .568138
2 1 .998743 .614197 .527437
3 1 .812153 .017516 .431042
4 1 .206882 .008323 .451302
5 1 .000633 .611067 .524836
6 1 .506055 .430944 .989273
7 1 .502383 .477088 .006359
ITEM: TIMESTEP
50
ITEM: NUMBER OF ATOMS
7
ITEM: BOX BOUNDS ss ss ss
-2.9941 3.3437
-2.6161 3.3354
-1.8675 2.0741
ITEM: ATOMS id type xs ys zs
1 1 .485449 .995495 .568371
2 1 .993815 .614610 .528434
3 1 .807668 .017270 .430415
4 1 .207876 .008315 .454532
5 1 .003219 .610446 .525019
6 1 .505562 .433633 .988162
7 1 .503357 .476019 .007833
ITEM: TIMESTEP
100
ITEM: NUMBER OF ATOMS
7
ITEM: BOX BOUNDS ss ss ss
-2.9979 3.3479
-2.6161 3.3434
-1.8792 2.0741
ITEM: ATOMS id type xs ys zs
1 1 .486225 .993054 .571709
2 1 .997462 .614781 .529314
3 1 .807536 .011055 .433908
4 1 .210135 .006747 .452522
5 1 .004122 .612053 .527690
6 1 .506628 .431357 .987308
7 1 .501107 .477018 .005706
ITEM: TIMESTEP
150
ITEM: NUMBER OF ATOMS
7
ITEM: BOX BOUNDS ss ss ss
-3.0094 3.3517
-2.6161 3.3509
-1.8806 2.0761
ITEM: ATOMS id type xs ys zs
1 1 .485518 .991581 .565646
2 1 .995449 .610021 .530941
3 1 .809791 .012793 .429486
4 1 .206169 .011245 .456337
5 1 .008589 .609921 .529923
6 1 .506744 .425847 .988676
7 1 .503921 .477959 .012687
ITEM: TIMESTEP
200
ITEM: NUMBER OF ATOMS
7
ITEM: BOX BOUNDS ss ss ss
-3.0083 3.3622
-2.6161 3.3594
-1.8772 2.0805
ITEM: ATOMS id type xs ys zs
1 1 .487235 .995566 .565345
2 1 .990657 .616854 .529569
3 1 .806632 .015419 .432826
4 1 .209926 .008467 .448106
5 1 .004333 .602673 .525793
6 1 .503632 .426428 .987830
7 1 .503186 .478881 .012216
ITEM: TIMESTEP
250
ITEM: NUMBER OF ATOMS
7
ITEM: BOX BOUNDS ss ss ss
-3.0067 3.3605
-2.6161 3.3651
-1.8860 2.0877
ITEM: ATOMS id type xs ys zs
1 1 .489201 .993066 .568676
2 1 .990339 .617643 .526402
3 1 .804421 .014201 .436266
4 1 .205332 .009114 .447439
5 1 .004614 .602075 .526484
6 1 .501616 .424522 .988784
7 1 .502442 .479366 .015189
ITEM: TIMESTEP
300
ITEM: NUMBER OF ATOMS
7
ITEM: BOX BOUNDS ss ss ss
-3.0104 3.3483
-2.6172 3.3669
-1.8690 2.0819
ITEM: ATOMS id type xs ys zs
1 1 .489310 .994659 .564483
2 1 .992367 .619298 .527278
3 1 .804123 .015497 .432051
4 1 .210099 .007134 .453169
5 1 .010428 .605358 .523397
6 1 .503501 .428334 .991419
7 1 .502768 .482405 .014295
ITEM: TIMESTEP
350
ITEM: NUMBER OF ATOMS
7
ITEM: BOX BOUNDS ss ss ss
-3.0151 3.3456
-2.6146 3.3653
-1.8710 2.0867
ITEM: ATOMS id type xs ys zs
1 1 .489366 .994296 .564034
2 1 .991529 .618743 .527703
3 1 .804573 .014667 .429565
4 1 .211864 .006286 .455191
5 1 .010052 .606269 .525442
6 1 .502826 .429308 .989712
7 1 .504899 .484359 .013099
ITEM: TIMESTEP
400
ITEM: NUMBER OF ATOMS
7
ITEM: BOX BOUNDS ss ss ss
-3.0121 3.3425
-2.6183 3.3659
-1.8723 2.0956
ITEM: ATOMS id type xs ys zs
1 1 .487587 .993109 .558265
2 1 .992283 .617076 .526336
3 1 .805851 .013542 .428591
4 1 .210979 .007463 .441430
5 1 .008818 .605025 .521171
6 1 .501662 .429069 .986863
7 1 .504462 .481041 .007925
ITEM: TIMESTEP
1
ITEM: NUMBER OF ATOMS
7
ITEM: BOX BOUNDS ss ss ss
-2.9789 3.3122
-2.5993 3.3442
-1.8592 2.0720
ITEM: ATOMS id type xs ys zs
1 1 .486622 .993494 .567585
2 1 .999328 .612843 .527236
3 1 .812847 .014545 .430365
4 1 .208064 .005314 .450662
5 1 .001817 .609384 .524434
6 1 .506559 .428450 .989564
7 1 .502987 .474728 .004233
ITEM: TIMESTEP
50
ITEM: NUMBER OF ATOMS
7
ITEM: BOX BOUNDS ss ss ss
-2.9962 3.3366
-2.5993 3.3442
-1.8675 2.0720
ITEM: ATOMS id type xs ys zs
1 1 .486771 .993949 .567610
2 1 .998074 .614376 .529211
3 1 .812263 .016384 .428826
4 1 .209644 .005683 .449099
5 1 .000895 .609326 .525795
6 1 .506542 .428915 .988885
7 1 .503053 .475793 .008681
ITEM: TIMESTEP
100
ITEM: NUMBER OF ATOMS
7
ITEM: BOX BOUNDS ss ss ss
-3.0108 3.3540
-2.6007 3.3537
-1.8753 2.0720
ITEM: ATOMS id type xs ys zs
1 1 .485001 .994001 .565407
2 1 .992211 .610589 .535306
3 1 .811413 .013663 .430054
4 1 .209848 .007111 .455371
5 1 .002614 .611014 .523735
6 1 .506441 .426614 .992454
7 1 .503337 .476036 .010067
ITEM: TIMESTEP
150
ITEM: NUMBER OF ATOMS
7
ITEM: BOX BOUNDS ss ss ss
-3.0152 3.3648
-2.6046 3.3473
-1.8753 2.0816
ITEM: ATOMS id type xs ys zs
1 1 .485616 .994425 .567240
2 1 .992372 .611721 .523056
3 1 .802717 .011584 .437686
4 1 .208944 .005317 .452913
5 1 .008157 .609479 .524250
6 1 .504389 .429700 .987935
7 1 .502046 .475730 .007667
ITEM: TIMESTEP
200
ITEM: NUMBER OF ATOMS
7
ITEM: BOX BOUNDS ss ss ss
-3.0078 3.3540
-2.6091 3.3578
-1.8763 2.0856
ITEM: ATOMS id type xs ys zs
1 1 .484855 .994961 .564272
2 1 .991079 .617146 .519624
3 1 .810335 .011504 .429364
4 1 .209958 .009029 .454816
5 1 .006829 .603846 .526448
6 1 .506407 .429649 .984312
7 1 .505517 .477480 .006260
ITEM: TIMESTEP
250
ITEM: NUMBER OF ATOMS
7
ITEM: BOX BOUNDS ss ss ss
-3.0161 3.3555
-2.6102 3.3630
-1.8823 2.0785
ITEM: ATOMS id type xs ys zs
1 1 .483457 .995650 .564169
2 1 .991565 .617053 .522575
3 1 .810956 .012724 .431997
4 1 .208744 .010725 .459352
5 1 .006514 .603932 .525436
6 1 .509340 .428486 .986122
7 1 .507236 .477881 .007018
ITEM: TIMESTEP
300
ITEM: NUMBER OF ATOMS
7
ITEM: BOX BOUNDS ss ss ss
-3.0174 3.3524
-2.6273 3.3654
-1.8720 2.0809
ITEM: ATOMS id type xs ys zs
1 1 .489702 .990521 .561091
2 1 .990718 .617067 .529100
3 1 .806826 .010644 .438736
4 1 .208749 .010274 .451325
5 1 .007480 .609231 .518559
6 1 .504508 .428331 .991878
7 1 .502142 .480050 .007920
ITEM: TIMESTEP
350
ITEM: NUMBER OF ATOMS
7
ITEM: BOX BOUNDS ss ss ss
-3.0126 3.3455
-2.6194 3.3706
-1.8783 2.0943
ITEM: ATOMS id type xs ys zs
1 1 .491668 .992412 .572306
2 1 .991974 .618439 .524532
3 1 .807029 .011289 .434733
4 1 .207351 .009348 .453206
5 1 .010395 .605100 .517743
6 1 .504786 .425580 .986923
7 1 .501947 .477581 .009201
ITEM: TIMESTEP
400
ITEM: NUMBER OF ATOMS
7
ITEM: BOX BOUNDS ss ss ss
-3.0059 3.3359
-2.6179 3.3765
-1.8833 2.1025
ITEM: ATOMS id type xs ys zs
1 1 .489361 .993215 .564700
2 1 .991373 .616193 .528241
3 1 .804160 .017815 .423304
4 1 .211862 .007768 .455843
5 1 .010189 .602563 .524539
6 1 .503717 .427803 .988266
7 1 .504024 .482181 .009528
ITEM: TIMESTEP
1
ITEM: NUMBER OF ATOMS
7
ITEM: BOX BOUNDS ss ss ss
-2.9704 3.3136
-2.6014 3.3438
-1.8603 2.0601
ITEM: ATOMS id type xs ys zs
1 1 .485922 .993562 .569753
2 1 .999105 .612961 .528656
3 1 .812252 .014730 .432033
4 1 .206689 .005467 .451904
5 1 .000436 .609330 .526125
6 1 .506020 .428822 .992554
7 1 .502294 .475010 .005247
ITEM: TIMESTEP
50
ITEM: NUMBER OF ATOMS
7
ITEM: BOX BOUNDS ss ss ss
-2.9968 3.3379
-2.6014 3.3438
-1.8704 2.0601
ITEM: ATOMS id type xs ys zs
1 1 .486760 .993478 .573386
2 1 .996419 .612720 .528506
3 1 .808893 .013441 .432343
4 1 .211735 .004226 .450826
5 1 .004596 .609151 .525977
6 1 .505137 .428654 .990280
7 1 .503007 .476248 .007680
ITEM: TIMESTEP
100
ITEM: NUMBER OF ATOMS
7
ITEM: BOX BOUNDS ss ss ss
-3.0061 3.3534
-2.6106 3.3438
-1.8777 2.0678
ITEM: ATOMS id type xs ys zs
1 1 .485512 .992535 .572988
2 1 .994670 .613966 .528716
3 1 .809146 .014959 .429528
4 1 .211281 .002246 .450716
5 1 .008088 .611279 .528924
6 1 .503547 .430925 .987957
7 1 .501464 .475589 .006638
ITEM: TIMESTEP
150
ITEM: NUMBER OF ATOMS
7
ITEM: BOX BOUNDS ss ss ss
-3.0079 3.3618
-2.6074 3.3504
-1.8817 2.0813
ITEM: ATOMS id type xs ys zs
1 1 .485661 .990222 .565445
2 1 .992573 .613856 .524439
3 1 .806621 .017599 .431407
4 1 .209006 .007238 .455778
5 1 .009931 .607232 .523480
6 1 .502569 .427238 .993669
7 1 .499647 .478540 .009920
ITEM: TIMESTEP
200
ITEM: NUMBER OF ATOMS
7
ITEM: BOX BOUNDS ss ss ss
-3.0121 3.3644
-2.6148 3.3504
-1.8779 2.0833
ITEM: ATOMS id type xs ys zs
1 1 .482356 .996551 .561849
2 1 .991948 .616120 .533543
3 1 .804958 .013435 .433788
4 1 .209988 .008639 .453460
5 1 .008733 .606831 .527720
6 1 .505062 .428494 .984592
7 1 .501715 .480077 .009631
ITEM: TIMESTEP
250
ITEM: NUMBER OF ATOMS
7
ITEM: BOX BOUNDS ss ss ss
-3.0071 3.3580
-2.6193 3.3670
-1.8783 2.0731
ITEM: ATOMS id type xs ys zs
1 1 .486071 .994098 .563644
2 1 .993876 .613546 .534298
3 1 .806096 .014118 .439019
4 1 .208923 .007398 .453798
5 1 .006088 .605614 .525294
6 1 .505832 .425174 .988806
7 1 .502199 .477868 .011955
ITEM: TIMESTEP
300
ITEM: NUMBER OF ATOMS
7
ITEM: BOX BOUNDS ss ss ss
-3.0003 3.3634
-2.6184 3.3769
-1.8743 2.0774
ITEM: ATOMS id type xs ys zs
1 1 .485345 .986876 .561768
2 1 .995327 .612960 .519371
3 1 .804233 .012284 .443181
4 1 .207185 .009847 .455496
5 1 .007691 .609125 .519866
6 1 .505823 .426690 .989393
7 1 .499941 .475810 .012178
ITEM: TIMESTEP
350
ITEM: NUMBER OF ATOMS
7
ITEM: BOX BOUNDS ss ss ss
-3.0023 3.3724
-2.6220 3.3737
-1.8672 2.0927
ITEM: ATOMS id type xs ys zs
1 1 .489603 .993655 .562128
2 1 .992178 .615065 .527125
3 1 .803840 .012639 .436502
4 1 .209001 .010735 .446160
5 1 .005605 .606486 .524241
6 1 .502601 .428067 .983912
7 1 .501691 .478126 .014261
ITEM: TIMESTEP
400
ITEM: NUMBER OF ATOMS
7
ITEM: BOX BOUNDS ss ss ss
-3.0014 3.3595
-2.6205 3.3795
-1.8781 2.0796
ITEM: ATOMS id type xs ys zs
1 1 .491610 .986617 .562852
2 1 .990598 .616750 .533014
3 1 .807659 .013595 .435461
4 1 .208897 .009353 .450328
5 1 .007245 .608484 .518860
6 1 .498975 .423725 .987840
7 1 .500858 .474473 .011462
ITEM: TIMESTEP
1
ITEM: NUMBER OF ATOMS
7
ITEM: BOX BOUNDS ss ss ss
-2.9722 3.3189
-2.6014 3.3438
-1.8607 2.0601
ITEM: ATOMS id type xs ys zs
1 1 .485486 .993806 .569898
2 1 .997947 .612857 .529001
3 1 .811574 .014736 .431992
4 1 .207367 .005518 .452174
5 1 .001044 .609597 .526528
6 1 .505600 .428633 .992225
7 1 .502210 .475123 .005490
ITEM: TIMESTEP
50
ITEM: NUMBER OF ATOMS
7
ITEM: BOX BOUNDS ss ss ss
-3.0010 3.3431
-2.6014 3.3438
-1.8758 2.0601
ITEM: ATOMS id type xs ys zs
1 1 .486107 .993061 .571437
2 1 .995994 .612278 .532888
3 1 .810613 .015383 .431489
4 1 .210321 .005676 .453838
5 1 .005385 .610579 .529771
6 1 .507613 .427502 .991553
7 1 .501170 .476104 .007709
ITEM: TIMESTEP
100
ITEM: NUMBER OF ATOMS
7
ITEM: BOX BOUNDS ss ss ss
-3.0100 3.3587
-2.6014 3.3438
-1.8779 2.0723
ITEM: ATOMS id type xs ys zs
1 1 .484104 .991604 .569733
2 1 .991030 .614933 .532095
3 1 .810997 .013052 .434783
4 1 .211899 .007660 .455346
5 1 .008042 .609779 .530269
6 1 .506245 .429525 .991956
7 1 .504598 .475407 .008777
ITEM: TIMESTEP
150
ITEM: NUMBER OF ATOMS
7
ITEM: BOX BOUNDS ss ss ss
-3.0113 3.3820
-2.6056 3.3477
-1.8890 2.0720
ITEM: ATOMS id type xs ys zs
1 1 .484521 .993263 .569684
2 1 .992158 .613099 .528740
3 1 .801536 .012998 .436004
4 1 .212030 .007792 .453265
5 1 .004911 .608577 .527767
6 1 .503287 .428609 .988714
7 1 .499107 .479404 .012328
ITEM: TIMESTEP
200
ITEM: NUMBER OF ATOMS
7
ITEM: BOX BOUNDS ss ss ss
-3.0101 3.3649
-2.6195 3.3519
-1.9090 2.0876
ITEM: ATOMS id type xs ys zs
1 1 .485873 .990899 .571551
2 1 .989507 .615791 .531954
3 1 .806590 .017880 .436944
4 1 .210910 .011379 .461475
5 1 .007894 .609820 .526203
6 1 .504879 .431484 .988336
7 1 .502141 .476753 .012103
ITEM: TIMESTEP
250
ITEM: NUMBER OF ATOMS
7
ITEM: BOX BOUNDS ss ss ss
-3.0101 3.3676
-2.6244 3.3528
-1.8927 2.0856
ITEM: ATOMS id type xs ys zs
1 1 .479911 .993465 .559516
2 1 .989210 .612047 .524537
3 1 .809547 .011838 .431289
4 1 .209373 .014185 .455310
5 1 .007285 .607837 .520726
6 1 .504868 .430787 .985640
7 1 .503243 .478053 .013280
ITEM: TIMESTEP
300
ITEM: NUMBER OF ATOMS
7
ITEM: BOX BOUNDS ss ss ss
-3.0116 3.3572
-2.6106 3.3553
-1.8976 2.0870
ITEM: ATOMS id type xs ys zs
1 1 .485204 .994062 .563543
2 1 .992266 .618120 .534732
3 1 .807589 .018297 .436616
4 1 .208673 .007958 .458575
5 1 .008108 .608639 .520056
6 1 .505595 .425922 .985841
7 1 .502607 .478793 .019444
ITEM: TIMESTEP
350
ITEM: NUMBER OF ATOMS
7
ITEM: BOX BOUNDS ss ss ss
-3.0095 3.3615
-2.6110 3.3643
-1.8972 2.0894
ITEM: ATOMS id type xs ys zs
1 1 .489123 .987473 .563818
2 1 .993081 .614937 .528183
3 1 .807638 .013078 .426097
4 1 .211347 .002538 .455686
5 1 .006411 .604970 .527020
6 1 .500940 .423896 .982117
7 1 .500948 .478502 .011410
ITEM: TIMESTEP
400
ITEM: NUMBER OF ATOMS
7
ITEM: BOX BOUNDS ss ss ss
-3.0077 3.3656
-2.6270 3.3516
-1.8983 2.0828
ITEM: ATOMS id type xs ys zs
1 1 .488203 .994211 .562358
2 1 .994046 .620534 .528577
3 1 .804806 .021478 .434309
4 1 .207435 .011040 .460278
5 1 .011618 .612723 .518090
6 1 .504756 .431155 .985018
7 1 .500418 .484295 .018912
ITEM: TIMESTEP
1
ITEM: NUMBER OF ATOMS
7
ITEM: BOX BOUNDS ss ss ss
-2.9705 3.3401
-2.5954 3.3403
-1.8711 2.0656
ITEM: ATOMS id type xs ys zs
1 1 .483921 .994148 .570099
2 1 .994951 .612631 .529887
3 1 .808552 .013842 .432607
4 1 .205957 .004668 .452863
5 1 .000528 .609231 .526873
6 1 .503975 .428466 .990923
7 1 .500105 .474755 .007992
ITEM: TIMESTEP
50
ITEM: NUMBER OF ATOMS
7
ITEM: BOX BOUNDS ss ss ss
-2.9978 3.3436
-2.5954 3.3403
-1.8711 2.0656
ITEM: ATOMS id type xs ys zs
1 1 .486663 .995083 .568374
2 1 .994736 .610269 .531782
3 1 .810262 .013067 .430552
4 1 .212059 .006017 .456741
5 1 .003705 .607561 .526263
6 1 .504422 .429999 .992590
7 1 .502092 .476714 .011443
ITEM: TIMESTEP
100
ITEM: NUMBER OF ATOMS
7
ITEM: BOX BOUNDS ss ss ss
-3.0018 3.3575
-2.5981 3.3425
-1.8756 2.0656
ITEM: ATOMS id type xs ys zs
1 1 .483421 .994719 .568684
2 1 .992822 .614837 .534466
3 1 .807972 .013247 .432867
4 1 .206992 .006675 .449107
5 1 .005869 .607882 .528001
6 1 .503108 .425551 .994244
7 1 .501275 .476748 .012012
ITEM: TIMESTEP
150
ITEM: NUMBER OF ATOMS
7
ITEM: BOX BOUNDS ss ss ss
-3.0135 3.3612
-2.5976 3.3551
-1.8853 2.0739
ITEM: ATOMS id type xs ys zs
1 1 .485212 .993053 .564740
2 1 .994075 .617398 .533814
3 1 .810637 .009273 .436757
4 1 .210748 .009114 .446991
5 1 .005458 .604395 .530864
6 1 .501743 .426296 .989736
7 1 .501688 .476769 .012845
ITEM: TIMESTEP
200
ITEM: NUMBER OF ATOMS
7
ITEM: BOX BOUNDS ss ss ss
-3.0100 3.3641
-2.6077 3.3515
-1.8795 2.0824
ITEM: ATOMS id type xs ys zs
1 1 .484341 .994619 .561474
2 1 .993562 .616422 .530277
3 1 .805034 .013497 .430792
4 1 .209409 .008202 .454340
5 1 .004918 .609002 .518994
6 1 .504385 .427183 .986020
7 1 .500273 .479691 .009281
ITEM: TIMESTEP
250
ITEM: NUMBER OF ATOMS
7
ITEM: BOX BOUNDS ss ss ss
-3.0216 3.3644
-2.6130 3.3599
-1.8854 2.0867
ITEM: ATOMS id type xs ys zs
1 1 .485055 .993063 .560204
2 1 .992792 .617061 .528965
3 1 .804979 .014828 .429600
4 1 .210472 .009779 .455877
5 1 .005305 .606522 .520107
6 1 .507052 .427697 .983811
7 1 .500571 .479996 .013165
ITEM: TIMESTEP
300
ITEM: NUMBER OF ATOMS
7
ITEM: BOX BOUNDS ss ss ss
-3.0090 3.3616
-2.6185 3.3573
-1.8788 2.0965
ITEM: ATOMS id type xs ys zs
1 1 .485030 .991933 .558289
2 1 .996470 .615702 .528688
3 1 .805228 .016056 .426230
4 1 .208614 .009980 .455769
5 1 .004591 .605713 .517413
6 1 .506331 .427323 .979004
7 1 .500933 .481338 .014241
ITEM: TIMESTEP
350
ITEM: NUMBER OF ATOMS
7
ITEM: BOX BOUNDS ss ss ss
-3.0057 3.3673
-2.6141 3.3650
-1.8767 2.0954
ITEM: ATOMS id type xs ys zs
1 1 .483416 .992176 .565721
2 1 .991198 .614535 .522460
3 1 .806551 .014424 .430299
4 1 .209306 .007140 .452652
5 1 .010305 .604019 .524214
6 1 .504407 .422250 .983095
7 1 .504022 .478733 .013573
ITEM: TIMESTEP
400
ITEM: NUMBER OF ATOMS
7
ITEM: BOX BOUNDS ss ss ss
-3.0167 3.3589
-2.6151 3.3730
-1.8759 2.0865
ITEM: ATOMS id type xs ys zs
1 1 .493590 .990907 .566893
2 1 .992919 .615088 .525586
3 1 .807824 .012924 .431245
4 1 .207961 .009417 .443309
5 1 .007467 .602767 .523819
6 1 .507244 .424910 .992505
7 1 .503577 .478174 .016485
ITEM: TIMESTEP
1
ITEM: NUMBER OF ATOMS
7
ITEM: BOX BOUNDS ss ss ss
-2.9708 3.3360
-2.5997 3.3431
-1.8560 2.0823
ITEM: ATOMS id type xs ys zs
1 1 .484338 .993425 .565904
2 1 .995443 .612702 .525427
3 1 .809476 .014788 .429017
4 1 .206434 .005140 .449164
5 1 .000643 .609256 .522760
6 1 .504327 .428712 .986859
7 1 .500518 .474856 .003891
ITEM: TIMESTEP
50
ITEM: NUMBER OF ATOMS
7
ITEM: BOX BOUNDS ss ss ss
-2.9965 3.3412
-2.5997 3.3431
-1.8706 2.0823
ITEM: ATOMS id type xs ys zs
1 1 .487931 .995147 .568892
2 1 .996814 .613764 .526440
3 1 .808950 .016979 .431253
4 1 .208848 .001736 .452872
5 1 .004992 .610503 .524727
6 1 .505863 .429708 .986217
7 1 .502361 .476784 .005093
ITEM: TIMESTEP
100
ITEM: NUMBER OF ATOMS
7
ITEM: BOX BOUNDS ss ss ss
-3.0151 3.3581
-2.6040 3.3480
-1.8732 2.0823
ITEM: ATOMS id type xs ys zs
1 1 .487483 .995997 .565632
2 1 .996608 .614918 .527632
3 1 .807966 .014062 .429872
4 1 .211677 .004102 .454880
5 1 .008750 .609013 .524093
6 1 .505315 .429003 .982597
7 1 .502768 .473819 .007750
ITEM: TIMESTEP
150
ITEM: NUMBER OF ATOMS
7
ITEM: BOX BOUNDS ss ss ss
-3.0110 3.3800
-2.6133 3.3643
-1.8791 2.0823
ITEM: ATOMS id type xs ys zs
1 1 .481286 .990626 .568044
2 1 .991935 .612630 .527213
3 1 .803378 .015407 .430977
4 1 .207314 .007477 .452756
5 1 .007308 .606627 .523871
6 1 .500994 .430043 .983044
7 1 .499163 .477835 .007729
ITEM: TIMESTEP
200
ITEM: NUMBER OF ATOMS
7
ITEM: BOX BOUNDS ss ss ss
-3.0166 3.3684
-2.6160 3.3673
-1.8772 2.0823
ITEM: ATOMS id type xs ys zs
1 1 .484656 .994812 .569382
2 1 .992936 .614579 .531899
3 1 .805739 .014251 .432843
4 1 .209101 .008946 .450807
5 1 .007018 .601658 .525050
6 1 .505405 .425404 .984753
7 1 .500856 .476585 .009093
ITEM: TIMESTEP
250
ITEM: NUMBER OF ATOMS
7
ITEM: BOX BOUNDS ss ss ss
-3.0206 3.3728
-2.6171 3.3688
-1.8758 2.0823
ITEM: ATOMS id type xs ys zs
1 1 .479339 .990687 .571890
2 1 .991712 .614108 .523763
3 1 .805596 .014785 .428210
4 1 .206654 .007063 .453612
5 1 .011044 .604678 .515983
6 1 .504243 .426597 .995003
7 1 .504056 .477471 .016097
ITEM: TIMESTEP
300
ITEM: NUMBER OF ATOMS
7
ITEM: BOX BOUNDS ss ss ss
-3.0231 3.3713
-2.6051 3.3721
-1.8741 2.0900
ITEM: ATOMS id type xs ys zs
1 1 .483789 .993552 .570783
2 1 .993071 .614770 .535472
3 1 .805905 .008885 .430611
4 1 .211957 .006826 .449793
5 1 .007303 .602121 .517614
6 1 .505588 .427797 .986883
7 1 .502394 .478879 .018780
ITEM: TIMESTEP
350
ITEM: NUMBER OF ATOMS
7
ITEM: BOX BOUNDS ss ss ss
-3.0173 3.3757
-2.6130 3.3732
-1.8660 2.0893
ITEM: ATOMS id type xs ys zs
1 1 .482564 .993566 .571023
2 1 .994531 .615354 .534758
3 1 .807211 .008189 .430798
4 1 .210130 .008333 .449915
5 1 .005970 .603750 .515944
6 1 .504076 .429428 .987791
7 1 .500022 .482072 .016268
ITEM: TIMESTEP
400
ITEM: NUMBER OF ATOMS
7
ITEM: BOX BOUNDS ss ss ss
-3.0266 3.3704
-2.6087 3.3831
-1.8675 2.0823
ITEM: ATOMS id type xs ys zs
1 1 .485054 .989582 .564283
2 1 .992779 .611407 .516859
3 1 .800565 .007653 .427545
4 1 .206074 .008696 .460445
5 1 .009261 .600919 .513455
6 1 .504151 .426352 .985953
7 1 .508316 .482047 .013259
ITEM: TIMESTEP
1
ITEM: NUMBER OF ATOMS
7
ITEM: BOX BOUNDS ss ss ss
-2.9991 3.3456
-2.5997 3.3573
-1.8560 2.0823
ITEM: ATOMS id type xs ys zs
1 1 .485756 .991521 .566110
2 1 .993914 .611195 .525080
3 1 .809018 .014355 .428312
4 1 .209326 .005360 .449201
5 1 .004920 .607716 .522573
6 1 .505842 .428060 .987177
7 1 .501933 .473970 .004653
ITEM: TIMESTEP
50
ITEM: NUMBER OF ATOMS
7
ITEM: BOX BOUNDS ss ss ss
-2.9991 3.3456
-2.5997 3.3573
-1.8695 2.0823
ITEM: ATOMS id type xs ys zs
1 1 .485526 .992039 .570475
2 1 .995295 .610954 .526726
3 1 .810149 .014633 .427782
4 1 .209326 .006635 .450550
5 1 .003578 .608645 .525324
6 1 .505871 .426048 .989095
7 1 .499910 .473712 .006090
ITEM: TIMESTEP
100
ITEM: NUMBER OF ATOMS
7
ITEM: BOX BOUNDS ss ss ss
-3.0145 3.3563
-2.6036 3.3573
-1.8774 2.0823
ITEM: ATOMS id type xs ys zs
1 1 .484298 .990942 .567237
2 1 .993176 .610515 .532054
3 1 .806554 .011098 .432989
4 1 .210818 .005559 .452960
5 1 .010545 .607254 .527382
6 1 .505331 .428557 .990431
7 1 .501502 .479096 .009076
ITEM: TIMESTEP
150
ITEM: NUMBER OF ATOMS
7
ITEM: BOX BOUNDS ss ss ss
-3.0238 3.3648
-2.6067 3.3573
-1.8784 2.0823
ITEM: ATOMS id type xs ys zs
1 1 .482145 .991134 .568516
2 1 .992519 .609235 .533087
3 1 .806303 .013249 .435041
4 1 .211686 .006040 .452204
5 1 .010728 .607304 .528218
6 1 .506215 .429634 .985327
7 1 .501408 .480791 .010248
ITEM: TIMESTEP
200
ITEM: NUMBER OF ATOMS
7
ITEM: BOX BOUNDS ss ss ss
-3.0223 3.3692
-2.6014 3.3573
-1.8781 2.0840
ITEM: ATOMS id type xs ys zs
1 1 .484478 .994798 .562776
2 1 .990945 .609559 .523341
3 1 .808977 .014135 .433484
4 1 .210230 .008766 .455912
5 1 .011599 .610762 .523326
6 1 .505128 .427632 .985533
7 1 .498916 .474786 .011578
ITEM: TIMESTEP
250
ITEM: NUMBER OF ATOMS
7
ITEM: BOX BOUNDS ss ss ss
-3.0271 3.3699
-2.6128 3.3588
-1.8795 2.0823
ITEM: ATOMS id type xs ys zs
1 1 .482189 .993509 .569853
2 1 .987930 .615030 .526989
3 1 .808498 .015352 .438593
4 1 .208571 .006536 .451363
5 1 .009562 .607136 .527825
6 1 .500341 .424964 .990579
7 1 .499691 .475878 .017902
ITEM: TIMESTEP
300
ITEM: NUMBER OF ATOMS
7
ITEM: BOX BOUNDS ss ss ss
-3.0158 3.3785
-2.6178 3.3671
-1.8907 2.0825
ITEM: ATOMS id type xs ys zs
1 1 .484663 .998327 .569915
2 1 .986893 .613231 .528720
3 1 .805002 .013677 .441474
4 1 .208533 .007276 .459001
5 1 .006271 .605405 .529235
6 1 .499696 .427084 .986154
7 1 .498704 .476315 .017382
ITEM: TIMESTEP
350
ITEM: NUMBER OF ATOMS
7
ITEM: BOX BOUNDS ss ss ss
-3.0185 3.3622
-2.6282 3.3805
-1.8571 2.0908
ITEM: ATOMS id type xs ys zs
1 1 .485801 .988296 .564117
2 1 .988929 .611736 .523500
3 1 .805043 .013878 .433582
4 1 .207451 .009478 .449118
5 1 .009520 .606796 .517971
6 1 .499546 .426074 .993419
7 1 .500478 .478894 .007967
ITEM: TIMESTEP
400
ITEM: NUMBER OF ATOMS
7
ITEM: BOX BOUNDS ss ss ss
-3.0355 3.3475
-2.6270 3.3752
-1.8586 2.0847
ITEM: ATOMS id type xs ys zs
1 1 .487915 .989826 .563590
2 1 .991309 .615266 .526834
3 1 .810311 .016092 .436533
4 1 .209621 .009769 .460666
5 1 .008979 .606529 .518373
6 1 .507299 .427819 .991324
7 1 .503243 .476880 .014212
ITEM: TIMESTEP
1
ITEM: NUMBER OF ATOMS
7
ITEM: BOX BOUNDS ss ss ss
-2.9985 3.3130
-2.6010 3.3545
-1.8437 2.0715
ITEM: ATOMS id type xs ys zs
1 1 .488202 .991857 .565866
2 1 .999292 .611555 .525241
3 1 .813264 .014923 .427872
4 1 .210545 .005895 .448664
5 1 .005189 .608395 .522655
6 1 .508268 .427968 .989847
7 1 .504658 .473855 .001099
ITEM: TIMESTEP
50
ITEM: NUMBER OF ATOMS
7
ITEM: BOX BOUNDS ss ss ss
-2.9995 3.3443
-2.6010 3.3545
-1.8680 2.0715
ITEM: ATOMS id type xs ys zs
1 1 .485567 .991322 .572819
2 1 .993589 .610481 .530267
3 1 .809551 .013041 .433056
4 1 .209322 .004883 .453677
5 1 .004594 .608659 .524469
6 1 .505257 .428127 .990062
7 1 .503186 .474216 .005145
ITEM: TIMESTEP
100
ITEM: NUMBER OF ATOMS
7
ITEM: BOX BOUNDS ss ss ss
-3.0156 3.3540
-2.6050 3.3545
-1.8852 2.0715
ITEM: ATOMS id type xs ys zs
1 1 .485919 .993417 .572771
2 1 .993976 .609835 .534928
3 1 .810104 .014383 .433807
4 1 .210659 .006040 .455380
5 1 .006804 .610250 .527903
6 1 .506146 .428667 .988074
7 1 .505528 .475548 .006272
ITEM: TIMESTEP
150
ITEM: NUMBER OF ATOMS
7
ITEM: BOX BOUNDS ss ss ss
-3.0147 3.3678
-2.6020 3.3545
-1.8838 2.0715
ITEM: ATOMS id type xs ys zs
1 1 .481450 .991863 .566604
2 1 .990304 .612979 .529561
3 1 .808671 .015910 .437435
4 1 .212409 .005007 .450554
5 1 .010449 .612633 .528400
6 1 .505127 .426342 .988944
7 1 .502607 .474104 .009628
ITEM: TIMESTEP
200
ITEM: NUMBER OF ATOMS
7
ITEM: BOX BOUNDS ss ss ss
-3.0201 3.3879
-2.6029 3.3545
-1.8942 2.0715
ITEM: ATOMS id type xs ys zs
1 1 .485957 .993594 .574207
2 1 .989800 .613193 .530104
3 1 .801440 .012437 .439013
4 1 .211989 .005662 .459946
5 1 .007337 .607766 .531987
6 1 .502425 .433720 .984247
7 1 .498453 .478713 .018126
ITEM: TIMESTEP
250
ITEM: NUMBER OF ATOMS
7
ITEM: BOX BOUNDS ss ss ss
-3.0284 3.3663
-2.6073 3.3583
-1.8920 2.0738
ITEM: ATOMS id type xs ys zs
1 1 .487180 .995431 .568897
2 1 .994501 .612417 .523574
3 1 .807501 .010209 .439485
4 1 .214558 .009239 .460045
5 1 .007138 .610563 .524194
6 1 .506013 .431863 .986118
7 1 .504480 .478310 .013330
ITEM: TIMESTEP
300
ITEM: NUMBER OF ATOMS
7
ITEM: BOX BOUNDS ss ss ss
-3.0401 3.3636
-2.6108 3.3565
-1.8885 2.0741
ITEM: ATOMS id type xs ys zs
1 1 .486727 .990699 .564830
2 1 .995349 .620042 .520168
3 1 .809508 .011297 .434732
4 1 .214969 .006266 .456076
5 1 .008321 .604921 .526537
6 1 .506312 .426466 .985946
7 1 .504444 .481233 .016992
ITEM: TIMESTEP
350
ITEM: NUMBER OF ATOMS
7
ITEM: BOX BOUNDS ss ss ss
-3.0295 3.3697
-2.6175 3.3571
-1.8841 2.0901
ITEM: ATOMS id type xs ys zs
1 1 .485537 .993615 .554961