ITEM: TIMESTEP
1
ITEM: NUMBER OF ATOMS
7
ITEM: BOX BOUNDS ss ss ss
-2.9701 3.3111
-2.5715 3.3094
-1.8434 2.0348
ITEM: ATOMS id type xs ys zs
1 1 .486005 .999374 .571440
2 1 .999410 .614403 .530235
3 1 .812463 .010056 .432227
4 1 .206975 .000650 .452694
5 1 .000576 .610920 .527516
6 1 .506125 .428431 .999015
7 1 .502454 .475121 .000940
ITEM: TIMESTEP
50
ITEM: NUMBER OF ATOMS
7
ITEM: BOX BOUNDS ss ss ss
-2.9936 3.3387
-2.5943 3.3332
-1.8661 2.0556
ITEM: ATOMS id type xs ys zs
1 1 .485631 .995451 .570686
2 1 .995564 .613498 .530322
3 1 .809807 .013246 .433133
4 1 .208993 .004642 .453817
5 1 .004239 .609799 .527355
6 1 .505456 .428900 .993950
7 1 .501879 .475721 .006534
ITEM: TIMESTEP
100
ITEM: NUMBER OF ATOMS
7
ITEM: BOX BOUNDS ss ss ss
-3.0034 3.3447
-2.6010 3.3447
-1.8802 2.0698
ITEM: ATOMS id type xs ys zs
1 1 .486130 .993697 .569406
2 1 .994676 .613817 .529874
3 1 .809629 .013001 .433447
4 1 .209904 .006205 .455144
5 1 .006079 .608556 .526940
6 1 .505241 .428226 .990898
7 1 .501711 .476917 .010619
ITEM: TIMESTEP
150
ITEM: NUMBER OF ATOMS
7
ITEM: BOX BOUNDS ss ss ss
-3.0031 3.3570
-2.6061 3.3495
-1.8787 2.0712
ITEM: ATOMS id type xs ys zs
1 1 .485564 .993216 .568429
2 1 .992335 .614707 .528825
3 1 .808191 .013014 .432986
4 1 .209436 .007352 .455273
5 1 .006118 .608248 .526851
6 1 .504011 .427905 .990922
7 1 .500739 .478046 .010920
ITEM: TIMESTEP
200
ITEM: NUMBER OF ATOMS
7
ITEM: BOX BOUNDS ss ss ss
-3.0077 3.3534
-2.6025 3.3612
-1.8873 2.0790
ITEM: ATOMS id type xs ys zs
1 1 .487070 .991751 .568064
2 1 .992479 .614435 .528429
3 1 .808862 .011793 .433372
4 1 .210123 .006488 .456059
5 1 .007159 .606737 .526693
6 1 .504465 .426228 .989156
7 1 .501475 .477364 .013653
ITEM: TIMESTEP
250
ITEM: NUMBER OF ATOMS
7
ITEM: BOX BOUNDS ss ss ss
-3.0117 3.3533
-2.6053 3.3631
-1.8768 2.0865
ITEM: ATOMS id type xs ys zs
1 1 .488410 .991793 .565766
2 1 .992197 .615189 .525685
3 1 .808981 .011807 .431545
4 1 .210406 .006583 .453951
5 1 .008294 .606657 .523580
6 1 .504851 .425681 .987074
7 1 .501814 .477681 .011672
ITEM: TIMESTEP
300
ITEM: NUMBER OF ATOMS
7
ITEM: BOX BOUNDS ss ss ss
-3.0096 3.3480
-2.6113 3.3656
-1.8773 2.0934
ITEM: ATOMS id type xs ys zs
1 1 .489555 .991383 .565192
2 1 .992473 .616223 .524136
3 1 .809512 .012824 .431386
4 1 .210189 .006988 .452973
5 1 .008693 .606717 .522008
6 1 .505243 .425404 .985551
7 1 .502034 .478133 .012144
ITEM: TIMESTEP
350
ITEM: NUMBER OF ATOMS
7
ITEM: BOX BOUNDS ss ss ss
-2.9975 3.3469
-2.6236 3.3602
-1.8753 2.0905
ITEM: ATOMS id type xs ys zs
1 1 .489753 .992286 .565858
2 1 .991739 .618741 .524248
3 1 .809433 .015335 .431409
4 1 .208885 .008620 .452915
5 1 .007679 .608357 .521618
6 1 .504196 .426500 .986860
7 1 .500989 .479803 .011638
ITEM: TIMESTEP
400
ITEM: NUMBER OF ATOMS
7
ITEM: BOX BOUNDS ss ss ss
-2.9955 3.3406
-2.6244 3.3605
-1.8822 2.0926
ITEM: ATOMS id type xs ys zs
1 1 .491025 .992386 .566183
2 1 .991751 .619916 .525087
3 1 .810361 .015867 .432236
4 1 .208899 .008594 .453150
5 1 .007904 .609110 .522055
6 1 .504180 .426035 .986835
7 1 .501210 .479964 .013250
ITEM: TIMESTEP
1
ITEM: NUMBER OF ATOMS
7
ITEM: BOX BOUNDS ss ss ss
-2.9706 3.3109
-2.5965 3.3485
-1.8727 2.0708
ITEM: ATOMS id type xs ys zs
1 1 .486059 .992806 .569410
2 1 .999435 .611977 .528891
3 1 .812494 .014149 .432504
4 1 .207054 .004840 .452640
5 1 .000666 .608538 .526216
6 1 .506183 .428017 .989894
7 1 .502509 .474194 .008361
ITEM: TIMESTEP
50
ITEM: NUMBER OF ATOMS
7
ITEM: BOX BOUNDS ss ss ss
-2.9930 3.3397
-2.5965 3.3485
-1.8727 2.0708
ITEM: ATOMS id type xs ys zs
1 1 .485383 .992807 .569267
2 1 .995459 .612108 .529224
3 1 .809682 .013491 .432387
4 1 .208869 .004904 .452931
5 1 .004186 .608431 .526181
6 1 .505405 .428052 .990048
7 1 .501881 .474556 .008133
ITEM: TIMESTEP
100
ITEM: NUMBER OF ATOMS
7
ITEM: BOX BOUNDS ss ss ss
-3.0024 3.3511
-2.6029 3.3485
-1.8727 2.0711
ITEM: ATOMS id type xs ys zs
1 1 .486021 .992308 .568211
2 1 .993902 .614736 .530062
3 1 .808772 .012467 .433031
4 1 .208651 .005667 .452206
5 1 .006745 .608122 .526575
6 1 .504696 .427127 .990842
7 1 .501751 .476459 .008854
ITEM: TIMESTEP
150
ITEM: NUMBER OF ATOMS
7
ITEM: BOX BOUNDS ss ss ss
-2.9965 3.3470
-2.6083 3.3485
-1.8814 2.0755
ITEM: ATOMS id type xs ys zs
1 1 .487485 .992624 .567206
2 1 .993995 .616602 .530697
3 1 .809131 .012736 .433760
4 1 .207956 .006747 .452860
5 1 .006407 .607989 .527372
6 1 .504027 .427005 .990087
7 1 .501776 .477841 .011599
ITEM: TIMESTEP
200
ITEM: NUMBER OF ATOMS
7
ITEM: BOX BOUNDS ss ss ss
-2.9951 3.3503
-2.6185 3.3491
-1.8815 2.0807
ITEM: ATOMS id type xs ys zs
1 1 .488498 .993181 .565815
2 1 .992920 .618086 .530875
3 1 .808973 .014073 .433602
4 1 .208149 .008118 .452520
5 1 .006743 .607943 .526327
6 1 .503613 .427628 .988897
7 1 .501764 .479178 .012135
ITEM: TIMESTEP
250
ITEM: NUMBER OF ATOMS
7
ITEM: BOX BOUNDS ss ss ss
-2.9988 3.3497
-2.6245 3.3537
-1.8771 2.0914
ITEM: ATOMS id type xs ys zs
1 1 .489765 .992557 .563165
2 1 .992298 .618744 .528977
3 1 .809381 .014823 .432245
4 1 .208963 .008625 .450692
5 1 .007697 .607305 .523791
6 1 .504129 .427227 .986408
7 1 .502227 .479383 .011235
ITEM: TIMESTEP
300
ITEM: NUMBER OF ATOMS
7
ITEM: BOX BOUNDS ss ss ss
-2.9937 3.3453
-2.6285 3.3600
-1.8791 2.0887
ITEM: ATOMS id type xs ys zs
1 1 .490398 .991287 .563240
2 1 .992107 .619103 .529265
3 1 .809987 .015457 .433204
4 1 .208667 .008801 .450875
5 1 .007303 .606351 .523737
6 1 .504141 .426217 .987250
7 1 .502082 .479036 .011738
ITEM: TIMESTEP
350
ITEM: NUMBER OF ATOMS
7
ITEM: BOX BOUNDS ss ss ss
-2.9981 3.3408
-2.6256 3.3684
-1.8781 2.0964
ITEM: ATOMS id type xs ys zs
1 1 .491501 .989678 .561735
2 1 .992268 .618773 .527433
3 1 .810726 .015052 .432363
4 1 .209181 .007911 .449518
5 1 .008455 .605012 .522327
6 1 .504937 .424473 .985423
7 1 .502711 .477928 .011355
ITEM: TIMESTEP
400
ITEM: NUMBER OF ATOMS
7
ITEM: BOX BOUNDS ss ss ss
-2.9967 3.3387
-2.6317 3.3618
-1.8870 2.0992
ITEM: ATOMS id type xs ys zs
1 1 .491942 .990663 .562189
2 1 .992043 .620193 .527609
3 1 .810817 .016135 .433216
4 1 .208836 .008649 .450295
5 1 .008717 .606209 .522942
6 1 .504984 .424881 .984957
7 1 .502529 .478904 .013293
ITEM: TIMESTEP
1
ITEM: NUMBER OF ATOMS
7
ITEM: BOX BOUNDS ss ss ss
-2.9702 3.3135
-2.6161 3.3354
-1.8641 2.0741
ITEM: ATOMS id type xs ys zs
1 1 .485825 .995008 .567997
2 1 .999025 .614600 .527420
3 1 .812153 .017432 .430905
4 1 .206922 .008129 .451065
5 1 .000601 .611165 .524744
6 1 .505945 .430842 .989046
7 1 .502275 .476969 .006192
ITEM: TIMESTEP
50
ITEM: NUMBER OF ATOMS
7
ITEM: BOX BOUNDS ss ss ss
-2.9941 3.3437
-2.6161 3.3354
-1.8675 2.0741
ITEM: ATOMS id type xs ys zs
1 1 .485067 .995093 .568170
2 1 .994977 .614515 .528010
3 1 .809201 .016956 .431219
4 1 .209009 .008265 .451802
5 1 .004270 .611094 .525197
6 1 .505197 .431044 .989219
7 1 .501587 .477327 .006773
ITEM: TIMESTEP
100
ITEM: NUMBER OF ATOMS
7
ITEM: BOX BOUNDS ss ss ss
-2.9979 3.3479
-2.6161 3.3434
-1.8792 2.0741
ITEM: ATOMS id type xs ys zs
1 1 .485080 .994205 .568001
2 1 .994760 .614462 .528763
3 1 .808725 .015349 .433049
4 1 .208801 .009003 .454449
5 1 .005275 .609876 .526958
6 1 .504737 .429742 .990225
7 1 .501198 .478051 .010357
ITEM: TIMESTEP
150
ITEM: NUMBER OF ATOMS
7
ITEM: BOX BOUNDS ss ss ss
-3.0094 3.3517
-2.6161 3.3509
-1.8806 2.0761
ITEM: ATOMS id type xs ys zs
1 1 .486094 .993309 .566985
2 1 .994157 .614331 .528122
3 1 .808529 .014264 .432666
4 1 .209548 .009060 .454756
5 1 .007312 .608696 .526759
6 1 .505506 .428677 .989864
7 1 .501717 .478401 .011668
ITEM: TIMESTEP
200
ITEM: NUMBER OF ATOMS
7
ITEM: BOX BOUNDS ss ss ss
-3.0083 3.3622
-2.6161 3.3594
-1.8772 2.0805
ITEM: ATOMS id type xs ys zs
1 1 .485711 .992343 .565162
2 1 .991806 .614830 .527051
3 1 .806649 .013783 .431342
4 1 .208504 .008744 .452894
5 1 .007169 .606908 .525247
6 1 .504504 .427524 .989028
7 1 .501162 .478810 .011847
ITEM: TIMESTEP
250
ITEM: NUMBER OF ATOMS
7
ITEM: BOX BOUNDS ss ss ss
-3.0067 3.3605
-2.6161 3.3651
-1.8860 2.0877
ITEM: ATOMS id type xs ys zs
1 1 .486066 .992124 .564606
2 1 .991277 .616194 .528225
3 1 .805592 .014008 .433260
4 1 .207804 .008476 .451678
5 1 .006816 .604431 .525499
6 1 .504062 .426977 .987756
7 1 .501716 .480038 .014983
ITEM: TIMESTEP
300
ITEM: NUMBER OF ATOMS
7
ITEM: BOX BOUNDS ss ss ss
-3.0104 3.3483
-2.6172 3.3669
-1.8690 2.0819
ITEM: ATOMS id type xs ys zs
1 1 .487978 .992234 .563516
2 1 .992429 .617382 .527261
3 1 .806666 .014211 .432763
4 1 .208628 .008808 .449185
5 1 .008008 .604013 .523729
6 1 .505036 .426996 .989603
7 1 .503198 .480720 .010958
ITEM: TIMESTEP
350
ITEM: NUMBER OF ATOMS
7
ITEM: BOX BOUNDS ss ss ss
-3.0151 3.3456
-2.6146 3.3653
-1.8710 2.0867
ITEM: ATOMS id type xs ys zs
1 1 .489049 .992713 .563215
2 1 .992330 .618032 .526568
3 1 .806956 .013780 .433146
4 1 .209555 .008285 .448827
5 1 .009266 .604272 .522813
6 1 .505355 .426902 .988692
7 1 .503776 .480632 .011375
ITEM: TIMESTEP
400
ITEM: NUMBER OF ATOMS
7
ITEM: BOX BOUNDS ss ss ss
-3.0121 3.3425
-2.6183 3.3659
-1.8723 2.0956
ITEM: ATOMS id type xs ys zs
1 1 .489577 .992825 .562564
2 1 .992021 .618981 .525116
3 1 .807296 .014612 .433455
4 1 .209394 .008508 .448103
5 1 .009061 .604630 .521144
6 1 .504970 .427258 .986637
7 1 .503654 .480711 .011661
ITEM: TIMESTEP
1
ITEM: NUMBER OF ATOMS
7
ITEM: BOX BOUNDS ss ss ss
-2.9789 3.3122
-2.5993 3.3442
-1.8592 2.0720
ITEM: ATOMS id type xs ys zs
1 1 .486629 .993526 .567755
2 1 .999231 .612597 .527110
3 1 .812575 .014622 .430413
4 1 .208048 .005305 .450614
5 1 .001971 .609163 .524429
6 1 .506726 .428594 .989561
7 1 .503062 .474782 .004946
ITEM: TIMESTEP
50
ITEM: NUMBER OF ATOMS
7
ITEM: BOX BOUNDS ss ss ss
-2.9962 3.3366
-2.5993 3.3442
-1.8675 2.0720
ITEM: ATOMS id type xs ys zs
1 1 .485739 .993560 .568597
2 1 .995994 .612360 .528416
3 1 .810149 .014198 .431370
4 1 .209447 .005506 .452042
5 1 .004540 .609115 .525450
6 1 .506027 .428829 .989667
7 1 .502408 .475082 .006772
ITEM: TIMESTEP
100
ITEM: NUMBER OF ATOMS
7
ITEM: BOX BOUNDS ss ss ss
-3.0108 3.3540
-2.6007 3.3537
-1.8753 2.0720
ITEM: ATOMS id type xs ys zs
1 1 .485732 .992095 .569023
2 1 .993760 .612026 .528940
3 1 .808557 .013128 .432482
4 1 .210504 .006076 .453644
5 1 .007141 .607843 .526252
6 1 .505148 .427873 .990470
7 1 .502152 .475971 .008747
ITEM: TIMESTEP
150
ITEM: NUMBER OF ATOMS
7
ITEM: BOX BOUNDS ss ss ss
-3.0152 3.3648
-2.6046 3.3473
-1.8753 2.0816
ITEM: ATOMS id type xs ys zs
1 1 .486003 .993511 .567074
2 1 .991512 .613701 .527163
3 1 .806753 .012813 .431656
4 1 .209998 .007008 .453170
5 1 .008035 .608458 .525312
6 1 .503890 .428545 .988068
7 1 .501738 .478138 .009424
ITEM: TIMESTEP
200
ITEM: NUMBER OF ATOMS
7
ITEM: BOX BOUNDS ss ss ss
-3.0078 3.3540
-2.6091 3.3578
-1.8763 2.0856
ITEM: ATOMS id type xs ys zs
1 1 .486967 .992625 .566116
2 1 .992496 .613264 .526097
3 1 .806977 .012199 .431858
4 1 .208909 .007822 .453306
5 1 .006803 .607520 .525589
6 1 .503619 .428334 .986552
7 1 .501509 .478593 .010537
ITEM: TIMESTEP
250
ITEM: NUMBER OF ATOMS
7
ITEM: BOX BOUNDS ss ss ss
-3.0161 3.3555
-2.6102 3.3630
-1.8823 2.0785
ITEM: ATOMS id type xs ys zs
1 1 .488026 .992429 .566958
2 1 .991709 .613020 .527599
3 1 .806283 .011359 .433997
4 1 .209561 .007874 .455040
5 1 .008117 .606818 .526867
6 1 .504010 .427757 .988302
7 1 .501798 .478746 .012690
ITEM: TIMESTEP
300
ITEM: NUMBER OF ATOMS
7
ITEM: BOX BOUNDS ss ss ss
-3.0174 3.3524
-2.6273 3.3654
-1.8720 2.0809
ITEM: ATOMS id type xs ys zs
1 1 .489202 .992640 .565333
2 1 .991087 .615390 .527238
3 1 .806199 .014251 .432002
4 1 .209658 .010658 .453720
5 1 .009569 .607398 .525127
6 1 .504728 .428548 .988759
7 1 .502251 .480246 .009775
ITEM: TIMESTEP
350
ITEM: NUMBER OF ATOMS
7
ITEM: BOX BOUNDS ss ss ss
-3.0126 3.3455
-2.6194 3.3706
-1.8783 2.0943
ITEM: ATOMS id type xs ys zs
1 1 .490273 .991624 .564571
2 1 .991210 .615998 .526746
3 1 .806983 .013209 .431757
4 1 .209346 .009303 .453531
5 1 .010050 .606175 .523830
6 1 .505361 .426818 .986557
7 1 .502395 .479119 .010810
ITEM: TIMESTEP
400
ITEM: NUMBER OF ATOMS
7
ITEM: BOX BOUNDS ss ss ss
-3.0059 3.3359
-2.6179 3.3765
-1.8833 2.1025
ITEM: ATOMS id type xs ys zs
1 1 .491588 .989964 .563937
2 1 .992510 .615984 .524467
3 1 .808018 .012642 .433126
4 1 .208523 .008757 .452990
5 1 .009287 .605672 .522444
6 1 .505786 .425748 .984488
7 1 .502528 .477842 .011854
ITEM: TIMESTEP
1
ITEM: NUMBER OF ATOMS
7
ITEM: BOX BOUNDS ss ss ss
-2.9704 3.3136
-2.6014 3.3438
-1.8603 2.0601
ITEM: ATOMS id type xs ys zs
1 1 .485827 .993592 .569610
2 1 .999010 .612771 .528849
3 1 .812141 .014974 .431886
4 1 .206937 .005661 .452143
5 1 .000623 .609339 .526157
6 1 .505951 .428825 .992572
7 1 .502280 .474999 .005232
ITEM: TIMESTEP
50
ITEM: NUMBER OF ATOMS
7
ITEM: BOX BOUNDS ss ss ss
-2.9968 3.3379
-2.6014 3.3438
-1.8704 2.0601
ITEM: ATOMS id type xs ys zs
1 1 .485684 .993710 .570648
2 1 .995948 .612373 .530431
3 1 .810029 .014613 .433085
4 1 .209544 .005849 .453756
5 1 .004542 .609298 .527420
6 1 .505901 .429141 .992534
7 1 .502379 .475210 .007510
ITEM: TIMESTEP
100
ITEM: NUMBER OF ATOMS
7
ITEM: BOX BOUNDS ss ss ss
-3.0061 3.3534
-2.6106 3.3438
-1.8777 2.0678
ITEM: ATOMS id type xs ys zs
1 1 .485260 .993925 .569462
2 1 .994004 .613649 .530158
3 1 .808677 .014912 .433571
4 1 .210028 .007794 .454421
5 1 .006154 .609392 .527227
6 1 .504547 .429806 .990956
7 1 .501637 .476802 .009751
ITEM: TIMESTEP
150
ITEM: NUMBER OF ATOMS
7
ITEM: BOX BOUNDS ss ss ss
-3.0079 3.3618
-2.6074 3.3504
-1.8817 2.0813
ITEM: ATOMS id type xs ys zs
1 1 .484348 .993260 .567373
2 1 .993093 .614101 .528369
3 1 .807716 .013145 .433983
4 1 .209500 .007244 .453968
5 1 .006769 .607987 .525342
6 1 .504013 .428064 .987983
7 1 .501372 .476827 .011518
ITEM: TIMESTEP
200
ITEM: NUMBER OF ATOMS
7
ITEM: BOX BOUNDS ss ss ss
-3.0121 3.3644
-2.6148 3.3504
-1.8779 2.0833
ITEM: ATOMS id type xs ys zs
1 1 .484496 .993843 .565750
2 1 .992730 .615504 .528037
3 1 .807291 .012983 .434230
4 1 .209463 .008260 .453811
5 1 .007847 .608236 .524606
6 1 .504568 .428334 .987060
7 1 .501767 .478460 .011472
ITEM: TIMESTEP
250
ITEM: NUMBER OF ATOMS
7
ITEM: BOX BOUNDS ss ss ss
-3.0071 3.3580
-2.6193 3.3670
-1.8783 2.0731
ITEM: ATOMS id type xs ys zs
1 1 .485542 .991785 .565461
2 1 .993295 .614803 .530410
3 1 .807542 .013182 .435479
4 1 .208685 .008634 .454625
5 1 .007495 .606445 .526796
6 1 .504677 .427564 .989247
7 1 .501817 .478242 .012865
ITEM: TIMESTEP
300
ITEM: NUMBER OF ATOMS
7
ITEM: BOX BOUNDS ss ss ss
-3.0003 3.3634
-2.6184 3.3769
-1.8743 2.0774
ITEM: ATOMS id type xs ys zs
1 1 .485767 .990954 .563212
2 1 .992109 .614334 .530278
3 1 .806292 .012860 .434188
4 1 .207126 .007974 .452949
5 1 .006827 .605139 .526383
6 1 .503852 .426552 .987963
7 1 .500894 .477490 .013112
ITEM: TIMESTEP
350
ITEM: NUMBER OF ATOMS
7
ITEM: BOX BOUNDS ss ss ss
-3.0023 3.3724
-2.6220 3.3737
-1.8672 2.0927
ITEM: ATOMS id type xs ys zs
1 1 .486444 .991545 .560547
2 1 .990185 .615181 .527081
3 1 .805143 .012897 .430943
4 1 .206922 .008556 .449738
5 1 .007442 .605888 .523060
6 1 .503396 .426494 .984592
7 1 .500421 .478055 .011933
ITEM: TIMESTEP
400
ITEM: NUMBER OF ATOMS
7
ITEM: BOX BOUNDS ss ss ss
-3.0014 3.3595
-2.6205 3.3795
-1.8781 2.0796
ITEM: ATOMS id type xs ys zs
1 1 .489181 .989294 .564332
2 1 .991058 .614900 .529992
3 1 .807009 .012481 .433575
4 1 .207640 .008453 .451810
5 1 .007476 .606029 .523401
6 1 .503454 .424776 .988553
7 1 .501640 .477031 .014127
ITEM: TIMESTEP
1
ITEM: NUMBER OF ATOMS
7
ITEM: BOX BOUNDS ss ss ss
-2.9722 3.3189
-2.6014 3.3438
-1.8607 2.0601
ITEM: ATOMS id type xs ys zs
1 1 .485564 .993592 .569657
2 1 .998173 .612768 .528899
3 1 .811515 .014977 .431948
4 1 .206988 .005662 .452203
5 1 .000903 .609338 .526208
6 1 .505664 .428828 .992573
7 1 .502000 .474998 .005347
ITEM: TIMESTEP
50
ITEM: NUMBER OF ATOMS
7
ITEM: BOX BOUNDS ss ss ss
-3.0010 3.3431
-2.6014 3.3438
-1.8758 2.0601
ITEM: ATOMS id type xs ys zs
1 1 .485388 .993647 .571349
2 1 .995112 .612254 .531074
3 1 .809488 .014756 .433846
4 1 .209936 .005891 .454566
5 1 .005114 .609448 .528173
6 1 .505864 .429210 .992602
7 1 .502264 .475188 .008861
ITEM: TIMESTEP
100
ITEM: NUMBER OF ATOMS
7
ITEM: BOX BOUNDS ss ss ss
-3.0100 3.3587
-2.6014 3.3438
-1.8779 2.0723
ITEM: ATOMS id type xs ys zs
1 1 .484633 .993806 .568980
2 1 .993420 .612621 .529909
3 1 .808364 .013440 .433652
4 1 .210640 .006331 .454555
5 1 .006273 .608875 .526601
6 1 .504905 .428809 .989611
7 1 .501818 .476416 .009068
ITEM: TIMESTEP
150
ITEM: NUMBER OF ATOMS
7
ITEM: BOX BOUNDS ss ss ss
-3.0113 3.3820
-2.6056 3.3477
-1.8890 2.0720
ITEM: ATOMS id type xs ys zs
1 1 .482953 .993202 .568760
2 1 .989612 .613433 .532018
3 1 .805748 .013730 .436299
4 1 .210126 .007316 .457407
5 1 .006984 .608428 .526740
6 1 .502787 .428442 .990054
7 1 .499850 .477472 .010991
ITEM: TIMESTEP
200
ITEM: NUMBER OF ATOMS
7
ITEM: BOX BOUNDS ss ss ss
-3.0101 3.3649
-2.6195 3.3519
-1.9090 2.0876
ITEM: ATOMS id type xs ys zs
1 1 .484454 .992696 .566813
2 1 .991659 .615012 .532036
3 1 .807485 .016007 .437116
4 1 .210269 .010087 .459852
5 1 .007282 .608920 .526061
6 1 .503953 .429568 .986315
7 1 .501028 .478861 .015680
ITEM: TIMESTEP
250
ITEM: NUMBER OF ATOMS
7
ITEM: BOX BOUNDS ss ss ss
-3.0101 3.3676
-2.6244 3.3528
-1.8927 2.0856
ITEM: ATOMS id type xs ys zs
1 1 .485408 .992344 .563953
2 1 .990431 .617034 .529920
3 1 .806584 .017239 .433510
4 1 .209399 .011211 .458617
5 1 .007449 .609323 .524314
6 1 .503602 .429694 .986412
7 1 .500985 .479712 .010997
ITEM: TIMESTEP
300
ITEM: NUMBER OF ATOMS
7
ITEM: BOX BOUNDS ss ss ss
-3.0116 3.3572
-2.6106 3.3553
-1.8976 2.0870
ITEM: ATOMS id type xs ys zs
1 1 .487481 .991898 .562931
2 1 .991899 .617711 .530428
3 1 .807543 .015590 .432823
4 1 .209370 .008579 .459198
5 1 .007743 .607874 .524418
6 1 .504291 .427592 .986068
7 1 .501998 .479046 .012742
ITEM: TIMESTEP
350
ITEM: NUMBER OF ATOMS
7
ITEM: BOX BOUNDS ss ss ss
-3.0095 3.3615
-2.6110 3.3643
-1.8972 2.0894
ITEM: ATOMS id type xs ys zs
1 1 .489198 .990688 .561183
2 1 .991994 .617858 .528806
3 1 .806433 .015595 .432114
4 1 .208542 .008362 .459023
5 1 .008232 .607388 .524952
6 1 .504499 .426922 .984710
7 1 .501779 .478525 .013020
ITEM: TIMESTEP
400
ITEM: NUMBER OF ATOMS
7
ITEM: BOX BOUNDS ss ss ss
-3.0077 3.3656
-2.6270 3.3516
-1.8983 2.0828
ITEM: ATOMS id type xs ys zs
1 1 .490962 .993316 .561442
2 1 .991825 .620617 .528043
3 1 .805455 .018020 .433121
4 1 .207731 .011352 .460014
5 1 .009086 .610348 .526953
6 1 .504893 .429616 .986199
7 1 .501350 .480931 .013457
ITEM: TIMESTEP
1
ITEM: NUMBER OF ATOMS
7
ITEM: BOX BOUNDS ss ss ss
-2.9705 3.3401
-2.5954 3.3403
-1.8711 2.0656
ITEM: ATOMS id type xs ys zs
1 1 .483787 .994162 .569996
2 1 .994807 .612735 .529408
3 1 .808729 .013995 .432842
4 1 .206075 .004664 .453020
5 1 .000628 .609299 .526722
6 1 .503830 .428500 .991193
7 1 .500175 .474744 .007974
ITEM: TIMESTEP
50
ITEM: NUMBER OF ATOMS
7
ITEM: BOX BOUNDS ss ss ss
-2.9978 3.3436
-2.5954 3.3403
-1.8711 2.0656
ITEM: ATOMS id type xs ys zs
1 1 .485231 .994257 .569986
2 1 .995144 .612367 .529806
3 1 .809437 .013762 .432413
4 1 .209455 .005070 .453349
5 1 .004641 .609249 .526681
6 1 .505479 .428760 .990976
7 1 .502018 .475077 .007617
ITEM: TIMESTEP
100
ITEM: NUMBER OF ATOMS
7
ITEM: BOX BOUNDS ss ss ss
-3.0018 3.3575
-2.5981 3.3425
-1.8756 2.0656
ITEM: ATOMS id type xs ys zs
1 1 .484633 .994450 .569192
2 1 .994072 .613825 .530704
3 1 .808644 .012448 .432503
4 1 .208996 .006515 .453828
5 1 .005282 .608872 .527932
6 1 .503826 .427757 .990514
7 1 .501191 .476958 .008895
ITEM: TIMESTEP
150
ITEM: NUMBER OF ATOMS
7
ITEM: BOX BOUNDS ss ss ss
-3.0135 3.3612
-2.5976 3.3551
-1.8853 2.0739
ITEM: ATOMS id type xs ys zs
1 1 .485235 .992165 .566743
2 1 .993341 .613727 .530816
3 1 .808715 .011281 .432739
4 1 .209993 .006959 .453689
5 1 .006941 .607208 .529708
6 1 .504375 .426122 .989024
7 1 .501829 .476309 .011678
ITEM: TIMESTEP
200
ITEM: NUMBER OF ATOMS
7
ITEM: BOX BOUNDS ss ss ss
-3.0100 3.3641
-2.6077 3.3515
-1.8795 2.0824
ITEM: ATOMS id type xs ys zs
1 1 .485118 .992428 .563742
2 1 .992214 .615314 .528723
3 1 .808068 .012326 .430301
4 1 .209105 .008480 .451837
5 1 .006772 .607443 .528564
6 1 .504075 .426685 .987910
7 1 .501786 .477825 .010625
ITEM: TIMESTEP
250
ITEM: NUMBER OF ATOMS
7
ITEM: BOX BOUNDS ss ss ss
-3.0216 3.3644
-2.6130 3.3599
-1.8854 2.0867
ITEM: ATOMS id type xs ys zs
1 1 .486635 .991200 .564920
2 1 .992025 .615098 .528488
3 1 .808008 .012823 .431217
4 1 .210828 .008753 .452654
5 1 .009456 .606197 .528349
6 1 .505443 .425939 .987293
7 1 .502729 .478228 .012548
ITEM: TIMESTEP
300
ITEM: NUMBER OF ATOMS
7
ITEM: BOX BOUNDS ss ss ss
-3.0090 3.3616
-2.6185 3.3573
-1.8788 2.0965
ITEM: ATOMS id type xs ys zs
1 1 .486344 .992354 .565076
2 1 .992401 .616094 .525556
3 1 .807885 .013606 .430243
4 1 .209505 .008951 .450954
5 1 .008158 .606518 .526002
6 1 .505268 .426194 .984732
7 1 .501914 .479790 .012375
ITEM: TIMESTEP
350
ITEM: NUMBER OF ATOMS
7
ITEM: BOX BOUNDS ss ss ss
-3.0057 3.3673
-2.6141 3.3650
-1.8767 2.0954
ITEM: ATOMS id type xs ys zs
1 1 .486482 .991248 .566424
2 1 .991328 .615402 .525002
3 1 .807066 .012750 .430441
4 1 .208914 .008011 .451248
5 1 .008212 .605142 .525732
6 1 .505289 .425056 .985046
7 1 .501208 .479419 .012587
ITEM: TIMESTEP
400
ITEM: NUMBER OF ATOMS
7
ITEM: BOX BOUNDS ss ss ss
-3.0167 3.3589
-2.6151 3.3730
-1.8759 2.0865
ITEM: ATOMS id type xs ys zs
1 1 .489283 .989775 .567894
2 1 .992463 .615251 .525447
3 1 .808403 .012892 .431824
4 1 .210862 .008052 .452372
5 1 .010363 .604277 .526695
6 1 .507152 .424496 .987475
7 1 .502656 .478987 .012685
ITEM: TIMESTEP
1
ITEM: NUMBER OF ATOMS
7
ITEM: BOX BOUNDS ss ss ss
-2.9708 3.3360
-2.5997 3.3431
-1.8560 2.0823
ITEM: ATOMS id type xs ys zs
1 1 .484135 .993711 .565939
2 1 .995467 .612730 .525362
3 1 .809269 .014704 .428837
4 1 .206261 .005385 .449005
5 1 .000689 .609308 .522680
6 1 .504189 .428721 .986973
7 1 .500533 .474905 .004132
ITEM: TIMESTEP
50
ITEM: NUMBER OF ATOMS
7
ITEM: BOX BOUNDS ss ss ss
-2.9965 3.3412
-2.5997 3.3431
-1.8706 2.0823
ITEM: ATOMS id type xs ys zs
1 1 .485096 .993744 .567672
2 1 .995510 .612051 .527446
3 1 .809533 .014590 .430528
4 1 .209438 .005548 .451203
5 1 .004377 .609401 .524564
6 1 .505764 .429232 .986871
7 1 .502079 .474974 .007562
ITEM: TIMESTEP
100
ITEM: NUMBER OF ATOMS
7
ITEM: BOX BOUNDS ss ss ss
-3.0151 3.3581
-2.6040 3.3480
-1.8732 2.0823
ITEM: ATOMS id type xs ys zs
1 1 .484664 .993755 .567061
2 1 .993977 .612260 .528251
3 1 .808000 .013881 .430793
4 1 .211080 .006356 .452077
5 1 .006978 .608878 .524194
6 1 .505069 .429221 .986890
7 1 .501858 .476239 .008674
ITEM: TIMESTEP
150
ITEM: NUMBER OF ATOMS
7
ITEM: BOX BOUNDS ss ss ss
-3.0110 3.3800
-2.6133 3.3643
-1.8791 2.0823
ITEM: ATOMS id type xs ys zs
1 1 .482098 .991890 .567203
2 1 .991317 .612132 .529339
3 1 .804761 .014776 .432690
4 1 .209664 .007732 .452529
5 1 .005856 .607160 .524154
6 1 .502432 .429013 .986659
7 1 .499710 .477261 .010861
ITEM: TIMESTEP
200
ITEM: NUMBER OF ATOMS
7
ITEM: BOX BOUNDS ss ss ss
-3.0166 3.3684
-2.6160 3.3673
-1.8772 2.0823
ITEM: ATOMS id type xs ys zs
1 1 .483176 .991988 .567086
2 1 .993265 .612250 .529342
3 1 .805928 .014918 .432397
4 1 .209912 .008388 .452113
5 1 .006760 .605843 .523371
6 1 .503901 .428657 .986710
7 1 .500959 .478934 .011786
ITEM: TIMESTEP
250
ITEM: NUMBER OF ATOMS
7
ITEM: BOX BOUNDS ss ss ss
-3.0206 3.3728
-2.6171 3.3688
-1.8758 2.0823
ITEM: ATOMS id type xs ys zs
1 1 .482697 .992259 .567809
2 1 .992459 .612428 .528726
3 1 .805140 .014075 .431136
4 1 .209708 .008440 .452210
5 1 .007755 .604926 .521308
6 1 .504364 .428068 .986548
7 1 .501609 .480169 .013142
ITEM: TIMESTEP
300
ITEM: NUMBER OF ATOMS
7
ITEM: BOX BOUNDS ss ss ss
-3.0231 3.3713
-2.6051 3.3721
-1.8741 2.0900
ITEM: ATOMS id type xs ys zs
1 1 .483044 .992329 .567139
2 1 .992348 .612527 .527983
3 1 .804578 .010810 .429981
4 1 .209608 .006729 .450893
5 1 .008217 .602577 .517588
6 1 .504650 .426181 .984860
7 1 .503664 .480275 .015224
ITEM: TIMESTEP
350
ITEM: NUMBER OF ATOMS
7
ITEM: BOX BOUNDS ss ss ss
-3.0173 3.3757
-2.6130 3.3732
-1.8660 2.0893
ITEM: ATOMS id type xs ys zs
1 1 .482224 .992646 .566753
2 1 .991572 .613484 .527803
3 1 .803357 .011650 .428537
4 1 .208646 .008350 .449788
5 1 .007152 .602633 .515706
6 1 .503965 .426832 .985244
7 1 .503219 .481456 .013817
ITEM: TIMESTEP
400
ITEM: NUMBER OF ATOMS
7
ITEM: BOX BOUNDS ss ss ss
-3.0266 3.3704
-2.6087 3.3831
-1.8675 2.0823
ITEM: ATOMS id type xs ys zs
1 1 .483370 .991540 .567704
2 1 .991874 .612327 .529642
3 1 .804078 .010625 .429559
4 1 .210232 .007708 .451332
5 1 .008759 .601429 .516803
6 1 .504889 .425863 .987371
7 1 .504290 .480511 .013884
ITEM: TIMESTEP
1
ITEM: NUMBER OF ATOMS
7
ITEM: BOX BOUNDS ss ss ss
-2.9991 3.3456
-2.5997 3.3573
-1.8560 2.0823
ITEM: ATOMS id type xs ys zs
1 1 .485704 .991330 .565938
2 1 .993980 .611261 .525367
3 1 .808898 .014671 .428835
4 1 .209487 .005370 .449005
5 1 .005142 .607845 .522684
6 1 .505638 .427691 .986971
7 1 .502006 .473767 .004133
ITEM: TIMESTEP
50
ITEM: NUMBER OF ATOMS
7
ITEM: BOX BOUNDS ss ss ss
-2.9991 3.3456
-2.5997 3.3573
-1.8695 2.0823
ITEM: ATOMS id type xs ys zs
1 1 .484997 .991314 .567469
2 1 .994795 .610533 .527308
3 1 .809082 .014524 .430419
4 1 .209649 .005541 .451162
5 1 .004716 .607937 .524505
6 1 .505647 .428292 .986987
7 1 .502076 .473774 .007152
ITEM: TIMESTEP
100
ITEM: NUMBER OF ATOMS
7
ITEM: BOX BOUNDS ss ss ss
-3.0145 3.3563
-2.6036 3.3573
-1.8774 2.0823
ITEM: ATOMS id type xs ys zs
1 1 .485151 .991910 .567156
2 1 .993691 .610985 .528262
3 1 .808840 .013628 .431886
4 1 .211342 .006733 .452355
5 1 .006950 .607865 .525854
6 1 .505311 .428522 .987901
7 1 .502082 .475149 .009563
ITEM: TIMESTEP
150
ITEM: NUMBER OF ATOMS
7
ITEM: BOX BOUNDS ss ss ss
-3.0238 3.3648
-2.6067 3.3573
-1.8784 2.0823
ITEM: ATOMS id type xs ys zs
1 1 .484826 .992010 .565233
2 1 .992720 .610945 .529979
3 1 .808433 .012637 .432821
4 1 .212377 .007704 .452883
5 1 .008074 .607239 .526267
6 1 .504717 .428287 .988688
7 1 .501710 .476556 .010523
ITEM: TIMESTEP
200
ITEM: NUMBER OF ATOMS
7
ITEM: BOX BOUNDS ss ss ss
-3.0223 3.3692
-2.6014 3.3573
-1.8781 2.0840
ITEM: ATOMS id type xs ys zs
1 1 .484048 .992376 .565279
2 1 .991394 .611874 .529062
3 1 .807633 .011035 .432175
4 1 .211376 .006770 .452687
5 1 .008020 .606091 .524868
6 1 .504538 .426946 .987493
7 1 .502015 .476596 .011247
ITEM: TIMESTEP
250
ITEM: NUMBER OF ATOMS
7
ITEM: BOX BOUNDS ss ss ss
-3.0271 3.3699
-2.6128 3.3588
-1.8795 2.0823
ITEM: ATOMS id type xs ys zs
1 1 .484101 .993498 .567042
2 1 .990091 .613948 .528603
3 1 .807159 .012674 .433591
4 1 .210815 .007349 .453502
5 1 .008825 .606819 .524134
6 1 .503614 .426769 .988015
7 1 .501914 .477647 .014492
ITEM: TIMESTEP
300
ITEM: NUMBER OF ATOMS
7
ITEM: BOX BOUNDS ss ss ss
-3.0158 3.3785
-2.6178 3.3671
-1.8907 2.0825
ITEM: ATOMS id type xs ys zs
1 1 .482546 .992984 .568239
2 1 .987394 .614665 .529145
3 1 .805262 .014210 .436555
4 1 .207571 .007437 .456339
5 1 .006761 .606170 .524853
6 1 .500489 .426264 .988767
7 1 .499145 .477855 .019239
ITEM: TIMESTEP
350
ITEM: NUMBER OF ATOMS
7
ITEM: BOX BOUNDS ss ss ss
-3.0185 3.3622
-2.6282 3.3805
-1.8571 2.0908
ITEM: ATOMS id type xs ys zs
1 1 .484358 .990853 .563051
2 1 .989434 .614674 .524000
3 1 .807164 .015850 .430657
4 1 .208277 .009083 .451169
5 1 .006917 .605345 .519335
6 1 .501781 .426590 .986662
7 1 .500217 .478340 .011082
ITEM: TIMESTEP
400
ITEM: NUMBER OF ATOMS
7
ITEM: BOX BOUNDS ss ss ss
-3.0355 3.3475
-2.6270 3.3752
-1.8586 2.0847
ITEM: ATOMS id type xs ys zs
1 1 .487419 .991790 .563934
2 1 .991401 .616089 .524738
3 1 .809599 .015675 .431118
4 1 .211215 .008921 .451995
5 1 .009585 .605565 .519799
6 1 .504497 .426810 .988120
7 1 .502640 .479357 .011634
ITEM: TIMESTEP
1
ITEM: NUMBER OF ATOMS
7
ITEM: BOX BOUNDS ss ss ss
-2.9985 3.3130
-2.6010 3.3545
-1.8437 2.0715
ITEM: ATOMS id type xs ys zs
1 1 .488153 .991796 .566117
2 1 .999111 .611628 .525304
3 1 .813053 .014882 .428205
4 1 .210484 .005578 .448493
5 1 .005060 .608208 .522609
6 1 .508197 .428011 .989635
7 1 .504542 .474096 .000999
ITEM: TIMESTEP
50
ITEM: NUMBER OF ATOMS
7
ITEM: BOX BOUNDS ss ss ss
-2.9995 3.3443
-2.6010 3.3545
-1.8680 2.0715
ITEM: ATOMS id type xs ys zs
1 1 .485040 .991863 .568936
2 1 .995059 .610890 .528689
3 1 .809238 .014867 .431392
4 1 .209764 .005766 .452206
5 1 .004768 .608281 .525740
6 1 .505800 .428587 .989522
7 1 .502110 .474077 .006831
ITEM: TIMESTEP
100
ITEM: NUMBER OF ATOMS
7
ITEM: BOX BOUNDS ss ss ss
-3.0156 3.3540
-2.6050 3.3545
-1.8852 2.0715
ITEM: ATOMS id type xs ys zs
1 1 .485363 .992047 .570362
2 1 .994584 .612051 .530376
3 1 .808634 .014552 .434767
4 1 .211581 .007038 .455125
5 1 .007270 .608286 .527656
6 1 .506268 .428873 .989156
7 1 .502118 .475614 .010757
ITEM: TIMESTEP
150
ITEM: NUMBER OF ATOMS
7
ITEM: BOX BOUNDS ss ss ss
-3.0147 3.3678
-2.6020 3.3545
-1.8838 2.0715
ITEM: ATOMS id type xs ys zs
1 1 .484884 .992372 .568396
2 1 .993305 .614017 .529602
3 1 .806905 .013873 .437321
4 1 .211181 .007857 .455404
5 1 .006831 .607700 .526491
6 1 .505215 .428997 .988094
7 1 .500714 .476862 .009397
ITEM: TIMESTEP
200
ITEM: NUMBER OF ATOMS
7
ITEM: BOX BOUNDS ss ss ss
-3.0201 3.3879
-2.6029 3.3545
-1.8942 2.0715
ITEM: ATOMS id type xs ys zs
1 1 .484370 .992045 .567565
2 1 .989901 .615346 .530133
3 1 .805018 .013470 .440127
4 1 .211319 .008604 .457310
5 1 .006567 .607441 .527561
6 1 .503989 .428312 .987835
7 1 .499765 .477988 .011389
ITEM: TIMESTEP
250
ITEM: NUMBER OF ATOMS
7
ITEM: BOX BOUNDS ss ss ss
-3.0284 3.3663
-2.6073 3.3583
-1.8920 2.0738
ITEM: ATOMS id type xs ys zs
1 1 .486978 .991172 .566115
2 1 .992785 .615601 .528221
3 1 .808243 .013648 .439083
4 1 .213218 .009064 .456244
5 1 .007370 .606762 .527303
6 1 .506285 .427612 .988151
7 1 .502104 .478597 .011462
ITEM: TIMESTEP
300
ITEM: NUMBER OF ATOMS
7
ITEM: BOX BOUNDS ss ss ss
-3.0401 3.3636
-2.6108 3.3565
-1.8885 2.0741
ITEM: ATOMS id type xs ys zs
1 1 .488618 .991372 .564591
2 1 .992747 .616231 .528183
3 1 .809362 .013669 .438371
4 1 .214968 .008816 .454735
5 1 .009357 .606144 .526538
6 1 .507092 .427883 .988667
7 1 .503001 .478891 .011957
ITEM: TIMESTEP
350
ITEM: NUMBER OF ATOMS
7
ITEM: BOX BOUNDS ss ss ss
-3.0295 3.3697
-2.6175 3.3571
-1.8841 2.0901
ITEM: ATOMS id type xs ys zs
1 1 .487463 .991784 .560659