ITEM: TIMESTEP
1
ITEM: NUMBER OF ATOMS
7
ITEM: BOX BOUNDS ss ss ss
-2.9592 3.2483
-2.6160 3.3284
-2.0405 1.9232
ITEM: ATOMS id type xs ys zs
1 1 .534374 .999599 .552992
2 1 .999327 .590095 .477168
3 1 .779278 .000747 .443024
4 1 .174357 .030417 .481876
5 1 .000614 .658092 .557114
6 1 .504509 .439381 .999176
7 1 .474982 .475074 .001438
ITEM: TIMESTEP
50
ITEM: NUMBER OF ATOMS
7
ITEM: BOX BOUNDS ss ss ss
-2.9825 3.2739
-2.6380 3.3478
-2.0632 1.9450
ITEM: ATOMS id type xs ys zs
1 1 .534613 .997369 .553278
2 1 .997051 .589090 .477610
3 1 .775731 .005448 .444109
4 1 .175489 .032959 .482426
5 1 .003128 .658708 .555099
6 1 .504683 .440635 .993003
7 1 .471784 .476941 .003933
ITEM: TIMESTEP
100
ITEM: NUMBER OF ATOMS
7
ITEM: BOX BOUNDS ss ss ss
-2.9877 3.2823
-2.6433 3.3553
-2.0675 1.9536
ITEM: ATOMS id type xs ys zs
1 1 .535174 .993923 .548955
2 1 .993375 .588213 .478795
3 1 .774720 .004058 .440905
4 1 .176303 .035256 .483435
5 1 .005723 .656981 .554956
6 1 .504819 .439760 .993274
7 1 .474267 .479278 .012204
ITEM: TIMESTEP
150
ITEM: NUMBER OF ATOMS
7
ITEM: BOX BOUNDS ss ss ss
-2.9753 3.2907
-2.6588 3.3580
-2.0646 1.9446
ITEM: ATOMS id type xs ys zs
1 1 .533175 .990708 .553611
2 1 .995530 .591495 .478602
3 1 .773994 .008356 .439946
4 1 .174861 .038980 .481754
5 1 .009321 .651379 .554898
6 1 .503968 .442064 .990894
7 1 .474766 .478167 .007931
ITEM: TIMESTEP
200
ITEM: NUMBER OF ATOMS
7
ITEM: BOX BOUNDS ss ss ss
-2.9714 3.2941
-2.6601 3.3665
-2.0691 1.9476
ITEM: ATOMS id type xs ys zs
1 1 .529068 .993584 .550569
2 1 .991469 .587917 .482378
3 1 .774024 .007915 .438920
4 1 .172977 .034210 .482500
5 1 .005783 .655208 .557565
6 1 .501021 .441548 .987510
7 1 .473643 .477251 .007997
ITEM: TIMESTEP
250
ITEM: NUMBER OF ATOMS
7
ITEM: BOX BOUNDS ss ss ss
-2.9709 3.3065
-2.6663 3.3667
-2.0619 1.9432
ITEM: ATOMS id type xs ys zs
1 1 .529582 .992447 .549212
2 1 .992730 .588583 .480156
3 1 .775618 .014336 .441990
4 1 .169872 .043479 .483410
5 1 .009779 .652860 .556591
6 1 .503698 .441026 .989772
7 1 .475002 .479482 .010166
ITEM: TIMESTEP
300
ITEM: NUMBER OF ATOMS
7
ITEM: BOX BOUNDS ss ss ss
-2.9757 3.3030
-2.6569 3.3743
-2.0700 1.9432
ITEM: ATOMS id type xs ys zs
1 1 .530745 .994679 .551765
2 1 .992424 .588641 .477008
3 1 .771161 .003877 .445245
4 1 .168150 .037143 .489020
5 1 .007582 .655337 .557761
6 1 .506945 .440695 .986061
7 1 .473877 .473749 .019137
ITEM: TIMESTEP
350
ITEM: NUMBER OF ATOMS
7
ITEM: BOX BOUNDS ss ss ss
-2.9724 3.3115
-2.6684 3.3818
-2.0639 1.9454
ITEM: ATOMS id type xs ys zs
1 1 .527832 .992552 .551661
2 1 .987617 .586683 .473860
3 1 .770512 .004648 .443935
4 1 .171483 .040048 .485061
5 1 .010139 .654319 .563569
6 1 .501736 .439785 .993143
7 1 .470269 .477032 .013148
ITEM: TIMESTEP
400
ITEM: NUMBER OF ATOMS
7
ITEM: BOX BOUNDS ss ss ss
-2.9685 3.3096
-2.6655 3.3890
-2.0553 1.9529
ITEM: ATOMS id type xs ys zs
1 1 .527820 .989624 .552228
2 1 .990251 .590854 .475787
3 1 .772791 .005581 .440191
4 1 .167703 .042610 .483018
5 1 .010236 .652245 .547642
6 1 .502428 .439222 .983841
7 1 .478238 .471780 .012989
ITEM: TIMESTEP
1
ITEM: NUMBER OF ATOMS
7
ITEM: BOX BOUNDS ss ss ss
-2.9596 3.2828
-2.6505 3.3646
-2.0402 1.9309
ITEM: ATOMS id type xs ys zs
1 1 .531504 .993099 .551217
2 1 .993740 .588829 .476107
3 1 .774898 .006502 .441986
4 1 .173567 .035403 .481125
5 1 .000449 .655994 .555857
6 1 .501788 .439737 .996459
7 1 .472756 .475272 .000908
ITEM: TIMESTEP
50
ITEM: NUMBER OF ATOMS
7
ITEM: BOX BOUNDS ss ss ss
-2.9816 3.2828
-2.6505 3.3646
-2.0671 1.9447
ITEM: ATOMS id type xs ys zs
1 1 .533423 .992715 .552034
2 1 .995779 .588766 .479504
3 1 .776159 .003848 .445804
4 1 .177604 .035897 .484100
5 1 .003744 .656483 .558743
6 1 .502044 .442241 .994601
7 1 .474534 .476318 .007730
ITEM: TIMESTEP
100
ITEM: NUMBER OF ATOMS
7
ITEM: BOX BOUNDS ss ss ss
-2.9812 3.2828
-2.6505 3.3646
-2.0677 1.9539
ITEM: ATOMS id type xs ys zs
1 1 .533645 .995695 .548293
2 1 .995325 .587275 .474755
3 1 .776917 .006589 .444599
4 1 .178196 .037315 .483236
5 1 .005525 .653958 .556725
6 1 .503749 .441919 .984883
7 1 .474924 .476981 .007965
ITEM: TIMESTEP
150
ITEM: NUMBER OF ATOMS
7
ITEM: BOX BOUNDS ss ss ss
-2.9825 3.2828
-2.6551 3.3646
-2.0703 1.9499
ITEM: ATOMS id type xs ys zs
1 1 .533590 .992497 .548826
2 1 .994549 .589399 .476781
3 1 .774674 .008051 .442880
4 1 .175671 .040459 .488262
5 1 .008138 .653417 .563034
6 1 .503848 .440061 .988905
7 1 .475733 .479306 .010713
ITEM: TIMESTEP
200
ITEM: NUMBER OF ATOMS
7
ITEM: BOX BOUNDS ss ss ss
-2.9800 3.2845
-2.6591 3.3646
-2.0704 1.9491
ITEM: ATOMS id type xs ys zs
1 1 .532421 .991829 .551446
2 1 .995958 .590525 .472791
3 1 .773415 .007726 .440334
4 1 .172557 .035622 .483441
5 1 .005607 .653466 .560198
6 1 .503305 .439353 .990294
7 1 .476059 .476921 .013200
ITEM: TIMESTEP
250
ITEM: NUMBER OF ATOMS
7
ITEM: BOX BOUNDS ss ss ss
-2.9864 3.2831
-2.6705 3.3646
-2.0671 1.9593
ITEM: ATOMS id type xs ys zs
1 1 .534964 .994860 .548440
2 1 .992237 .590936 .473464
3 1 .778416 .008370 .439690
4 1 .174841 .036877 .479925
5 1 .011182 .658004 .551222
6 1 .506562 .440368 .985958
7 1 .471862 .481776 .008765
ITEM: TIMESTEP
300
ITEM: NUMBER OF ATOMS
7
ITEM: BOX BOUNDS ss ss ss
-2.9763 3.2875
-2.6628 3.3672
-2.0579 1.9689
ITEM: ATOMS id type xs ys zs
1 1 .530284 .991422 .542559
2 1 .991334 .591507 .480681
3 1 .775526 .008405 .441346
4 1 .168902 .037035 .482139
5 1 .011660 .657178 .558093
6 1 .504655 .435873 .986719
7 1 .472222 .474043 .009070
ITEM: TIMESTEP
350
ITEM: NUMBER OF ATOMS
7
ITEM: BOX BOUNDS ss ss ss
-2.9913 3.2892
-2.6623 3.3782
-2.0684 1.9591
ITEM: ATOMS id type xs ys zs
1 1 .523557 .992643 .552243
2 1 .994733 .590280 .478192
3 1 .777895 .009269 .436792
4 1 .173016 .036403 .489740
5 1 .009980 .648764 .558751
6 1 .504843 .439365 .988322
7 1 .475769 .479166 .016112
ITEM: TIMESTEP
400
ITEM: NUMBER OF ATOMS
7
ITEM: BOX BOUNDS ss ss ss
-2.9918 3.2959
-2.6614 3.3874
-2.0478 1.9559
ITEM: ATOMS id type xs ys zs
1 1 .524217 .991315 .555123
2 1 .992466 .590047 .476054
3 1 .775361 .007773 .435713
4 1 .175460 .036986 .487580
5 1 .008539 .646201 .557797
6 1 .505584 .436210 .987859
7 1 .475385 .478973 .010806
ITEM: TIMESTEP
1
ITEM: NUMBER OF ATOMS
7
ITEM: BOX BOUNDS ss ss ss
-2.9594 3.2871
-2.6526 3.3617
-2.0396 1.9355
ITEM: ATOMS id type xs ys zs
1 1 .531173 .993743 .550792
2 1 .993254 .589200 .476006
3 1 .774371 .006718 .441061
4 1 .173312 .036088 .480367
5 1 .000721 .656580 .555597
6 1 .501529 .440671 .995498
7 1 .472173 .475472 .000644
ITEM: TIMESTEP
50
ITEM: NUMBER OF ATOMS
7
ITEM: BOX BOUNDS ss ss ss
-2.9812 3.2871
-2.6526 3.3617
-2.0689 1.9449
ITEM: ATOMS id type xs ys zs
1 1 .532617 .991427 .550478
2 1 .992257 .589467 .476743
3 1 .774204 .007618 .442771
4 1 .175099 .036203 .485602
5 1 .004339 .657335 .555552
6 1 .503129 .441365 .990359
7 1 .476172 .475026 .008626
ITEM: TIMESTEP
100
ITEM: NUMBER OF ATOMS
7
ITEM: BOX BOUNDS ss ss ss
-2.9878 3.2871
-2.6526 3.3617
-2.0696 1.9544
ITEM: ATOMS id type xs ys zs
1 1 .534516 .993552 .549166
2 1 .994249 .589106 .479797
3 1 .777585 .004871 .440415
4 1 .175862 .036036 .481554
5 1 .009803 .652393 .556283
6 1 .501694 .440427 .990833
7 1 .473995 .477885 .010404
ITEM: TIMESTEP
150
ITEM: NUMBER OF ATOMS
7
ITEM: BOX BOUNDS ss ss ss
-2.9796 3.2871
-2.6526 3.3617
-2.0646 1.9609
ITEM: ATOMS id type xs ys zs
1 1 .536320 .992332 .546391
2 1 .994062 .588655 .474502
3 1 .777856 .003638 .441887
4 1 .176267 .035482 .478101
5 1 .008871 .654630 .553511
6 1 .501259 .442059 .989759
7 1 .473908 .478922 .006450
ITEM: TIMESTEP
200
ITEM: NUMBER OF ATOMS
7
ITEM: BOX BOUNDS ss ss ss
-2.9762 3.2871
-2.6555 3.3617
-2.0644 1.9558
ITEM: ATOMS id type xs ys zs
1 1 .533773 .996593 .549524
2 1 .991644 .586883 .472685
3 1 .773642 .003772 .440064
4 1 .174982 .037261 .483973
5 1 .009439 .655628 .551888
6 1 .502989 .442428 .987577
7 1 .472180 .476494 .012069
ITEM: TIMESTEP
250
ITEM: NUMBER OF ATOMS
7
ITEM: BOX BOUNDS ss ss ss
-2.9758 3.2927
-2.6579 3.3617
-2.0676 1.9647
ITEM: ATOMS id type xs ys zs
1 1 .530240 .993102 .553215
2 1 .991467 .588759 .473757
3 1 .773751 .005066 .439047
4 1 .171281 .037633 .477533
5 1 .005009 .654226 .554670
6 1 .497762 .440257 .986613
7 1 .474573 .480025 .010645
ITEM: TIMESTEP
300
ITEM: NUMBER OF ATOMS
7
ITEM: BOX BOUNDS ss ss ss
-2.9784 3.2889
-2.6625 3.3625
-2.0588 1.9581
ITEM: ATOMS id type xs ys zs
1 1 .533309 .992258 .548380
2 1 .992405 .593444 .479210
3 1 .776618 .007596 .432241
4 1 .173204 .038401 .489272
5 1 .009172 .651387 .552770
6 1 .506641 .438853 .991088
7 1 .475032 .478464 .014968
ITEM: TIMESTEP
350
ITEM: NUMBER OF ATOMS
7
ITEM: BOX BOUNDS ss ss ss
-2.9882 3.2913
-2.6717 3.3628
-2.0593 1.9595
ITEM: ATOMS id type xs ys zs
1 1 .526326 .996713 .537824
2 1 .988941 .595129 .472123
3 1 .777727 .008741 .441885
4 1 .176768 .035789 .480543
5 1 .009748 .655738 .555280
6 1 .501088 .444399 .985072
7 1 .474450 .477297 .008187
ITEM: TIMESTEP
400
ITEM: NUMBER OF ATOMS
7
ITEM: BOX BOUNDS ss ss ss
-2.9857 3.2972
-2.6606 3.3714
-2.0608 1.9632
ITEM: ATOMS id type xs ys zs
1 1 .527552 .990750 .548949
2 1 .989938 .592002 .472802
3 1 .774991 .005279 .441155
4 1 .166811 .037548 .469692
5 1 .006115 .651481 .549637
6 1 .499478 .436301 .985579
7 1 .474067 .479442 .015893
ITEM: TIMESTEP
1
ITEM: NUMBER OF ATOMS
7
ITEM: BOX BOUNDS ss ss ss
-2.9789 3.2888
-2.6437 3.3727
-2.0444 1.9290
ITEM: ATOMS id type xs ys zs
1 1 .532274 .992107 .552436
2 1 .992919 .587827 .476910
3 1 .774653 .005478 .442837
4 1 .175724 .034545 .481964
5 1 .003598 .654843 .557371
6 1 .502742 .438567 .997337
7 1 .473461 .473810 .001898
ITEM: TIMESTEP
50
ITEM: NUMBER OF ATOMS
7
ITEM: BOX BOUNDS ss ss ss
-2.9824 3.2888
-2.6437 3.3727
-2.0644 1.9434
ITEM: ATOMS id type xs ys zs
1 1 .532756 .990621 .550753
2 1 .993384 .589416 .477358
3 1 .774094 .005149 .443311
4 1 .177375 .035905 .483153
5 1 .004032 .656512 .560117
6 1 .502079 .439674 .989502
7 1 .473521 .474153 .007662
ITEM: TIMESTEP
100
ITEM: NUMBER OF ATOMS
7
ITEM: BOX BOUNDS ss ss ss
-2.9865 3.2888
-2.6502 3.3727
-2.0703 1.9563
ITEM: ATOMS id type xs ys zs
1 1 .534736 .991771 .547830
2 1 .994035 .587642 .477112
3 1 .774032 .005018 .441213
4 1 .177647 .033714 .483030
5 1 .004519 .654453 .556260
6 1 .500615 .440725 .991833
7 1 .474789 .475418 .014034
ITEM: TIMESTEP
150
ITEM: NUMBER OF ATOMS
7
ITEM: BOX BOUNDS ss ss ss
-2.9857 3.2890
-2.6561 3.3727
-2.0689 1.9590
ITEM: ATOMS id type xs ys zs
1 1 .533763 .990104 .546443
2 1 .997168 .585200 .474439
3 1 .775941 .007149 .444938
4 1 .175368 .036587 .483887
5 1 .005785 .654647 .551712
6 1 .501081 .442230 .989860
7 1 .474547 .477423 .013848
ITEM: TIMESTEP
200
ITEM: NUMBER OF ATOMS
7
ITEM: BOX BOUNDS ss ss ss
-2.9789 3.2970
-2.6551 3.3727
-2.0719 1.9555
ITEM: ATOMS id type xs ys zs
1 1 .530689 .993616 .548079
2 1 .992032 .588633 .478852
3 1 .773589 .007177 .439805
4 1 .171150 .039741 .483277
5 1 .007260 .653035 .550910
6 1 .499777 .441308 .991440
7 1 .473840 .480117 .008245
ITEM: TIMESTEP
250
ITEM: NUMBER OF ATOMS
7
ITEM: BOX BOUNDS ss ss ss
-2.9789 3.3020
-2.6593 3.3727
-2.0787 1.9608
ITEM: ATOMS id type xs ys zs
1 1 .529591 .994373 .549577
2 1 .992405 .587432 .479764
3 1 .773525 .007885 .438522
4 1 .171182 .040877 .486027
5 1 .006060 .653662 .549387
6 1 .500542 .441707 .992717
7 1 .471362 .481056 .008564
ITEM: TIMESTEP
300
ITEM: NUMBER OF ATOMS
7
ITEM: BOX BOUNDS ss ss ss
-2.9789 3.2920
-2.6576 3.3727
-2.0690 1.9635
ITEM: ATOMS id type xs ys zs
1 1 .526314 .992465 .549127
2 1 .992093 .590853 .479013
3 1 .773025 .008963 .444806
4 1 .175000 .040172 .477950
5 1 .007677 .648496 .553270
6 1 .499880 .441081 .990947
7 1 .477846 .479111 .010366
ITEM: TIMESTEP
350
ITEM: NUMBER OF ATOMS
7
ITEM: BOX BOUNDS ss ss ss
-2.9789 3.2888
-2.6550 3.3729
-2.0634 1.9645
ITEM: ATOMS id type xs ys zs
1 1 .529653 .992591 .543868
2 1 .991943 .590497 .473173
3 1 .776130 .007781 .440109
4 1 .166462 .036431 .482669
5 1 .006217 .651004 .552022
6 1 .500890 .439461 .982626
7 1 .473423 .479134 .010871
ITEM: TIMESTEP
400
ITEM: NUMBER OF ATOMS
7
ITEM: BOX BOUNDS ss ss ss
-2.9789 3.2903
-2.6553 3.3820
-2.0641 1.9588
ITEM: ATOMS id type xs ys zs
1 1 .529530 .993485 .547853
2 1 .991291 .588363 .473939
3 1 .776443 .007894 .442920
4 1 .165120 .036073 .484219
5 1 .006742 .650234 .557438
6 1 .501574 .438112 .984729
7 1 .473883 .478385 .011310
ITEM: TIMESTEP
1
ITEM: NUMBER OF ATOMS
7
ITEM: BOX BOUNDS ss ss ss
-2.9789 3.2888
-2.6437 3.3727
-2.0461 1.9375
ITEM: ATOMS id type xs ys zs
1 1 .532431 .991724 .550930
2 1 .992671 .587491 .475766
3 1 .774812 .005356 .441824
4 1 .175930 .034779 .481261
5 1 .003440 .654974 .555959
6 1 .502557 .438788 .995246
7 1 .473517 .474208 .002696
ITEM: TIMESTEP
50
ITEM: NUMBER OF ATOMS
7
ITEM: BOX BOUNDS ss ss ss
-2.9866 3.2888
-2.6437 3.3727
-2.0656 1.9463
ITEM: ATOMS id type xs ys zs
1 1 .532736 .991848 .552827
2 1 .992035 .588453 .473086
3 1 .773829 .005352 .444177
4 1 .177247 .035280 .482818
5 1 .006137 .655749 .557154
6 1 .504940 .438327 .993349
7 1 .474583 .475591 .007530
ITEM: TIMESTEP
100
ITEM: NUMBER OF ATOMS
7
ITEM: BOX BOUNDS ss ss ss
-2.9856 3.2888
-2.6437 3.3727
-2.0745 1.9542
ITEM: ATOMS id type xs ys zs
1 1 .531504 .991223 .551918
2 1 .992038 .586770 .476425
3 1 .773965 .004413 .446056
4 1 .176040 .036206 .485991
5 1 .003607 .651440 .558526
6 1 .504242 .439621 .992892
7 1 .474145 .474020 .008929
ITEM: TIMESTEP
150
ITEM: NUMBER OF ATOMS
7
ITEM: BOX BOUNDS ss ss ss
-2.9789 3.2888
-2.6437 3.3727
-2.0584 1.9465
ITEM: ATOMS id type xs ys zs
1 1 .534558 .990851 .552658
2 1 .993597 .586819 .473039
3 1 .776060 .007676 .445729
4 1 .174580 .035696 .484084
5 1 .003940 .651824 .550300
6 1 .501850 .438879 .986903
7 1 .473603 .474254 .007097
ITEM: TIMESTEP
200
ITEM: NUMBER OF ATOMS
7
ITEM: BOX BOUNDS ss ss ss
-2.9819 3.2888
-2.6437 3.3727
-2.0632 1.9491
ITEM: ATOMS id type xs ys zs
1 1 .527631 .993645 .543596
2 1 .995190 .590161 .472717
3 1 .778905 .002253 .443751
4 1 .173359 .034310 .485827
5 1 .006666 .651449 .545799
6 1 .502431 .440918 .988426
7 1 .476026 .478554 .011499
ITEM: TIMESTEP
250
ITEM: NUMBER OF ATOMS
7
ITEM: BOX BOUNDS ss ss ss
-2.9841 3.2956
-2.6458 3.3727
-2.0577 1.9546
ITEM: ATOMS id type xs ys zs
1 1 .527993 .993578 .541440
2 1 .995019 .590840 .466154
3 1 .777155 .003856 .440861
4 1 .175142 .034455 .483994
5 1 .007974 .650835 .548416
6 1 .498916 .440047 .990528
7 1 .475597 .478667 .009240
ITEM: TIMESTEP
300
ITEM: NUMBER OF ATOMS
7
ITEM: BOX BOUNDS ss ss ss
-2.9818 3.2992
-2.6466 3.3727
-2.0588 1.9519
ITEM: ATOMS id type xs ys zs
1 1 .528567 .993657 .543057
2 1 .992902 .589601 .474890
3 1 .772357 .009412 .442282
4 1 .168819 .033320 .482280
5 1 .010431 .649672 .547908
6 1 .503675 .439181 .983434
7 1 .474962 .475378 .009209
ITEM: TIMESTEP
350
ITEM: NUMBER OF ATOMS
7
ITEM: BOX BOUNDS ss ss ss
-2.9789 3.3028
-2.6514 3.3786
-2.0611 1.9517
ITEM: ATOMS id type xs ys zs
1 1 .530178 .992899 .542214
2 1 .992999 .588030 .472240
3 1 .773226 .009925 .441882
4 1 .168203 .034088 .484320
5 1 .010835 .648756 .549154
6 1 .504360 .441257 .982586
7 1 .473194 .475149 .009148
ITEM: TIMESTEP
400
ITEM: NUMBER OF ATOMS
7
ITEM: BOX BOUNDS ss ss ss
-2.9789 3.3069
-2.6520 3.3769
-2.0653 1.9509
ITEM: ATOMS id type xs ys zs
1 1 .529719 .993136 .550274
2 1 .994667 .590354 .483267
3 1 .771849 .007005 .442499
4 1 .170434 .037898 .491322
5 1 .011206 .649536 .546935
6 1 .500972 .439400 .990531
7 1 .475487 .481064 .015697
ITEM: TIMESTEP
1
ITEM: NUMBER OF ATOMS
7
ITEM: BOX BOUNDS ss ss ss
-2.9595 3.2823
-2.6341 3.3572
-2.0487 1.9256
ITEM: ATOMS id type xs ys zs
1 1 .531537 .994510 .553691
2 1 .993982 .588618 .477623
3 1 .774993 .003389 .443716
4 1 .173197 .033408 .483291
5 1 .000945 .656214 .557312
6 1 .501692 .439098 .998259
7 1 .472285 .474563 .003030
ITEM: TIMESTEP
50
ITEM: NUMBER OF ATOMS
7
ITEM: BOX BOUNDS ss ss ss
-2.9867 3.2823
-2.6411 3.3572
-2.0656 1.9485
ITEM: ATOMS id type xs ys zs
1 1 .534306 .994242 .553455
2 1 .993752 .587892 .478088
3 1 .773775 .006160 .444829
4 1 .177419 .035271 .482402
5 1 .003709 .657473 .557886
6 1 .505289 .439650 .989979
7 1 .473630 .476597 .003325
ITEM: TIMESTEP
100
ITEM: NUMBER OF ATOMS
7
ITEM: BOX BOUNDS ss ss ss
-2.9887 3.2823
-2.6567 3.3572
-2.0732 1.9538
ITEM: ATOMS id type xs ys zs
1 1 .535854 .995359 .550891
2 1 .990519 .590883 .476834
3 1 .777452 .008160 .441626
4 1 .177287 .039990 .478844
5 1 .006820 .657543 .556799
6 1 .501924 .442446 .992566
7 1 .476026 .477684 .009367
ITEM: TIMESTEP
150
ITEM: NUMBER OF ATOMS
7
ITEM: BOX BOUNDS ss ss ss
-2.9895 3.2902
-2.6558 3.3591
-2.0708 1.9564
ITEM: ATOMS id type xs ys zs
1 1 .533653 .994136 .551041
2 1 .991626 .592259 .475850
3 1 .776453 .009284 .447598
4 1 .177368 .032876 .483590
5 1 .005991 .657582 .554356
6 1 .498300 .442325 .989246
7 1 .473472 .476926 .008715
ITEM: TIMESTEP
200
ITEM: NUMBER OF ATOMS
7
ITEM: BOX BOUNDS ss ss ss
-2.9864 3.2882
-2.6554 3.3730
-2.0740 1.9616
ITEM: ATOMS id type xs ys zs
1 1 .532455 .992328 .547549
2 1 .994453 .587870 .470024
3 1 .776143 .010016 .440610
4 1 .174831 .032752 .483335
5 1 .007873 .651490 .556946
6 1 .499070 .439186 .988708
7 1 .476518 .479133 .020525
ITEM: TIMESTEP
250
ITEM: NUMBER OF ATOMS
7
ITEM: BOX BOUNDS ss ss ss
-2.9812 3.2897
-2.6530 3.3788
-2.0636 1.9665
ITEM: ATOMS id type xs ys zs
1 1 .529807 .990689 .551583
2 1 .989464 .587175 .466076
3 1 .778007 .006472 .443221
4 1 .172445 .035318 .483467
5 1 .007437 .652580 .548088
6 1 .502730 .440160 .984216
7 1 .474423 .476117 .011217
ITEM: TIMESTEP
300
ITEM: NUMBER OF ATOMS
7
ITEM: BOX BOUNDS ss ss ss
-2.9800 3.2898
-2.6585 3.3857
-2.0637 1.9598
ITEM: ATOMS id type xs ys zs
1 1 .531968 .990859 .544967
2 1 .995065 .588646 .475050
3 1 .777515 .009525 .444797
4 1 .170304 .032708 .476551
5 1 .006387 .651187 .549658
6 1 .500898 .440047 .982663
7 1 .472394 .476141 .015801
ITEM: TIMESTEP
350
ITEM: NUMBER OF ATOMS
7
ITEM: BOX BOUNDS ss ss ss
-2.9775 3.2909
-2.6545 3.3809
-2.0654 1.9591
ITEM: ATOMS id type xs ys zs
1 1 .534414 .990339 .545001
2 1 .994222 .588301 .472701
3 1 .777556 .007998 .442182
4 1 .169937 .031003 .473924
5 1 .005391 .649842 .549620
6 1 .501199 .441265 .982966
7 1 .472543 .477552 .014396
ITEM: TIMESTEP
400
ITEM: NUMBER OF ATOMS
7
ITEM: BOX BOUNDS ss ss ss
-2.9759 3.2971
-2.6494 3.3797
-2.0632 1.9636
ITEM: ATOMS id type xs ys zs
1 1 .534717 .991304 .543815
2 1 .992426 .589247 .470978
3 1 .776793 .008181 .437065
4 1 .169837 .029859 .470234
5 1 .006219 .650695 .550243
6 1 .499638 .439972 .981798
7 1 .471941 .475836 .016296
ITEM: TIMESTEP
1
ITEM: NUMBER OF ATOMS
7
ITEM: BOX BOUNDS ss ss ss
-2.9594 3.2863
-2.6341 3.3690
-2.0487 1.9420
ITEM: ATOMS id type xs ys zs
1 1 .531022 .992496 .550995
2 1 .993282 .587026 .475992
3 1 .774451 .003715 .442161
4 1 .173346 .033252 .480759
5 1 .000675 .654756 .555267
6 1 .501120 .438189 .994501
7 1 .472542 .472992 .003028
ITEM: TIMESTEP
50
ITEM: NUMBER OF ATOMS
7
ITEM: BOX BOUNDS ss ss ss
-2.9845 3.2863
-2.6375 3.3690
-2.0674 1.9481
ITEM: ATOMS id type xs ys zs
1 1 .532830 .991832 .552441
2 1 .993185 .586649 .478827
3 1 .776552 .003459 .443917
4 1 .178613 .033429 .482908
5 1 .003808 .658509 .553943
6 1 .503604 .439652 .995152
7 1 .473179 .473487 .007757
ITEM: TIMESTEP
100
ITEM: NUMBER OF ATOMS
7
ITEM: BOX BOUNDS ss ss ss
-2.9913 3.2863
-2.6567 3.3690
-2.0795 1.9538
ITEM: ATOMS id type xs ys zs
1 1 .532802 .992159 .554623
2 1 .995599 .589129 .475704
3 1 .776414 .004972 .444810
4 1 .176912 .040687 .484579
5 1 .005573 .654116 .556396
6 1 .503307 .439859 .990089
7 1 .474858 .478020 .010720
ITEM: TIMESTEP
150
ITEM: NUMBER OF ATOMS
7
ITEM: BOX BOUNDS ss ss ss
-2.9867 3.2863
-2.6583 3.3690
-2.0764 1.9595
ITEM: ATOMS id type xs ys zs
1 1 .529499 .991479 .560422
2 1 .993204 .589058 .474026
3 1 .774408 .009734 .447163
4 1 .174620 .038409 .485289
5 1 .005819 .657420 .554271
6 1 .500375 .443775 .989395
7 1 .475006 .477371 .010081
ITEM: TIMESTEP
200
ITEM: NUMBER OF ATOMS
7
ITEM: BOX BOUNDS ss ss ss
-2.9953 3.2911
-2.6526 3.3690
-2.0662 1.9581
ITEM: ATOMS id type xs ys zs
1 1 .530283 .992122 .561058
2 1 .991470 .585104 .476198
3 1 .777381 .007459 .448780
4 1 .174578 .034011 .483643
5 1 .007832 .657547 .552341
6 1 .497040 .439949 .987059
7 1 .472045 .479034 .015703
ITEM: TIMESTEP
250
ITEM: NUMBER OF ATOMS
7
ITEM: BOX BOUNDS ss ss ss
-3.0045 3.2863
-2.6516 3.3690
-2.0646 1.9667
ITEM: ATOMS id type xs ys zs
1 1 .535414 .991565 .555863
2 1 .997197 .589213 .472048
3 1 .778905 .012204 .447115
4 1 .176195 .031559 .481155
5 1 .008981 .654691 .551663
6 1 .502089 .436574 .980921
7 1 .472240 .479300 .010796
ITEM: TIMESTEP
300
ITEM: NUMBER OF ATOMS
7
ITEM: BOX BOUNDS ss ss ss
-3.0034 3.2901
-2.6581 3.3690
-2.0494 1.9649
ITEM: ATOMS id type xs ys zs
1 1 .534351 .992596 .547359
2 1 .989073 .587687 .474748
3 1 .779331 .007351 .448148
4 1 .175577 .033798 .483259
5 1 .012415 .657812 .550762
6 1 .498832 .438652 .987809
7 1 .474890 .476449 .008648
ITEM: TIMESTEP
350
ITEM: NUMBER OF ATOMS
7
ITEM: BOX BOUNDS ss ss ss
-2.9901 3.3051
-2.6592 3.3690
-2.0500 1.9564
ITEM: ATOMS id type xs ys zs
1 1 .527918 .990079 .548391
2 1 .989901 .588782 .474613
3 1 .776405 .007274 .446365
4 1 .172713 .033720 .489622
5 1 .011373 .655711 .547310
6 1 .499520 .440148 .987809
7 1 .474467 .474083 .010156
ITEM: TIMESTEP
400
ITEM: NUMBER OF ATOMS
7
ITEM: BOX BOUNDS ss ss ss
-2.9831 3.2969
-2.6597 3.3701
-2.0487 1.9601
ITEM: ATOMS id type xs ys zs
1 1 .531392 .989698 .548559
2 1 .991892 .588845 .475180
3 1 .776312 .007512 .440487
4 1 .172278 .036038 .483525
5 1 .010081 .653365 .548744
6 1 .499750 .438429 .994629
7 1 .474372 .476400 .017164
ITEM: TIMESTEP
1
ITEM: NUMBER OF ATOMS
7
ITEM: BOX BOUNDS ss ss ss
-2.9595 3.2823
-2.6526 3.3584
-2.0487 1.9394
ITEM: ATOMS id type xs ys zs
1 1 .531694 .994106 .551427
2 1 .993742 .589561 .476518
3 1 .775081 .006719 .442014
4 1 .173418 .036255 .481126
5 1 .000707 .656820 .555542
6 1 .502000 .440540 .994723
7 1 .472581 .475644 .002999
ITEM: TIMESTEP
50
ITEM: NUMBER OF ATOMS
7
ITEM: BOX BOUNDS ss ss ss
-2.9925 3.2823
-2.6526 3.3584
-2.0681 1.9473
ITEM: ATOMS id type xs ys zs
1 1 .534852 .992958 .552413
2 1 .995164 .588505 .479883
3 1 .775740 .008752 .445728
4 1 .179429 .036724 .480601
5 1 .006237 .658832 .560259
6 1 .501774 .440910 .988943
7 1 .475589 .473237 .010656
ITEM: TIMESTEP
100
ITEM: NUMBER OF ATOMS
7
ITEM: BOX BOUNDS ss ss ss
-2.9899 3.2823
-2.6526 3.3584
-2.0761 1.9573
ITEM: ATOMS id type xs ys zs
1 1 .535193 .995535 .549500
2 1 .992759 .586550 .473507
3 1 .777187 .006725 .444685
4 1 .176893 .036161 .485415
5 1 .006343 .657747 .555246
6 1 .504950 .441376 .986140
7 1 .474041 .477040 .008816
ITEM: TIMESTEP
150
ITEM: NUMBER OF ATOMS
7
ITEM: BOX BOUNDS ss ss ss
-2.9938 3.2860
-2.6526 3.3595
-2.0758 1.9697
ITEM: ATOMS id type xs ys zs
1 1 .532236 .994855 .554547
2 1 .991769 .591431 .479260
3 1 .777197 .006294 .440762
4 1 .174492 .038619 .484060
5 1 .011088 .653764 .550250
6 1 .503203 .439329 .985682
7 1 .470276 .478468 .008305
ITEM: TIMESTEP
200
ITEM: NUMBER OF ATOMS
7
ITEM: BOX BOUNDS ss ss ss
-2.9904 3.2878
-2.6550 3.3635
-2.0894 1.9680
ITEM: ATOMS id type xs ys zs
1 1 .530665 .992238 .548876
2 1 .989637 .590303 .473653
3 1 .777431 .009166 .449536
4 1 .174579 .037345 .484921
5 1 .011273 .657038 .555140
6 1 .502409 .441511 .990024
7 1 .475792 .473509 .007935
ITEM: TIMESTEP
250
ITEM: NUMBER OF ATOMS
7
ITEM: BOX BOUNDS ss ss ss
-2.9814 3.3011
-2.6526 3.3618
-2.0833 1.9662
ITEM: ATOMS id type xs ys zs
1 1 .529587 .993481 .549371
2 1 .989801 .584708 .474337
3 1 .774061 .003538 .448221
4 1 .176124 .032920 .487855
5 1 .005111 .655365 .558549
6 1 .502003 .442042 .986359
7 1 .468048 .477494 .014989
ITEM: TIMESTEP
300
ITEM: NUMBER OF ATOMS
7
ITEM: BOX BOUNDS ss ss ss
-2.9871 3.2929
-2.6538 3.3653
-2.0798 1.9628
ITEM: ATOMS id type xs ys zs
1 1 .526485 .990908 .547971
2 1 .989240 .588312 .479152
3 1 .776453 .009823 .446010
4 1 .173936 .035088 .485547
5 1 .008987 .653252 .561177
6 1 .501051 .442639 .992436
7 1 .468208 .478292 .007185
ITEM: TIMESTEP
350
ITEM: NUMBER OF ATOMS
7
ITEM: BOX BOUNDS ss ss ss
-2.9945 3.2966
-2.6669 3.3745
-2.0751 1.9672
ITEM: ATOMS id type xs ys zs
1 1 .531165 .990271 .548879
2 1 .994274 .586261 .485293
3 1 .777872 .005758 .437962
4 1 .177492 .034843 .488600
5 1 .013130 .655178 .556617
6 1 .503749 .442105 .983133
7 1 .473328 .478434 .011393
ITEM: TIMESTEP
400
ITEM: NUMBER OF ATOMS
7
ITEM: BOX BOUNDS ss ss ss
-2.9794 3.3032
-2.6656 3.3782
-2.0906 1.9599
ITEM: ATOMS id type xs ys zs
1 1 .533441 .990220 .547589
2 1 .988577 .589243 .484858
3 1 .775294 .008774 .439905
4 1 .171630 .042051 .484192
5 1 .009424 .654551 .561450
6 1 .499136 .438368 .987413
7 1 .467455 .481529 .017292
ITEM: TIMESTEP
1
ITEM: NUMBER OF ATOMS
7
ITEM: BOX BOUNDS ss ss ss
-2.9595 3.2943
-2.6381 3.3568
-2.0622 1.9335
ITEM: ATOMS id type xs ys zs
1 1 .530778 .994436 .553704
2 1 .991800 .588788 .478721
3 1 .773298 .004366 .444741
4 1 .173234 .033638 .483835
5 1 .000651 .656196 .558209
6 1 .500735 .439218 .996889
7 1 .471783 .474548 .006675
ITEM: TIMESTEP
50
ITEM: NUMBER OF ATOMS
7
ITEM: BOX BOUNDS ss ss ss
-2.9867 3.2943
-2.6405 3.3568
-2.0663 1.9509
ITEM: ATOMS id type xs ys zs
1 1 .534493 .993342 .551618
2 1 .991310 .588316 .477971
3 1 .773791 .004918 .445095
4 1 .178735 .031145 .479918
5 1 .006073 .657949 .556084
6 1 .503409 .437973 .995234
7 1 .474589 .474985 .006350
ITEM: TIMESTEP
100
ITEM: NUMBER OF ATOMS
7
ITEM: BOX BOUNDS ss ss ss
-2.9940 3.2943
-2.6439 3.3588
-2.0721 1.9552
ITEM: ATOMS id type xs ys zs
1 1 .532051 .994208 .550858
2 1 .991548 .590505 .475641
3 1 .774842 .001946 .443430
4 1 .178936 .035420 .485214
5 1 .006490 .656080 .556636
6 1 .503594 .441278 .990210
7 1 .473170 .477494 .010258
ITEM: TIMESTEP
150
ITEM: NUMBER OF ATOMS
7
ITEM: BOX BOUNDS ss ss ss
-2.9877 3.2943
-2.6514 3.3568
-2.0761 1.9611
ITEM: ATOMS id type xs ys zs
1 1 .530820 .993140 .548478
2 1 .992624 .590775 .480715
3 1 .774671 .004210 .442574
4 1 .174425 .037489 .483507
5 1 .004985 .655922 .553953
6 1 .501942 .439476 .992686
7 1 .472289 .479066 .011050
ITEM: TIMESTEP
200
ITEM: NUMBER OF ATOMS
7
ITEM: BOX BOUNDS ss ss ss
-2.9918 3.2957
-2.6741 3.3637
-2.0874 1.9569
ITEM: ATOMS id type xs ys zs
1 1 .532827 .993896 .549040
2 1 .990428 .590650 .478021
3 1 .777719 .011265 .441846
4 1 .177837 .038615 .487094
5 1 .009011 .655763 .554409
6 1 .503483 .436706 .987829
7 1 .472372 .480634 .012998
ITEM: TIMESTEP
250
ITEM: NUMBER OF ATOMS
7
ITEM: BOX BOUNDS ss ss ss
-2.9797 3.2943
-2.6581 3.3636
-2.0776 1.9549
ITEM: ATOMS id type xs ys zs
1 1 .532071 .991478 .549099
2 1 .992065 .589031 .474887
3 1 .779236 .010700 .442987
4 1 .172132 .035550 .485270
5 1 .009030 .657170 .556248
6 1 .500267 .439851 .992385
7 1 .473157 .480439 .013014
ITEM: TIMESTEP
300
ITEM: NUMBER OF ATOMS
7
ITEM: BOX BOUNDS ss ss ss
-2.9791 3.2943
-2.6690 3.3719
-2.0871 1.9699
ITEM: ATOMS id type xs ys zs
1 1 .536967 .991396 .548757
2 1 .992572 .585563 .478605
3 1 .774872 .004981 .438966
4 1 .172587 .034573 .481305
5 1 .007289 .654729 .550109
6 1 .498985 .436925 .990171
7 1 .474441 .478109 .019613
ITEM: TIMESTEP
350
ITEM: NUMBER OF ATOMS
7
ITEM: BOX BOUNDS ss ss ss
-2.9900 3.2943
-2.6721 3.3708
-2.0931 1.9674
ITEM: ATOMS id type xs ys zs
1 1 .533499 .987505 .545603
2 1 .993589 .589346 .477908
3 1 .777960 .009240 .444442
4 1 .171725 .036504 .478841
5 1 .010451 .656219 .556122
6 1 .502638 .437887 .985898
7 1 .473706 .479972 .015001
ITEM: TIMESTEP
400
ITEM: NUMBER OF ATOMS
7
ITEM: BOX BOUNDS ss ss ss
-2.9848 3.2943
-2.6940 3.3730
-2.0840 1.9693
ITEM: ATOMS id type xs ys zs
1 1 .532229 .990571 .545852
2 1 .990764 .590077 .469931
3 1 .776134 .010788 .446082
4 1 .169204 .042077 .480818
5 1 .010950 .652046 .549027
6 1 .501538 .438177 .975703
7 1 .471138 .480306 .021746
ITEM: TIMESTEP
1
ITEM: NUMBER OF ATOMS
7
ITEM: BOX BOUNDS ss ss ss
-2.9595 3.2686
-2.6829 3.3479
-2.0469 1.9427
ITEM: ATOMS id type xs ys zs
1 1 .532618 .996178 .550343
2 1 .995857 .592776 .475832
3 1 .776767 .011940 .441616
4 1 .173860 .041070 .480573
5 1 .000536 .659862 .554681
6 1 .502823 .444000 .994356
7 1 .473831 .479448 .002739
ITEM: TIMESTEP
50
ITEM: NUMBER OF ATOMS
7
ITEM: BOX BOUNDS ss ss ss
-2.9887 3.2706
-2.6829 3.3552
-2.0698 1.9471
ITEM: ATOMS id type xs ys zs
1 1 .534732 .996275 .552825
2 1 .995072 .593663 .478588
3 1 .778195 .011303 .441892
4 1 .179843 .043197 .481922
5 1 .002670 .659635 .552930
6 1 .502430 .442533 .996091
7 1 .473950 .477554 .007548
ITEM: TIMESTEP
100
ITEM: NUMBER OF ATOMS
7
ITEM: BOX BOUNDS ss ss ss
-2.9883 3.2804
-2.6829 3.3633
-2.0785 1.9606
ITEM: ATOMS id type xs ys zs
1 1 .529742 .994123 .548833
2 1 .995676 .591646 .478229
3 1 .777026 .013280 .443634
4 1 .180585 .040937 .483695
5 1 .007015 .658526 .555183
6 1 .503089 .442215 .986120
7 1 .475516 .480607 .009749
ITEM: TIMESTEP
150
ITEM: NUMBER OF ATOMS
7
ITEM: BOX BOUNDS ss ss ss
-2.9839 3.2792
-2.6829 3.3605
-2.0741 1.9682
ITEM: ATOMS id type xs ys zs
1 1 .531959 .990804 .551045
2 1 .994384 .590261 .477823
3 1 .778636 .012551 .446173
4 1 .176811 .043648 .475074
5 1 .007800 .660700 .554422
6 1 .501325 .445660 .983812
7 1 .475453 .480433 .009978
ITEM: TIMESTEP
200
ITEM: NUMBER OF ATOMS
7
ITEM: BOX BOUNDS ss ss ss
-2.9863 3.2773
-2.6829 3.3600
-2.0777 1.9681
ITEM: ATOMS id type xs ys zs
1 1 .531987 .992973 .552784
2 1 .994006 .591041 .475026
3 1 .776540 .014022 .445170
4 1 .177267 .039690 .482637
5 1 .008580 .656155 .548961
6 1 .503184 .443832 .981643
7 1 .474044 .482402 .009654
ITEM: TIMESTEP
250
ITEM: NUMBER OF ATOMS
7
ITEM: BOX BOUNDS ss ss ss
-2.9954 3.2838
-2.6829 3.3584
-2.0718 1.9565
ITEM: ATOMS id type xs ys zs
1 1 .532873 .992178 .551899
2 1 .991055 .591528 .472230
3 1 .774559 .015370 .444961
4 1 .179706 .040496 .481375
5 1 .011255 .656464 .548594
6 1 .502585 .443514 .985424
7 1 .471504 .481482 .007191
ITEM: TIMESTEP
300
ITEM: NUMBER OF ATOMS
7
ITEM: BOX BOUNDS ss ss ss
-2.9970 3.2878
-2.6829 3.3657
-2.0756 1.9507
ITEM: ATOMS id type xs ys zs
1 1 .531102 .994417 .562254
2 1 .990881 .588563 .483018
3 1 .780076 .009428 .450341
4 1 .176499 .037848 .482569
5 1 .011734 .657409 .558097
6 1 .502626 .443099 .986703
7 1 .472009 .482400 .011348
ITEM: TIMESTEP
350
ITEM: NUMBER OF ATOMS
7
ITEM: BOX BOUNDS ss ss ss
-3.0003 3.2869
-2.6829 3.3721
-2.0718 1.9628
ITEM: ATOMS id type xs ys zs
1 1 .530071 .990728 .552389