ITEM: TIMESTEP
1
ITEM: NUMBER OF ATOMS
7
ITEM: BOX BOUNDS ss ss ss
-2.9592 3.2483
-2.6160 3.3284
-2.0405 1.9232
ITEM: ATOMS id type xs ys zs
1 1 .534393 .999370 .552742
2 1 .999324 .589982 .477019
3 1 .779189 .000678 .442747
4 1 .174301 .030377 .482197
5 1 .000603 .658164 .557122
6 1 .504439 .439465 .998852
7 1 .475050 .475010 .001111
ITEM: TIMESTEP
50
ITEM: NUMBER OF ATOMS
7
ITEM: BOX BOUNDS ss ss ss
-2.9825 3.2739
-2.6380 3.3478
-2.0632 1.9450
ITEM: ATOMS id type xs ys zs
1 1 .533971 .995743 .552230
2 1 .995154 .589418 .477317
3 1 .777113 .004365 .443449
4 1 .176589 .033833 .482665
5 1 .004574 .657215 .556576
6 1 .503907 .440331 .993220
7 1 .474892 .475782 .006907
ITEM: TIMESTEP
100
ITEM: NUMBER OF ATOMS
7
ITEM: BOX BOUNDS ss ss ss
-2.9877 3.2823
-2.6433 3.3553
-2.0675 1.9536
ITEM: ATOMS id type xs ys zs
1 1 .533165 .993881 .550146
2 1 .994076 .589291 .476946
3 1 .777061 .005455 .442638
4 1 .176003 .034776 .483352
5 1 .006847 .655790 .554438
6 1 .503317 .440282 .989473
7 1 .474800 .476998 .009423
ITEM: TIMESTEP
150
ITEM: NUMBER OF ATOMS
7
ITEM: BOX BOUNDS ss ss ss
-2.9753 3.2907
-2.6588 3.3580
-2.0646 1.9446
ITEM: ATOMS id type xs ys zs
1 1 .531450 .993811 .550499
2 1 .993541 .590579 .477938
3 1 .775465 .008250 .442959
4 1 .172924 .037518 .484362
5 1 .006177 .655467 .554584
6 1 .502033 .441347 .990566
7 1 .473437 .478920 .009498
ITEM: TIMESTEP
200
ITEM: NUMBER OF ATOMS
7
ITEM: BOX BOUNDS ss ss ss
-2.9714 3.2941
-2.6601 3.3665
-2.0691 1.9476
ITEM: ATOMS id type xs ys zs
1 1 .531037 .992997 .550620
2 1 .993444 .590145 .478047
3 1 .774818 .008264 .443267
4 1 .171078 .037826 .484614
5 1 .006599 .654190 .555001
6 1 .501817 .440482 .988906
7 1 .473187 .478756 .012051
ITEM: TIMESTEP
250
ITEM: NUMBER OF ATOMS
7
ITEM: BOX BOUNDS ss ss ss
-2.9709 3.3065
-2.6663 3.3667
-2.0619 1.9432
ITEM: ATOMS id type xs ys zs
1 1 .529792 .993665 .550669
2 1 .991565 .590969 .476463
3 1 .772710 .008891 .442829
4 1 .169463 .038727 .485099
5 1 .007308 .654506 .555419
6 1 .501214 .440796 .989626
7 1 .472570 .479461 .012054
ITEM: TIMESTEP
300
ITEM: NUMBER OF ATOMS
7
ITEM: BOX BOUNDS ss ss ss
-2.9757 3.3030
-2.6569 3.3743
-2.0700 1.9432
ITEM: ATOMS id type xs ys zs
1 1 .529901 .992825 .551502
2 1 .992288 .589978 .476682
3 1 .773054 .007060 .443795
4 1 .169249 .037272 .487013
5 1 .008423 .653326 .556178
6 1 .502353 .439246 .989146
7 1 .473565 .477878 .015235
ITEM: TIMESTEP
350
ITEM: NUMBER OF ATOMS
7
ITEM: BOX BOUNDS ss ss ss
-2.9724 3.3115
-2.6684 3.3818
-2.0639 1.9454
ITEM: ATOMS id type xs ys zs
1 1 .528178 .991965 .550516
2 1 .991007 .590451 .475656
3 1 .771855 .008614 .442721
4 1 .167778 .039336 .486319
5 1 .007998 .653361 .554475
6 1 .501787 .439613 .988079
7 1 .473052 .478079 .014663
ITEM: TIMESTEP
400
ITEM: NUMBER OF ATOMS
7
ITEM: BOX BOUNDS ss ss ss
-2.9685 3.3096
-2.6655 3.3890
-2.0553 1.9529
ITEM: ATOMS id type xs ys zs
1 1 .527027 .990856 .549095
2 1 .991304 .590046 .474960
3 1 .771785 .007668 .440893
4 1 .166539 .039503 .483762
5 1 .007558 .652383 .551544
6 1 .501789 .438327 .986184
7 1 .473788 .477320 .013188
ITEM: TIMESTEP
1
ITEM: NUMBER OF ATOMS
7
ITEM: BOX BOUNDS ss ss ss
-2.9596 3.2828
-2.6505 3.3646
-2.0402 1.9309
ITEM: ATOMS id type xs ys zs
1 1 .531475 .993366 .551641
2 1 .993799 .588787 .476058
3 1 .774893 .006405 .441843
4 1 .173396 .035749 .481222
5 1 .000667 .656168 .556016
6 1 .501689 .440036 .996923
7 1 .472462 .475164 .001029
ITEM: TIMESTEP
50
ITEM: NUMBER OF ATOMS
7
ITEM: BOX BOUNDS ss ss ss
-2.9816 3.2828
-2.6505 3.3646
-2.0671 1.9447
ITEM: ATOMS id type xs ys zs
1 1 .533318 .993052 .552712
2 1 .993691 .588626 .477916
3 1 .776045 .006428 .444177
4 1 .176391 .035646 .483089
5 1 .004325 .656185 .557191
6 1 .503083 .440313 .993543
7 1 .474059 .475529 .007615
ITEM: TIMESTEP
100
ITEM: NUMBER OF ATOMS
7
ITEM: BOX BOUNDS ss ss ss
-2.9812 3.2828
-2.6505 3.3646
-2.0677 1.9539
ITEM: ATOMS id type xs ys zs
1 1 .533038 .992524 .550717
2 1 .993560 .589007 .476468
3 1 .776897 .006656 .443127
4 1 .175408 .035685 .482576
5 1 .005453 .655570 .555783
6 1 .502645 .440283 .990043
7 1 .473918 .476707 .008870
ITEM: TIMESTEP
150
ITEM: NUMBER OF ATOMS
7
ITEM: BOX BOUNDS ss ss ss
-2.9825 3.2828
-2.6551 3.3646
-2.0703 1.9499
ITEM: ATOMS id type xs ys zs
1 1 .532709 .991986 .550282
2 1 .993790 .589883 .476424
3 1 .777719 .007647 .443454
4 1 .174595 .036359 .484005
5 1 .006867 .655065 .556436
6 1 .502680 .439900 .990029
7 1 .473847 .477724 .010405
ITEM: TIMESTEP
200
ITEM: NUMBER OF ATOMS
7
ITEM: BOX BOUNDS ss ss ss
-2.9800 3.2845
-2.6591 3.3646
-2.0704 1.9491
ITEM: ATOMS id type xs ys zs
1 1 .531637 .991860 .549723
2 1 .993920 .590325 .476825
3 1 .777202 .008008 .443117
4 1 .173145 .037090 .484432
5 1 .006993 .654859 .556874
6 1 .502555 .439901 .989923
7 1 .473573 .478163 .011996
ITEM: TIMESTEP
250
ITEM: NUMBER OF ATOMS
7
ITEM: BOX BOUNDS ss ss ss
-2.9864 3.2831
-2.6705 3.3646
-2.0671 1.9593
ITEM: ATOMS id type xs ys zs
1 1 .531706 .992359 .547829
2 1 .994087 .591339 .476093
3 1 .776991 .009604 .441148
4 1 .172382 .039363 .483407
5 1 .008733 .655105 .555526
6 1 .503489 .440544 .987579
7 1 .474610 .479082 .012818
ITEM: TIMESTEP
300
ITEM: NUMBER OF ATOMS
7
ITEM: BOX BOUNDS ss ss ss
-2.9763 3.2875
-2.6628 3.3672
-2.0579 1.9689
ITEM: ATOMS id type xs ys zs
1 1 .529907 .992713 .545643
2 1 .993336 .591113 .475078
3 1 .775952 .008430 .438587
4 1 .169865 .038280 .480979
5 1 .007989 .654171 .553317
6 1 .502676 .439099 .985103
7 1 .474084 .478528 .011867
ITEM: TIMESTEP
350
ITEM: NUMBER OF ATOMS
7
ITEM: BOX BOUNDS ss ss ss
-2.9913 3.2892
-2.6623 3.3782
-2.0684 1.9591
ITEM: ATOMS id type xs ys zs
1 1 .530218 .991841 .548631
2 1 .993171 .590519 .477201
3 1 .776061 .008196 .440860
4 1 .171298 .037954 .483932
5 1 .010741 .652554 .555229
6 1 .504075 .438301 .987153
7 1 .475733 .477719 .015822
ITEM: TIMESTEP
400
ITEM: NUMBER OF ATOMS
7
ITEM: BOX BOUNDS ss ss ss
-2.9918 3.2959
-2.6614 3.3874
-2.0478 1.9559
ITEM: ATOMS id type xs ys zs
1 1 .529049 .991060 .547190
2 1 .992235 .589936 .473729
3 1 .774926 .007633 .438050
4 1 .170861 .037463 .482331
5 1 .010868 .651005 .552356
6 1 .504082 .437641 .987339
7 1 .475662 .476902 .012001
ITEM: TIMESTEP
1
ITEM: NUMBER OF ATOMS
7
ITEM: BOX BOUNDS ss ss ss
-2.9594 3.2871
-2.6526 3.3617
-2.0396 1.9355
ITEM: ATOMS id type xs ys zs
1 1 .531089 .993845 .550929
2 1 .993118 .589215 .475425
3 1 .774355 .006770 .441249
4 1 .173243 .036121 .480586
5 1 .000619 .656609 .555303
6 1 .501321 .440450 .995749
7 1 .472116 .475580 .000894
ITEM: TIMESTEP
50
ITEM: NUMBER OF ATOMS
7
ITEM: BOX BOUNDS ss ss ss
-2.9812 3.2871
-2.6526 3.3617
-2.0689 1.9449
ITEM: ATOMS id type xs ys zs
1 1 .532946 .993462 .552886
2 1 .992999 .589014 .478023
3 1 .775451 .006844 .444289
4 1 .176331 .035960 .483193
5 1 .004113 .656677 .557370
6 1 .502682 .440727 .993494
7 1 .473659 .475818 .007970
ITEM: TIMESTEP
100
ITEM: NUMBER OF ATOMS
7
ITEM: BOX BOUNDS ss ss ss
-2.9878 3.2871
-2.6526 3.3617
-2.0696 1.9544
ITEM: ATOMS id type xs ys zs
1 1 .532635 .992748 .550218
2 1 .993317 .588701 .477119
3 1 .776441 .006603 .442970
4 1 .176389 .035591 .482222
5 1 .006852 .655850 .555639
6 1 .503143 .440800 .990705
7 1 .474228 .476437 .009827
ITEM: TIMESTEP
150
ITEM: NUMBER OF ATOMS
7
ITEM: BOX BOUNDS ss ss ss
-2.9796 3.2871
-2.6526 3.3617
-2.0646 1.9609
ITEM: ATOMS id type xs ys zs
1 1 .531402 .992684 .547104
2 1 .993350 .588537 .476609
3 1 .776227 .006348 .440659
4 1 .174726 .035242 .480377
5 1 .006943 .654563 .553525
6 1 .502545 .440480 .988975
7 1 .473370 .477153 .010031
ITEM: TIMESTEP
200
ITEM: NUMBER OF ATOMS
7
ITEM: BOX BOUNDS ss ss ss
-2.9762 3.2871
-2.6555 3.3617
-2.0644 1.9558
ITEM: ATOMS id type xs ys zs
1 1 .530673 .992742 .547934
2 1 .993259 .588943 .476857
3 1 .775945 .006675 .441051
4 1 .173417 .035475 .481449
5 1 .006830 .654449 .554079
6 1 .502100 .440261 .989773
7 1 .473404 .477932 .010992
ITEM: TIMESTEP
250
ITEM: NUMBER OF ATOMS
7
ITEM: BOX BOUNDS ss ss ss
-2.9758 3.2927
-2.6579 3.3617
-2.0676 1.9647
ITEM: ATOMS id type xs ys zs
1 1 .529492 .992861 .547085
2 1 .992142 .589795 .476492
3 1 .774948 .007105 .440152
4 1 .171908 .036250 .481413
5 1 .007101 .654561 .553241
6 1 .501534 .439627 .987114
7 1 .473050 .478323 .012923
ITEM: TIMESTEP
300
ITEM: NUMBER OF ATOMS
7
ITEM: BOX BOUNDS ss ss ss
-2.9784 3.2889
-2.6625 3.3625
-2.0588 1.9581
ITEM: ATOMS id type xs ys zs
1 1 .529560 .993153 .546165
2 1 .992519 .590662 .476661
3 1 .775391 .007928 .439226
4 1 .171515 .037173 .481444
5 1 .008292 .654861 .553285
6 1 .502554 .439617 .988419
7 1 .473662 .478583 .011434
ITEM: TIMESTEP
350
ITEM: NUMBER OF ATOMS
7
ITEM: BOX BOUNDS ss ss ss
-2.9882 3.2913
-2.6717 3.3628
-2.0593 1.9595
ITEM: ATOMS id type xs ys zs
1 1 .529409 .993705 .545269
2 1 .992424 .591931 .476312
3 1 .775310 .009441 .438325
4 1 .172113 .038846 .481062
5 1 .010112 .655222 .553286
6 1 .503681 .440186 .987018
7 1 .474750 .479562 .012090
ITEM: TIMESTEP
400
ITEM: NUMBER OF ATOMS
7
ITEM: BOX BOUNDS ss ss ss
-2.9857 3.2972
-2.6606 3.3714
-2.0608 1.9632
ITEM: ATOMS id type xs ys zs
1 1 .528015 .992953 .544698
2 1 .991511 .590629 .475623
3 1 .774109 .007409 .437678
4 1 .170877 .037191 .480589
5 1 .009773 .653225 .552965
6 1 .503230 .438506 .985121
7 1 .474507 .478156 .013045
ITEM: TIMESTEP
1
ITEM: NUMBER OF ATOMS
7
ITEM: BOX BOUNDS ss ss ss
-2.9789 3.2888
-2.6437 3.3727
-2.0444 1.9290
ITEM: ATOMS id type xs ys zs
1 1 .532408 .992009 .552380
2 1 .992870 .587523 .476839
3 1 .774844 .005277 .442648
4 1 .175780 .034613 .482005
5 1 .003736 .654890 .556748
6 1 .502742 .438806 .997395
7 1 .473631 .473926 .002095
ITEM: TIMESTEP
50
ITEM: NUMBER OF ATOMS
7
ITEM: BOX BOUNDS ss ss ss
-2.9824 3.2888
-2.6437 3.3727
-2.0644 1.9434
ITEM: ATOMS id type xs ys zs
1 1 .532961 .991665 .552712
2 1 .992744 .587296 .477681
3 1 .775258 .005312 .443872
4 1 .176515 .034491 .482719
5 1 .004203 .654995 .557040
6 1 .502624 .439084 .993941
7 1 .473594 .474133 .006759
ITEM: TIMESTEP
100
ITEM: NUMBER OF ATOMS
7
ITEM: BOX BOUNDS ss ss ss
-2.9865 3.2888
-2.6502 3.3727
-2.0703 1.9563
ITEM: ATOMS id type xs ys zs
1 1 .533496 .991347 .550126
2 1 .993176 .587534 .476234
3 1 .775814 .006612 .443649
4 1 .176419 .035292 .481637
5 1 .006056 .654958 .555022
6 1 .501777 .440051 .990536
7 1 .473836 .476024 .010054
ITEM: TIMESTEP
150
ITEM: NUMBER OF ATOMS
7
ITEM: BOX BOUNDS ss ss ss
-2.9857 3.2890
-2.6561 3.3727
-2.0689 1.9590
ITEM: ATOMS id type xs ys zs
1 1 .533460 .991578 .548731
2 1 .993403 .587922 .475191
3 1 .775920 .007830 .443265
4 1 .175568 .036170 .480823
5 1 .007231 .654750 .553602
6 1 .501328 .440486 .989491
7 1 .473988 .477430 .011099
ITEM: TIMESTEP
200
ITEM: NUMBER OF ATOMS
7
ITEM: BOX BOUNDS ss ss ss
-2.9789 3.2970
-2.6551 3.3727
-2.0719 1.9555
ITEM: ATOMS id type xs ys zs
1 1 .531474 .992189 .549947
2 1 .991971 .587844 .475925
3 1 .774817 .007764 .442930
4 1 .173593 .036559 .481997
5 1 .007065 .654202 .553737
6 1 .500470 .440059 .990313
7 1 .473430 .478418 .012161
ITEM: TIMESTEP
250
ITEM: NUMBER OF ATOMS
7
ITEM: BOX BOUNDS ss ss ss
-2.9789 3.3020
-2.6593 3.3727
-2.0787 1.9608
ITEM: ATOMS id type xs ys zs
1 1 .529855 .992610 .550647
2 1 .990615 .588565 .476424
3 1 .774009 .008481 .443339
4 1 .172215 .038205 .482934
5 1 .007401 .653598 .553633
6 1 .500161 .440354 .988953
7 1 .473462 .479414 .014113
ITEM: TIMESTEP
300
ITEM: NUMBER OF ATOMS
7
ITEM: BOX BOUNDS ss ss ss
-2.9789 3.2920
-2.6576 3.3727
-2.0690 1.9635
ITEM: ATOMS id type xs ys zs
1 1 .529200 .993078 .549303
2 1 .991929 .589642 .474070
3 1 .774896 .008153 .442480
4 1 .171229 .037733 .481950
5 1 .007670 .651096 .552188
6 1 .501780 .440145 .987343
7 1 .474859 .478914 .011907
ITEM: TIMESTEP
350
ITEM: NUMBER OF ATOMS
7
ITEM: BOX BOUNDS ss ss ss
-2.9789 3.2888
-2.6550 3.3729
-2.0634 1.9645
ITEM: ATOMS id type xs ys zs
1 1 .528657 .992974 .547994
2 1 .992594 .590162 .472681
3 1 .775081 .007670 .441705
4 1 .170678 .036875 .481206
5 1 .007773 .649903 .551087
6 1 .502649 .439546 .986376
7 1 .475094 .478402 .011308
ITEM: TIMESTEP
400
ITEM: NUMBER OF ATOMS
7
ITEM: BOX BOUNDS ss ss ss
-2.9789 3.2903
-2.6553 3.3820
-2.0641 1.9588
ITEM: ATOMS id type xs ys zs
1 1 .528066 .991274 .548421
2 1 .992718 .589586 .473003
3 1 .774782 .007387 .442227
4 1 .170039 .036882 .481839
5 1 .007795 .648620 .551578
6 1 .502975 .438245 .987294
7 1 .475096 .477547 .012452
ITEM: TIMESTEP
1
ITEM: NUMBER OF ATOMS
7
ITEM: BOX BOUNDS ss ss ss
-2.9789 3.2888
-2.6437 3.3727
-2.0461 1.9375
ITEM: ATOMS id type xs ys zs
1 1 .532411 .992012 .551402
2 1 .992871 .587525 .476051
3 1 .774848 .005275 .441947
4 1 .175780 .034613 .481197
5 1 .003736 .654895 .555760
6 1 .502740 .438808 .995282
7 1 .473633 .473921 .002520
ITEM: TIMESTEP
50
ITEM: NUMBER OF ATOMS
7
ITEM: BOX BOUNDS ss ss ss
-2.9866 3.2888
-2.6437 3.3727
-2.0656 1.9463
ITEM: ATOMS id type xs ys zs
1 1 .533393 .991673 .552457
2 1 .992759 .587277 .477390
3 1 .775385 .005395 .443815
4 1 .177213 .034477 .482586
5 1 .004729 .655109 .556810
6 1 .503006 .439109 .993258
7 1 .473959 .474103 .006817
ITEM: TIMESTEP
100
ITEM: NUMBER OF ATOMS
7
ITEM: BOX BOUNDS ss ss ss
-2.9856 3.2888
-2.6437 3.3727
-2.0745 1.9542
ITEM: ATOMS id type xs ys zs
1 1 .532927 .991183 .551845
2 1 .993101 .587349 .477064
3 1 .776145 .005658 .445274
4 1 .176333 .034351 .483360
5 1 .005652 .654625 .556865
6 1 .502036 .439076 .990253
7 1 .473619 .475303 .010459
ITEM: TIMESTEP
150
ITEM: NUMBER OF ATOMS
7
ITEM: BOX BOUNDS ss ss ss
-2.9789 3.2888
-2.6437 3.3727
-2.0584 1.9465
ITEM: ATOMS id type xs ys zs
1 1 .531815 .991718 .551155
2 1 .993259 .588124 .477104
3 1 .776147 .007186 .446098
4 1 .173043 .034624 .483965
5 1 .005544 .652090 .552571
6 1 .501319 .439341 .990800
7 1 .473578 .475945 .008725
ITEM: TIMESTEP
200
ITEM: NUMBER OF ATOMS
7
ITEM: BOX BOUNDS ss ss ss
-2.9819 3.2888
-2.6437 3.3727
-2.0632 1.9491
ITEM: ATOMS id type xs ys zs
1 1 .531909 .991950 .550927
2 1 .993554 .588509 .476672
3 1 .776444 .007100 .446412
4 1 .172637 .034698 .484554
5 1 .006710 .651198 .551182
6 1 .501490 .439541 .989473
7 1 .474268 .476532 .010493
ITEM: TIMESTEP
250
ITEM: NUMBER OF ATOMS
7
ITEM: BOX BOUNDS ss ss ss
-2.9841 3.2956
-2.6458 3.3727
-2.0577 1.9546
ITEM: ATOMS id type xs ys zs
1 1 .530263 .992194 .547570
2 1 .992993 .589514 .473510
3 1 .775596 .007163 .442909
4 1 .172578 .034936 .482830
5 1 .008216 .651715 .547617
6 1 .501521 .439670 .988126
7 1 .474777 .476981 .010840
ITEM: TIMESTEP
300
ITEM: NUMBER OF ATOMS
7
ITEM: BOX BOUNDS ss ss ss
-2.9818 3.2992
-2.6466 3.3727
-2.0588 1.9519
ITEM: ATOMS id type xs ys zs
1 1 .529179 .992697 .546934
2 1 .992483 .590183 .473923
3 1 .774823 .007217 .442332
4 1 .171872 .035041 .483511
5 1 .008525 .651851 .547299
6 1 .501723 .439643 .988238
7 1 .474809 .477146 .011606
ITEM: TIMESTEP
350
ITEM: NUMBER OF ATOMS
7
ITEM: BOX BOUNDS ss ss ss
-2.9789 3.3028
-2.6514 3.3786
-2.0611 1.9517
ITEM: ATOMS id type xs ys zs
1 1 .528367 .992023 .546592
2 1 .992107 .590448 .473842
3 1 .774177 .007943 .442752
4 1 .170993 .035745 .484413
5 1 .008461 .651477 .547165
6 1 .501848 .439581 .987667
7 1 .474655 .476954 .011988
ITEM: TIMESTEP
400
ITEM: NUMBER OF ATOMS
7
ITEM: BOX BOUNDS ss ss ss
-2.9789 3.3069
-2.6520 3.3769
-2.0653 1.9509
ITEM: ATOMS id type xs ys zs
1 1 .527833 .992240 .546884
2 1 .991738 .591282 .473146
3 1 .773747 .007941 .443477
4 1 .170480 .035897 .486306
5 1 .008810 .651377 .547434
6 1 .502296 .439469 .987363
7 1 .474680 .476709 .012806
ITEM: TIMESTEP
1
ITEM: NUMBER OF ATOMS
7
ITEM: BOX BOUNDS ss ss ss
-2.9595 3.2823
-2.6341 3.3572
-2.0487 1.9256
ITEM: ATOMS id type xs ys zs
1 1 .531508 .994576 .553338
2 1 .993880 .588389 .477813
3 1 .774950 .003706 .443632
4 1 .173397 .033160 .482974
5 1 .000628 .656045 .557706
6 1 .501712 .439050 .998245
7 1 .472480 .474313 .003176
ITEM: TIMESTEP
50
ITEM: NUMBER OF ATOMS
7
ITEM: BOX BOUNDS ss ss ss
-2.9867 3.2823
-2.6411 3.3572
-2.0656 1.9485
ITEM: ATOMS id type xs ys zs
1 1 .534023 .994295 .552276
2 1 .993755 .588616 .477342
3 1 .776218 .004955 .443528
4 1 .177514 .034049 .482291
5 1 .004667 .656692 .556541
6 1 .503487 .440057 .992787
7 1 .474376 .474966 .006730
ITEM: TIMESTEP
100
ITEM: NUMBER OF ATOMS
7
ITEM: BOX BOUNDS ss ss ss
-2.9887 3.2823
-2.6567 3.3572
-2.0732 1.9538
ITEM: ATOMS id type xs ys zs
1 1 .534006 .993681 .552271
2 1 .993470 .589537 .477176
3 1 .776958 .007404 .444382
4 1 .177360 .036268 .483265
5 1 .005944 .657143 .556833
6 1 .503194 .441766 .990899
7 1 .474005 .477413 .009673
ITEM: TIMESTEP
150
ITEM: NUMBER OF ATOMS
7
ITEM: BOX BOUNDS ss ss ss
-2.9895 3.2902
-2.6558 3.3591
-2.0708 1.9564
ITEM: ATOMS id type xs ys zs
1 1 .533134 .994119 .551408
2 1 .992143 .589288 .475698
3 1 .776473 .007829 .443927
4 1 .176805 .035519 .482675
5 1 .007452 .655946 .555836
6 1 .501701 .442176 .990008
7 1 .473097 .477919 .011156
ITEM: TIMESTEP
200
ITEM: NUMBER OF ATOMS
7
ITEM: BOX BOUNDS ss ss ss
-2.9864 3.2882
-2.6554 3.3730
-2.0740 1.9616
ITEM: ATOMS id type xs ys zs
1 1 .532934 .992495 .550263
2 1 .992392 .588072 .474603
3 1 .777173 .008301 .444361
4 1 .175769 .035541 .482562
5 1 .007815 .653998 .554561
6 1 .501319 .441379 .988173
7 1 .472920 .477415 .013819
ITEM: TIMESTEP
250
ITEM: NUMBER OF ATOMS
7
ITEM: BOX BOUNDS ss ss ss
-2.9812 3.2897
-2.6530 3.3788
-2.0636 1.9665
ITEM: ATOMS id type xs ys zs
1 1 .532290 .991996 .547740
2 1 .992208 .587587 .472047
3 1 .776915 .008162 .442961
4 1 .174370 .035143 .480598
5 1 .007657 .653284 .551893
6 1 .500654 .440433 .986627
7 1 .472807 .477260 .012048
ITEM: TIMESTEP
300
ITEM: NUMBER OF ATOMS
7
ITEM: BOX BOUNDS ss ss ss
-2.9800 3.2898
-2.6585 3.3857
-2.0637 1.9598
ITEM: ATOMS id type xs ys zs
1 1 .531735 .991357 .548714
2 1 .992217 .587955 .472322
3 1 .776902 .009011 .443972
4 1 .173258 .036175 .481463
5 1 .007958 .653324 .552361
6 1 .500789 .440307 .987202
7 1 .473078 .477161 .012520
ITEM: TIMESTEP
350
ITEM: NUMBER OF ATOMS
7
ITEM: BOX BOUNDS ss ss ss
-2.9775 3.2909
-2.6545 3.3809
-2.0654 1.9591
ITEM: ATOMS id type xs ys zs
1 1 .531174 .992079 .550212
2 1 .992553 .588803 .472042
3 1 .776625 .008142 .444516
4 1 .171996 .035463 .482501
5 1 .007532 .653529 .552209
6 1 .500930 .440079 .986574
7 1 .473135 .476783 .013721
ITEM: TIMESTEP
400
ITEM: NUMBER OF ATOMS
7
ITEM: BOX BOUNDS ss ss ss
-2.9759 3.2971
-2.6494 3.3797
-2.0632 1.9636
ITEM: ATOMS id type xs ys zs
1 1 .530353 .992283 .550049
2 1 .991850 .589101 .470718
3 1 .775947 .007198 .443909
4 1 .171211 .035011 .483048
5 1 .007605 .653321 .550758
6 1 .500717 .439478 .985460
7 1 .472979 .476407 .013734
ITEM: TIMESTEP
1
ITEM: NUMBER OF ATOMS
7
ITEM: BOX BOUNDS ss ss ss
-2.9594 3.2863
-2.6341 3.3690
-2.0487 1.9420
ITEM: ATOMS id type xs ys zs
1 1 .531163 .992613 .551070
2 1 .993243 .587226 .475859
3 1 .774449 .003695 .441817
4 1 .173278 .033096 .480999
5 1 .000618 .654751 .555428
6 1 .501386 .438185 .994165
7 1 .472172 .473377 .003157
ITEM: TIMESTEP
50
ITEM: NUMBER OF ATOMS
7
ITEM: BOX BOUNDS ss ss ss
-2.9845 3.2863
-2.6375 3.3690
-2.0674 1.9481
ITEM: ATOMS id type xs ys zs
1 1 .533547 .992284 .552614
2 1 .993078 .587121 .477561
3 1 .775658 .004388 .443843
4 1 .177126 .033406 .482536
5 1 .004236 .655158 .556915
6 1 .503022 .438925 .992992
7 1 .473905 .473700 .007094
ITEM: TIMESTEP
100
ITEM: NUMBER OF ATOMS
7
ITEM: BOX BOUNDS ss ss ss
-2.9913 3.2863
-2.6567 3.3690
-2.0795 1.9538
ITEM: ATOMS id type xs ys zs
1 1 .533876 .991736 .553358
2 1 .993161 .587807 .478048
3 1 .776815 .007293 .444683
4 1 .177765 .036284 .484151
5 1 .006344 .656337 .556950
6 1 .502653 .441176 .990978
7 1 .474141 .476440 .011174
ITEM: TIMESTEP
150
ITEM: NUMBER OF ATOMS
7
ITEM: BOX BOUNDS ss ss ss
-2.9867 3.2863
-2.6583 3.3690
-2.0764 1.9595
ITEM: ATOMS id type xs ys zs
1 1 .532231 .991811 .554908
2 1 .993386 .587892 .475660
3 1 .777726 .007843 .444967
4 1 .175654 .036306 .483424
5 1 .005945 .656478 .554707
6 1 .500092 .440617 .990068
7 1 .473503 .477305 .013640
ITEM: TIMESTEP
200
ITEM: NUMBER OF ATOMS
7
ITEM: BOX BOUNDS ss ss ss
-2.9953 3.2911
-2.6526 3.3690
-2.0662 1.9581
ITEM: ATOMS id type xs ys zs
1 1 .531472 .991175 .555596
2 1 .992459 .587543 .473699
3 1 .777912 .007295 .444670
4 1 .175633 .034947 .482916
5 1 .007266 .656293 .553285
6 1 .499406 .439259 .989885
7 1 .473740 .477518 .013447
ITEM: TIMESTEP
250
ITEM: NUMBER OF ATOMS
7
ITEM: BOX BOUNDS ss ss ss
-3.0045 3.2863
-2.6516 3.3690
-2.0646 1.9667
ITEM: ATOMS id type xs ys zs
1 1 .532684 .990992 .554056
2 1 .992986 .587798 .472753
3 1 .779055 .007012 .443821
4 1 .176806 .034637 .482168
5 1 .008969 .656015 .551953
6 1 .500716 .438650 .987365
7 1 .474899 .477657 .013928
ITEM: TIMESTEP
300
ITEM: NUMBER OF ATOMS
7
ITEM: BOX BOUNDS ss ss ss
-3.0034 3.2901
-2.6581 3.3690
-2.0494 1.9649
ITEM: ATOMS id type xs ys zs
1 1 .531731 .991155 .551561
2 1 .992069 .589209 .471049
3 1 .779386 .007641 .443211
4 1 .175157 .035152 .482426
5 1 .010396 .656098 .551758
6 1 .501113 .438605 .987048
7 1 .475326 .476722 .011793
ITEM: TIMESTEP
350
ITEM: NUMBER OF ATOMS
7
ITEM: BOX BOUNDS ss ss ss
-2.9901 3.3051
-2.6592 3.3690
-2.0500 1.9564
ITEM: ATOMS id type xs ys zs
1 1 .529630 .992225 .551599
2 1 .988742 .589505 .472239
3 1 .776965 .007220 .445136
4 1 .172432 .033743 .485051
5 1 .010100 .656253 .552772
6 1 .499225 .438552 .989172
7 1 .472909 .475480 .013264
ITEM: TIMESTEP
400
ITEM: NUMBER OF ATOMS
7
ITEM: BOX BOUNDS ss ss ss
-2.9831 3.2969
-2.6597 3.3701
-2.0487 1.9601
ITEM: ATOMS id type xs ys zs
1 1 .529843 .992578 .550800
2 1 .989972 .589611 .471414
3 1 .777382 .006991 .444683
4 1 .171791 .033108 .484716
5 1 .009341 .656272 .551490
6 1 .499461 .438290 .988380
7 1 .472751 .475346 .013611
ITEM: TIMESTEP
1
ITEM: NUMBER OF ATOMS
7
ITEM: BOX BOUNDS ss ss ss
-2.9595 3.2823
-2.6526 3.3584
-2.0487 1.9394
ITEM: ATOMS id type xs ys zs
1 1 .531510 .994389 .551427
2 1 .993877 .589532 .476167
3 1 .774952 .006768 .442099
4 1 .173405 .036126 .481309
5 1 .000636 .656966 .555783
6 1 .501718 .440685 .994804
7 1 .472487 .475828 .003159
ITEM: TIMESTEP
50
ITEM: NUMBER OF ATOMS
7
ITEM: BOX BOUNDS ss ss ss
-2.9925 3.2823
-2.6526 3.3584
-2.0681 1.9473
ITEM: ATOMS id type xs ys zs
1 1 .534580 .994098 .552698
2 1 .993734 .589178 .477616
3 1 .776413 .006918 .443932
4 1 .178411 .035921 .482717
5 1 .005390 .657251 .557083
6 1 .503947 .441065 .993281
7 1 .474854 .475848 .007141
ITEM: TIMESTEP
100
ITEM: NUMBER OF ATOMS
7
ITEM: BOX BOUNDS ss ss ss
-2.9899 3.2823
-2.6526 3.3584
-2.0761 1.9573
ITEM: ATOMS id type xs ys zs
1 1 .534210 .993471 .551817
2 1 .993499 .588959 .477661
3 1 .776964 .006791 .443513
4 1 .177483 .036048 .483159
5 1 .006172 .656540 .556661
6 1 .502980 .441353 .991099
7 1 .474235 .476927 .009438
ITEM: TIMESTEP
150
ITEM: NUMBER OF ATOMS
7
ITEM: BOX BOUNDS ss ss ss
-2.9938 3.2860
-2.6526 3.3595
-2.0758 1.9697
ITEM: ATOMS id type xs ys zs
1 1 .534472 .992859 .548443
2 1 .992882 .588733 .475656
3 1 .777219 .006944 .442713
4 1 .176879 .036285 .482653
5 1 .007808 .655700 .554148
6 1 .502878 .441400 .987714
7 1 .474620 .477085 .009642
ITEM: TIMESTEP
200
ITEM: NUMBER OF ATOMS
7
ITEM: BOX BOUNDS ss ss ss
-2.9904 3.2878
-2.6550 3.3635
-2.0894 1.9680
ITEM: ATOMS id type xs ys zs
1 1 .533453 .992346 .550279
2 1 .992605 .588447 .477167
3 1 .777040 .007493 .444951
4 1 .176113 .037014 .485214
5 1 .008615 .655047 .555612
6 1 .502126 .441387 .987830
7 1 .473736 .477635 .013397
ITEM: TIMESTEP
250
ITEM: NUMBER OF ATOMS
7
ITEM: BOX BOUNDS ss ss ss
-2.9814 3.3011
-2.6526 3.3618
-2.0833 1.9662
ITEM: ATOMS id type xs ys zs
1 1 .531130 .992965 .549679
2 1 .990409 .588246 .476902
3 1 .775595 .006814 .443705
4 1 .174767 .036634 .485476
5 1 .008158 .654261 .556556
6 1 .500471 .440714 .988057
7 1 .471504 .478353 .012555
ITEM: TIMESTEP
300
ITEM: NUMBER OF ATOMS
7
ITEM: BOX BOUNDS ss ss ss
-2.9871 3.2929
-2.6538 3.3653
-2.0798 1.9628
ITEM: ATOMS id type xs ys zs
1 1 .532570 .992382 .549718
2 1 .991752 .587890 .477854
3 1 .776869 .006554 .443095
4 1 .175412 .036895 .486340
5 1 .009838 .653404 .558121
6 1 .502447 .439547 .988795
7 1 .472587 .478502 .012295
ITEM: TIMESTEP
350
ITEM: NUMBER OF ATOMS
7
ITEM: BOX BOUNDS ss ss ss
-2.9945 3.2966
-2.6669 3.3745
-2.0751 1.9672
ITEM: ATOMS id type xs ys zs
1 1 .533172 .990466 .548091
2 1 .991637 .587675 .478306
3 1 .776341 .008244 .440809
4 1 .175609 .038883 .485563
5 1 .011991 .653517 .557716
6 1 .503819 .439175 .987621
7 1 .473581 .478784 .011357
ITEM: TIMESTEP
400
ITEM: NUMBER OF ATOMS
7
ITEM: BOX BOUNDS ss ss ss
-2.9794 3.3032
-2.6656 3.3782
-2.0906 1.9599
ITEM: ATOMS id type xs ys zs
1 1 .531614 .987989 .548262
2 1 .993146 .587125 .483437
3 1 .774434 .008975 .437722
4 1 .171758 .039228 .489011
5 1 .011205 .653975 .559904
6 1 .503770 .437656 .988079
7 1 .472418 .478094 .014684
ITEM: TIMESTEP
1
ITEM: NUMBER OF ATOMS
7
ITEM: BOX BOUNDS ss ss ss
-2.9595 3.2943
-2.6381 3.3568
-2.0622 1.9335
ITEM: ATOMS id type xs ys zs
1 1 .530487 .994634 .553752
2 1 .991969 .588691 .478628
3 1 .773460 .004368 .444627
4 1 .173064 .033802 .483756
5 1 .000622 .656311 .558101
6 1 .500747 .439449 .996289
7 1 .471571 .474683 .006514
ITEM: TIMESTEP
50
ITEM: NUMBER OF ATOMS
7
ITEM: BOX BOUNDS ss ss ss
-2.9867 3.2943
-2.6405 3.3568
-2.0663 1.9509
ITEM: ATOMS id type xs ys zs
1 1 .533134 .994270 .552027
2 1 .991865 .588549 .477108
3 1 .774761 .004950 .443341
4 1 .177305 .034026 .482007
5 1 .004511 .656705 .556414
6 1 .502509 .440045 .992270
7 1 .473419 .474843 .006723
ITEM: TIMESTEP
100
ITEM: NUMBER OF ATOMS
7
ITEM: BOX BOUNDS ss ss ss
-2.9940 3.2943
-2.6439 3.3588
-2.0721 1.9552
ITEM: ATOMS id type xs ys zs
1 1 .534060 .992845 .551806
2 1 .991808 .588152 .476489
3 1 .776329 .005174 .443639
4 1 .178028 .034282 .483380
5 1 .006797 .656488 .556480
6 1 .502320 .440070 .990578
7 1 .473736 .475854 .009073
ITEM: TIMESTEP
150
ITEM: NUMBER OF ATOMS
7
ITEM: BOX BOUNDS ss ss ss
-2.9877 3.2943
-2.6514 3.3568
-2.0761 1.9611
ITEM: ATOMS id type xs ys zs
1 1 .533901 .993349 .550820
2 1 .991499 .588473 .474718
3 1 .776458 .005934 .442915
4 1 .176520 .035131 .484055
5 1 .006703 .656587 .554196
6 1 .501657 .440542 .988143
7 1 .472734 .477437 .010744
ITEM: TIMESTEP
200
ITEM: NUMBER OF ATOMS
7
ITEM: BOX BOUNDS ss ss ss
-2.9918 3.2957
-2.6741 3.3637
-2.0874 1.9569
ITEM: ATOMS id type xs ys zs
1 1 .534090 .992254 .550827
2 1 .990642 .588865 .476604
3 1 .776099 .009674 .443647
4 1 .175899 .038772 .485516
5 1 .008759 .656550 .554483
6 1 .501534 .441442 .989185
7 1 .472013 .479689 .013725
ITEM: TIMESTEP
250
ITEM: NUMBER OF ATOMS
7
ITEM: BOX BOUNDS ss ss ss
-2.9797 3.2943
-2.6581 3.3636
-2.0776 1.9549
ITEM: ATOMS id type xs ys zs
1 1 .533416 .992603 .548833
2 1 .990401 .586935 .476205
3 1 .775442 .006429 .442308
4 1 .173273 .035903 .482183
5 1 .008733 .655296 .553006
6 1 .500544 .439224 .990134
7 1 .471723 .478788 .011749
ITEM: TIMESTEP
300
ITEM: NUMBER OF ATOMS
7
ITEM: BOX BOUNDS ss ss ss
-2.9791 3.2943
-2.6690 3.3719
-2.0871 1.9699
ITEM: ATOMS id type xs ys zs
1 1 .533640 .991089 .546986
2 1 .990683 .586522 .476076
3 1 .775467 .007743 .441768
4 1 .172419 .037640 .480299
5 1 .009156 .655210 .552215
6 1 .500458 .438769 .987156
7 1 .472241 .478966 .015949
ITEM: TIMESTEP
350
ITEM: NUMBER OF ATOMS
7
ITEM: BOX BOUNDS ss ss ss
-2.9900 3.2943
-2.6721 3.3708
-2.0931 1.9674
ITEM: ATOMS id type xs ys zs
1 1 .534745 .990904 .547581
2 1 .991293 .586568 .477406
3 1 .776040 .008059 .442581
4 1 .173229 .038339 .481201
5 1 .010543 .655830 .553749
6 1 .501061 .438495 .987733
7 1 .473508 .479011 .019205
ITEM: TIMESTEP
400
ITEM: NUMBER OF ATOMS
7
ITEM: BOX BOUNDS ss ss ss
-2.9848 3.2943
-2.6940 3.3730
-2.0840 1.9693
ITEM: ATOMS id type xs ys zs
1 1 .534117 .990574 .546051
2 1 .991571 .587650 .476133
3 1 .775809 .011259 .441188
4 1 .172193 .041904 .480470
5 1 .009323 .656896 .553049
6 1 .500437 .440206 .986447
7 1 .473115 .480555 .017377
ITEM: TIMESTEP
1
ITEM: NUMBER OF ATOMS
7
ITEM: BOX BOUNDS ss ss ss
-2.9595 3.2686
-2.6829 3.3479
-2.0469 1.9427
ITEM: ATOMS id type xs ys zs
1 1 .532675 .996151 .550753
2 1 .996060 .592617 .475522
3 1 .776647 .011767 .441470
4 1 .173781 .041030 .480659
5 1 .000622 .659837 .555109
6 1 .502812 .444265 .993969
7 1 .473516 .479289 .002689
ITEM: TIMESTEP
50
ITEM: NUMBER OF ATOMS
7
ITEM: BOX BOUNDS ss ss ss
-2.9887 3.2706
-2.6829 3.3552
-2.0698 1.9471
ITEM: ATOMS id type xs ys zs
1 1 .535310 .994637 .552979
2 1 .995592 .591550 .477992
3 1 .777689 .011863 .444189
4 1 .178391 .040777 .483003
5 1 .004772 .659334 .557346
6 1 .504575 .444222 .993366
7 1 .475463 .478690 .007570
ITEM: TIMESTEP
100
ITEM: NUMBER OF ATOMS
7
ITEM: BOX BOUNDS ss ss ss
-2.9883 3.2804
-2.6829 3.3633
-2.0785 1.9606
ITEM: ATOMS id type xs ys zs
1 1 .534405 .992811 .550984
2 1 .993502 .590151 .476342
3 1 .777768 .011761 .443665
4 1 .178349 .040740 .483331
5 1 .006370 .658195 .555542
6 1 .503064 .443047 .989681
7 1 .474725 .479551 .010641
ITEM: TIMESTEP
150
ITEM: NUMBER OF ATOMS
7
ITEM: BOX BOUNDS ss ss ss
-2.9839 3.2792
-2.6829 3.3605
-2.0741 1.9682
ITEM: ATOMS id type xs ys zs
1 1 .533109 .993048 .550354
2 1 .993879 .589958 .474332
3 1 .778203 .011670 .444027
4 1 .177045 .041052 .481666
5 1 .006619 .659421 .552811
6 1 .501318 .443271 .987041
7 1 .474521 .480812 .009508
ITEM: TIMESTEP
200
ITEM: NUMBER OF ATOMS
7
ITEM: BOX BOUNDS ss ss ss
-2.9863 3.2773
-2.6829 3.3600
-2.0777 1.9681
ITEM: ATOMS id type xs ys zs
1 1 .532120 .993127 .550883
2 1 .994023 .590011 .473912
3 1 .778854 .010935 .446058
4 1 .176536 .041429 .481616
5 1 .006590 .659905 .552379
6 1 .501248 .443041 .986008
7 1 .474895 .481624 .011201
ITEM: TIMESTEP
250
ITEM: NUMBER OF ATOMS
7
ITEM: BOX BOUNDS ss ss ss
-2.9954 3.2838
-2.6829 3.3584
-2.0718 1.9565
ITEM: ATOMS id type xs ys zs
1 1 .531988 .993450 .551156
2 1 .993093 .590209 .474731
3 1 .778251 .010492 .447884
4 1 .176855 .041581 .481744
5 1 .007876 .659639 .552776
6 1 .501733 .443006 .988295
7 1 .474887 .482135 .011126
ITEM: TIMESTEP
300
ITEM: NUMBER OF ATOMS
7
ITEM: BOX BOUNDS ss ss ss
-2.9970 3.2878
-2.6829 3.3657
-2.0756 1.9507
ITEM: ATOMS id type xs ys zs
1 1 .531930 .992700 .551642
2 1 .992494 .589525 .476343
3 1 .777787 .010254 .449846
4 1 .175957 .041763 .482238
5 1 .008071 .658707 .553366
6 1 .501726 .442334 .988980
7 1 .474519 .481873 .013473
ITEM: TIMESTEP
350
ITEM: NUMBER OF ATOMS
7
ITEM: BOX BOUNDS ss ss ss
-3.0003 3.2869
-2.6829 3.3721
-2.0718 1.9628
ITEM: ATOMS id type xs ys zs
1 1 .532072 .992071 .549950