ITEM: TIMESTEP
1
ITEM: NUMBER OF ATOMS
7
ITEM: BOX BOUNDS ss ss ss
-2.9592 3.2483
-2.6160 3.3284
-2.0405 1.9232
ITEM: ATOMS id type xs ys zs
1 1 .534291 .999350 .552654
2 1 .999336 .590018 .477016
3 1 .779213 .000636 .442737
4 1 .174134 .030394 .482243
5 1 .000775 .658084 .557075
6 1 .504479 .439436 .998752
7 1 .475099 .475103 .001308
ITEM: TIMESTEP
50
ITEM: NUMBER OF ATOMS
7
ITEM: BOX BOUNDS ss ss ss
-2.9825 3.2739
-2.6380 3.3478
-2.0632 1.9450
ITEM: ATOMS id type xs ys zs
1 1 .531159 .993815 .549908
2 1 .997414 .591989 .477199
3 1 .777792 .005994 .441813
4 1 .174563 .035698 .484392
5 1 .006413 .656821 .555981
6 1 .505057 .440354 .991694
7 1 .477466 .476783 .005642
ITEM: TIMESTEP
100
ITEM: NUMBER OF ATOMS
7
ITEM: BOX BOUNDS ss ss ss
-2.9877 3.2823
-2.6433 3.3553
-2.0675 1.9536
ITEM: ATOMS id type xs ys zs
1 1 .531181 .993067 .550163
2 1 .997029 .591442 .476758
3 1 .776841 .005772 .439860
4 1 .173355 .036857 .482288
5 1 .009153 .653857 .552405
6 1 .503723 .438593 .988534
7 1 .477030 .477878 .008031
ITEM: TIMESTEP
150
ITEM: NUMBER OF ATOMS
7
ITEM: BOX BOUNDS ss ss ss
-2.9753 3.2907
-2.6588 3.3580
-2.0646 1.9446
ITEM: ATOMS id type xs ys zs
1 1 .531801 .994339 .552133
2 1 .995629 .591628 .478557
3 1 .775416 .008851 .441062
4 1 .170584 .038869 .483529
5 1 .008817 .654830 .553179
6 1 .503150 .440297 .987823
7 1 .476430 .478253 .011446
ITEM: TIMESTEP
200
ITEM: NUMBER OF ATOMS
7
ITEM: BOX BOUNDS ss ss ss
-2.9714 3.2941
-2.6601 3.3665
-2.0691 1.9476
ITEM: ATOMS id type xs ys zs
1 1 .530319 .994900 .550447
2 1 .994777 .591464 .475759
3 1 .773712 .007556 .441834
4 1 .167141 .040089 .485846
5 1 .008694 .654313 .552844
6 1 .503312 .440714 .985012
7 1 .475126 .477854 .010945
ITEM: TIMESTEP
250
ITEM: NUMBER OF ATOMS
7
ITEM: BOX BOUNDS ss ss ss
-2.9709 3.3065
-2.6663 3.3667
-2.0619 1.9432
ITEM: ATOMS id type xs ys zs
1 1 .527687 .993389 .551121
2 1 .991783 .593059 .478996
3 1 .772861 .007921 .441742
4 1 .165800 .042077 .483491
5 1 .007887 .654865 .550141
6 1 .502100 .440191 .987540
7 1 .476114 .477274 .010396
ITEM: TIMESTEP
300
ITEM: NUMBER OF ATOMS
7
ITEM: BOX BOUNDS ss ss ss
-2.9757 3.3030
-2.6569 3.3743
-2.0700 1.9432
ITEM: ATOMS id type xs ys zs
1 1 .527132 .991931 .551360
2 1 .992222 .592233 .481663
3 1 .772262 .006233 .443788
4 1 .166431 .040866 .485057
5 1 .008623 .653179 .550917
6 1 .502758 .438553 .988890
7 1 .477073 .476380 .015074
ITEM: TIMESTEP
350
ITEM: NUMBER OF ATOMS
7
ITEM: BOX BOUNDS ss ss ss
-2.9724 3.3115
-2.6684 3.3818
-2.0639 1.9454
ITEM: ATOMS id type xs ys zs
1 1 .526538 .990974 .550909
2 1 .991653 .591919 .483470
3 1 .770180 .006899 .443031
4 1 .164540 .042872 .482670
5 1 .008883 .653812 .548408
6 1 .501727 .437461 .989135
7 1 .477561 .476969 .015066
ITEM: TIMESTEP
400
ITEM: NUMBER OF ATOMS
7
ITEM: BOX BOUNDS ss ss ss
-2.9685 3.3096
-2.6655 3.3890
-2.0553 1.9529
ITEM: ATOMS id type xs ys zs
1 1 .525512 .989090 .550304
2 1 .992199 .590466 .477805
3 1 .770087 .006330 .441973
4 1 .163136 .042947 .480776
5 1 .008922 .653395 .546404
6 1 .502182 .437328 .986865
7 1 .477521 .475565 .013275
ITEM: TIMESTEP
1
ITEM: NUMBER OF ATOMS
7
ITEM: BOX BOUNDS ss ss ss
-2.9596 3.2828
-2.6505 3.3646
-2.0402 1.9309
ITEM: ATOMS id type xs ys zs
1 1 .531359 .993347 .551569
2 1 .993808 .588811 .476060
3 1 .774904 .006369 .441824
4 1 .173234 .035773 .481290
5 1 .000829 .656096 .555965
6 1 .501690 .440012 .996805
7 1 .472509 .475249 .001206
ITEM: TIMESTEP
50
ITEM: NUMBER OF ATOMS
7
ITEM: BOX BOUNDS ss ss ss
-2.9816 3.2828
-2.6505 3.3646
-2.0671 1.9447
ITEM: ATOMS id type xs ys zs
1 1 .531300 .993794 .552285
2 1 .993137 .589317 .475579
3 1 .774931 .006739 .440660
4 1 .173938 .035089 .483584
5 1 .004502 .653162 .559340
6 1 .504138 .438614 .990294
7 1 .474854 .474507 .010758
ITEM: TIMESTEP
100
ITEM: NUMBER OF ATOMS
7
ITEM: BOX BOUNDS ss ss ss
-2.9812 3.2828
-2.6505 3.3646
-2.0677 1.9539
ITEM: ATOMS id type xs ys zs
1 1 .532038 .993532 .549751
2 1 .994382 .590284 .474489
3 1 .775706 .005725 .440788
4 1 .172517 .035751 .481876
5 1 .005987 .653634 .560641
6 1 .504326 .439337 .987950
7 1 .474901 .474744 .011677
ITEM: TIMESTEP
150
ITEM: NUMBER OF ATOMS
7
ITEM: BOX BOUNDS ss ss ss
-2.9825 3.2828
-2.6551 3.3646
-2.0703 1.9499
ITEM: ATOMS id type xs ys zs
1 1 .530652 .993459 .552480
2 1 .993605 .591854 .476673
3 1 .775508 .005451 .439847
4 1 .171961 .037435 .486589
5 1 .007489 .652450 .558309
6 1 .504184 .441578 .990740
7 1 .475345 .477287 .016172
ITEM: TIMESTEP
200
ITEM: NUMBER OF ATOMS
7
ITEM: BOX BOUNDS ss ss ss
-2.9800 3.2845
-2.6591 3.3646
-2.0704 1.9491
ITEM: ATOMS id type xs ys zs
1 1 .530375 .993479 .550750
2 1 .993999 .591827 .475773
3 1 .774020 .006462 .442022
4 1 .169438 .036973 .488053
5 1 .006721 .653106 .561634
6 1 .503654 .439742 .990262
7 1 .475474 .478549 .016745
ITEM: TIMESTEP
250
ITEM: NUMBER OF ATOMS
7
ITEM: BOX BOUNDS ss ss ss
-2.9864 3.2831
-2.6705 3.3646
-2.0671 1.9593
ITEM: ATOMS id type xs ys zs
1 1 .529149 .995238 .549951
2 1 .993464 .593246 .471871
3 1 .777006 .009373 .439676
4 1 .171301 .038698 .484227
5 1 .009536 .652684 .551815
6 1 .504660 .441217 .987582
7 1 .476740 .477837 .017763
ITEM: TIMESTEP
300
ITEM: NUMBER OF ATOMS
7
ITEM: BOX BOUNDS ss ss ss
-2.9763 3.2875
-2.6628 3.3672
-2.0579 1.9689
ITEM: ATOMS id type xs ys zs
1 1 .527167 .994343 .545799
2 1 .994161 .592747 .471997
3 1 .775149 .007174 .437801
4 1 .168992 .038507 .481917
5 1 .007683 .651524 .551148
6 1 .504590 .439422 .983820
7 1 .476428 .478955 .015471
ITEM: TIMESTEP
350
ITEM: NUMBER OF ATOMS
7
ITEM: BOX BOUNDS ss ss ss
-2.9913 3.2892
-2.6623 3.3782
-2.0684 1.9591
ITEM: ATOMS id type xs ys zs
1 1 .527472 .992903 .551615
2 1 .993477 .591173 .474620
3 1 .774586 .007288 .439887
4 1 .169399 .037749 .485492
5 1 .011100 .651393 .553300
6 1 .505758 .436818 .985873
7 1 .476414 .478521 .019237
ITEM: TIMESTEP
400
ITEM: NUMBER OF ATOMS
7
ITEM: BOX BOUNDS ss ss ss
-2.9918 3.2959
-2.6614 3.3874
-2.0478 1.9559
ITEM: ATOMS id type xs ys zs
1 1 .527184 .990982 .545798
2 1 .993018 .591855 .470316
3 1 .775021 .007077 .436447
4 1 .168356 .036831 .484146
5 1 .010997 .649973 .548722
6 1 .505279 .436475 .984264
7 1 .476636 .476317 .013412
ITEM: TIMESTEP
1
ITEM: NUMBER OF ATOMS
7
ITEM: BOX BOUNDS ss ss ss
-2.9594 3.2871
-2.6526 3.3617
-2.0396 1.9355
ITEM: ATOMS id type xs ys zs
1 1 .530945 .993815 .550892
2 1 .993136 .589291 .475404
3 1 .774393 .006717 .441239
4 1 .173054 .036103 .480695
5 1 .000828 .656476 .555200
6 1 .501320 .440420 .995639
7 1 .472189 .475651 .001143
ITEM: TIMESTEP
50
ITEM: NUMBER OF ATOMS
7
ITEM: BOX BOUNDS ss ss ss
-2.9812 3.2871
-2.6526 3.3617
-2.0689 1.9449
ITEM: ATOMS id type xs ys zs
1 1 .531183 .993163 .550539
2 1 .993659 .588636 .479204
3 1 .776456 .006534 .444200
4 1 .173553 .035228 .483368
5 1 .006371 .655871 .557237
6 1 .504341 .440852 .992476
7 1 .474699 .474520 .011818
ITEM: TIMESTEP
100
ITEM: NUMBER OF ATOMS
7
ITEM: BOX BOUNDS ss ss ss
-2.9878 3.2871
-2.6526 3.3617
-2.0696 1.9544
ITEM: ATOMS id type xs ys zs
1 1 .529429 .993023 .549088
2 1 .994106 .590336 .480013
3 1 .776433 .006388 .441372
4 1 .173819 .036462 .482488
5 1 .006798 .653769 .550913
6 1 .506401 .440431 .989528
7 1 .475684 .474255 .013238
ITEM: TIMESTEP
150
ITEM: NUMBER OF ATOMS
7
ITEM: BOX BOUNDS ss ss ss
-2.9796 3.2871
-2.6526 3.3617
-2.0646 1.9609
ITEM: ATOMS id type xs ys zs
1 1 .529846 .994125 .546429
2 1 .993606 .589747 .477049
3 1 .774945 .005825 .440293
4 1 .171187 .035168 .482162
5 1 .009010 .654507 .555259
6 1 .505304 .440470 .988608
7 1 .474236 .477646 .012617
ITEM: TIMESTEP
200
ITEM: NUMBER OF ATOMS
7
ITEM: BOX BOUNDS ss ss ss
-2.9762 3.2871
-2.6555 3.3617
-2.0644 1.9558
ITEM: ATOMS id type xs ys zs
1 1 .526731 .995306 .542748
2 1 .994129 .589983 .478857
3 1 .774476 .004570 .441961
4 1 .167600 .037432 .480469
5 1 .007974 .652370 .553639
6 1 .505940 .442505 .983888
7 1 .472985 .475380 .011268
ITEM: TIMESTEP
250
ITEM: NUMBER OF ATOMS
7
ITEM: BOX BOUNDS ss ss ss
-2.9758 3.2927
-2.6579 3.3617
-2.0676 1.9647
ITEM: ATOMS id type xs ys zs
1 1 .527964 .995073 .543979
2 1 .992413 .591710 .477632
3 1 .773138 .007299 .438293
4 1 .169465 .037924 .481422
5 1 .009286 .655251 .552376
6 1 .505324 .440121 .983085
7 1 .474184 .477583 .014631
ITEM: TIMESTEP
300
ITEM: NUMBER OF ATOMS
7
ITEM: BOX BOUNDS ss ss ss
-2.9784 3.2889
-2.6625 3.3625
-2.0588 1.9581
ITEM: ATOMS id type xs ys zs
1 1 .527751 .995292 .544932
2 1 .992619 .591857 .477946
3 1 .774137 .007711 .437060
4 1 .169088 .038458 .479958
5 1 .009260 .655071 .554136
6 1 .504486 .439640 .986737
7 1 .475163 .478695 .013598
ITEM: TIMESTEP
350
ITEM: NUMBER OF ATOMS
7
ITEM: BOX BOUNDS ss ss ss
-2.9882 3.2913
-2.6717 3.3628
-2.0593 1.9595
ITEM: ATOMS id type xs ys zs
1 1 .527180 .994925 .544982
2 1 .992333 .593074 .475500
3 1 .773411 .008815 .437406
4 1 .169145 .040133 .480391
5 1 .011285 .655302 .553439
6 1 .506012 .440488 .984350
7 1 .475831 .479118 .012934
ITEM: TIMESTEP
400
ITEM: NUMBER OF ATOMS
7
ITEM: BOX BOUNDS ss ss ss
-2.9857 3.2972
-2.6606 3.3714
-2.0608 1.9632
ITEM: ATOMS id type xs ys zs
1 1 .526258 .994520 .545595
2 1 .992330 .590601 .477699
3 1 .772102 .006641 .436261
4 1 .168557 .041085 .478702
5 1 .012121 .655107 .554711
6 1 .506116 .438469 .981073
7 1 .477141 .477423 .014931
ITEM: TIMESTEP
1
ITEM: NUMBER OF ATOMS
7
ITEM: BOX BOUNDS ss ss ss
-2.9789 3.2888
-2.6437 3.3727
-2.0444 1.9290
ITEM: ATOMS id type xs ys zs
1 1 .532295 .991970 .552323
2 1 .992902 .587582 .476812
3 1 .774884 .005242 .442669
4 1 .175603 .034643 .482052
5 1 .003904 .654788 .556719
6 1 .502741 .438784 .997270
7 1 .473679 .474009 .002323
ITEM: TIMESTEP
50
ITEM: NUMBER OF ATOMS
7
ITEM: BOX BOUNDS ss ss ss
-2.9824 3.2888
-2.6437 3.3727
-2.0644 1.9434
ITEM: ATOMS id type xs ys zs
1 1 .530996 .992812 .552596
2 1 .993704 .588514 .479114
3 1 .774379 .006697 .443601
4 1 .173888 .037033 .484128
5 1 .004923 .653862 .555534
6 1 .503617 .437184 .992572
7 1 .474989 .475056 .006695
ITEM: TIMESTEP
100
ITEM: NUMBER OF ATOMS
7
ITEM: BOX BOUNDS ss ss ss
-2.9865 3.2888
-2.6502 3.3727
-2.0703 1.9563
ITEM: ATOMS id type xs ys zs
1 1 .530844 .993459 .551492
2 1 .992418 .587760 .476135
3 1 .774298 .006491 .438464
4 1 .174145 .038399 .483916
5 1 .007658 .652112 .553377
6 1 .503564 .438848 .990101
7 1 .475631 .477446 .009525
ITEM: TIMESTEP
150
ITEM: NUMBER OF ATOMS
7
ITEM: BOX BOUNDS ss ss ss
-2.9857 3.2890
-2.6561 3.3727
-2.0689 1.9590
ITEM: ATOMS id type xs ys zs
1 1 .531595 .992151 .551953
2 1 .993592 .588498 .473317
3 1 .774109 .007799 .442322
4 1 .172369 .037431 .481120
5 1 .009236 .653262 .553464
6 1 .503141 .439848 .989860
7 1 .476861 .477415 .011796
ITEM: TIMESTEP
200
ITEM: NUMBER OF ATOMS
7
ITEM: BOX BOUNDS ss ss ss
-2.9789 3.2970
-2.6551 3.3727
-2.0719 1.9555
ITEM: ATOMS id type xs ys zs
1 1 .528266 .993773 .551094
2 1 .991443 .590518 .475507
3 1 .774134 .007790 .442306
4 1 .169652 .036241 .485004
5 1 .007090 .649693 .553424
6 1 .502101 .439378 .988646
7 1 .474840 .477724 .011535
ITEM: TIMESTEP
250
ITEM: NUMBER OF ATOMS
7
ITEM: BOX BOUNDS ss ss ss
-2.9789 3.3020
-2.6593 3.3727
-2.0787 1.9608
ITEM: ATOMS id type xs ys zs
1 1 .527191 .992272 .549321
2 1 .990842 .590336 .475003
3 1 .773550 .007052 .444375
4 1 .168574 .038232 .484795
5 1 .006907 .649330 .551915
6 1 .502280 .440435 .988000
7 1 .474105 .477839 .017106
ITEM: TIMESTEP
300
ITEM: NUMBER OF ATOMS
7
ITEM: BOX BOUNDS ss ss ss
-2.9789 3.2920
-2.6576 3.3727
-2.0690 1.9635
ITEM: ATOMS id type xs ys zs
1 1 .528298 .993012 .546910
2 1 .993192 .589810 .474274
3 1 .774085 .007406 .442613
4 1 .169165 .039398 .480497
5 1 .008868 .650510 .551737
6 1 .504548 .438028 .987916
7 1 .477045 .478360 .014420
ITEM: TIMESTEP
350
ITEM: NUMBER OF ATOMS
7
ITEM: BOX BOUNDS ss ss ss
-2.9789 3.2888
-2.6550 3.3729
-2.0634 1.9645
ITEM: ATOMS id type xs ys zs
1 1 .527884 .992117 .545440
2 1 .993798 .591194 .472418
3 1 .775074 .005505 .442006
4 1 .168216 .037650 .480982
5 1 .008430 .647853 .550870
6 1 .505530 .437508 .984960
7 1 .476659 .476963 .015251
ITEM: TIMESTEP
400
ITEM: NUMBER OF ATOMS
7
ITEM: BOX BOUNDS ss ss ss
-2.9789 3.2903
-2.6553 3.3820
-2.0641 1.9588
ITEM: ATOMS id type xs ys zs
1 1 .527213 .991174 .545929
2 1 .995159 .590424 .473435
3 1 .772858 .005824 .441970
4 1 .167150 .038240 .483399
5 1 .009656 .648723 .550299
6 1 .504824 .436758 .984144
7 1 .478807 .477560 .014056
ITEM: TIMESTEP
1
ITEM: NUMBER OF ATOMS
7
ITEM: BOX BOUNDS ss ss ss
-2.9789 3.2888
-2.6437 3.3727
-2.0461 1.9375
ITEM: ATOMS id type xs ys zs
1 1 .532267 .991977 .551328
2 1 .992893 .587566 .476044
3 1 .774895 .005250 .441938
4 1 .175623 .034654 .481248
5 1 .003896 .654822 .555731
6 1 .502756 .438780 .995151
7 1 .473673 .474023 .002685
ITEM: TIMESTEP
50
ITEM: NUMBER OF ATOMS
7
ITEM: BOX BOUNDS ss ss ss
-2.9866 3.2888
-2.6437 3.3727
-2.0656 1.9463
ITEM: ATOMS id type xs ys zs
1 1 .533209 .992752 .550701
2 1 .994087 .588199 .476262
3 1 .775492 .004752 .443690
4 1 .174555 .033893 .482435
5 1 .007302 .654130 .556920
6 1 .502991 .437550 .992306
7 1 .473995 .475488 .007424
ITEM: TIMESTEP
100
ITEM: NUMBER OF ATOMS
7
ITEM: BOX BOUNDS ss ss ss
-2.9856 3.2888
-2.6437 3.3727
-2.0745 1.9542
ITEM: ATOMS id type xs ys zs
1 1 .532017 .991851 .550630
2 1 .993421 .588420 .478082
3 1 .777065 .007144 .447699
4 1 .172520 .035603 .484596
5 1 .007723 .651770 .550719
6 1 .502584 .439586 .989024
7 1 .475184 .475767 .013014
ITEM: TIMESTEP
150
ITEM: NUMBER OF ATOMS
7
ITEM: BOX BOUNDS ss ss ss
-2.9789 3.2888
-2.6437 3.3727
-2.0584 1.9465
ITEM: ATOMS id type xs ys zs
1 1 .529521 .992957 .549545
2 1 .993359 .589688 .476056
3 1 .776224 .006834 .445489
4 1 .171511 .036244 .483822
5 1 .006898 .652417 .549106
6 1 .501743 .439243 .989637
7 1 .475085 .476705 .009831
ITEM: TIMESTEP
200
ITEM: NUMBER OF ATOMS
7
ITEM: BOX BOUNDS ss ss ss
-2.9819 3.2888
-2.6437 3.3727
-2.0632 1.9491
ITEM: ATOMS id type xs ys zs
1 1 .529233 .993809 .545449
2 1 .995260 .590118 .475581
3 1 .774245 .007394 .440368
4 1 .170488 .034594 .483771
5 1 .008795 .651187 .549419
6 1 .502736 .441394 .988024
7 1 .476709 .476888 .012936
ITEM: TIMESTEP
250
ITEM: NUMBER OF ATOMS
7
ITEM: BOX BOUNDS ss ss ss
-2.9841 3.2956
-2.6458 3.3727
-2.0577 1.9546
ITEM: ATOMS id type xs ys zs
1 1 .527033 .993677 .543053
2 1 .994306 .591469 .475567
3 1 .772967 .006736 .440165
4 1 .169555 .034486 .484405
5 1 .010708 .652729 .546486
6 1 .505157 .441153 .987965
7 1 .475789 .475691 .011058
ITEM: TIMESTEP
300
ITEM: NUMBER OF ATOMS
7
ITEM: BOX BOUNDS ss ss ss
-2.9818 3.2992
-2.6466 3.3727
-2.0588 1.9519
ITEM: ATOMS id type xs ys zs
1 1 .528059 .994989 .544328
2 1 .993862 .591340 .474669
3 1 .772651 .006983 .444146
4 1 .170608 .036432 .487204
5 1 .010112 .651876 .549278
6 1 .504358 .440375 .986824
7 1 .475501 .477683 .013993
ITEM: TIMESTEP
350
ITEM: NUMBER OF ATOMS
7
ITEM: BOX BOUNDS ss ss ss
-2.9789 3.3028
-2.6514 3.3786
-2.0611 1.9517
ITEM: ATOMS id type xs ys zs
1 1 .526777 .991550 .547908
2 1 .991753 .592630 .474763
3 1 .773149 .006383 .441410
4 1 .169205 .035395 .484086
5 1 .010246 .649871 .549859
6 1 .503851 .438042 .986240
7 1 .475619 .474927 .013373
ITEM: TIMESTEP
400
ITEM: NUMBER OF ATOMS
7
ITEM: BOX BOUNDS ss ss ss
-2.9789 3.3069
-2.6520 3.3769
-2.0653 1.9509
ITEM: ATOMS id type xs ys zs
1 1 .525313 .993783 .544797
2 1 .992743 .591968 .475167
3 1 .771914 .006199 .445212
4 1 .167423 .034688 .485507
5 1 .009932 .648139 .550712
6 1 .503260 .438954 .984611
7 1 .474925 .474411 .014986
ITEM: TIMESTEP
1
ITEM: NUMBER OF ATOMS
7
ITEM: BOX BOUNDS ss ss ss
-2.9595 3.2823
-2.6341 3.3572
-2.0487 1.9256
ITEM: ATOMS id type xs ys zs
1 1 .531414 .994551 .553272
2 1 .993917 .588440 .477760
3 1 .774990 .003655 .443636
4 1 .173210 .033194 .483029
5 1 .000820 .655983 .557667
6 1 .501727 .439018 .998124
7 1 .472539 .474404 .003377
ITEM: TIMESTEP
50
ITEM: NUMBER OF ATOMS
7
ITEM: BOX BOUNDS ss ss ss
-2.9867 3.2823
-2.6411 3.3572
-2.0656 1.9485
ITEM: ATOMS id type xs ys zs
1 1 .533082 .993555 .551227
2 1 .995004 .589812 .475193
3 1 .776570 .002055 .443697
4 1 .176467 .034215 .481274
5 1 .006502 .657226 .555763
6 1 .503070 .439231 .991588
7 1 .474768 .476398 .012817
ITEM: TIMESTEP
100
ITEM: NUMBER OF ATOMS
7
ITEM: BOX BOUNDS ss ss ss
-2.9887 3.2823
-2.6567 3.3572
-2.0732 1.9538
ITEM: ATOMS id type xs ys zs
1 1 .531720 .996457 .549373
2 1 .994401 .590546 .475949
3 1 .776082 .009935 .444515
4 1 .174906 .036365 .483931
5 1 .008845 .654696 .556749
6 1 .500782 .441365 .991097
7 1 .474082 .477832 .012734
ITEM: TIMESTEP
150
ITEM: NUMBER OF ATOMS
7
ITEM: BOX BOUNDS ss ss ss
-2.9895 3.2902
-2.6558 3.3591
-2.0708 1.9564
ITEM: ATOMS id type xs ys zs
1 1 .529770 .995095 .546796
2 1 .993483 .592656 .473303
3 1 .774787 .008920 .446754
4 1 .174346 .036710 .481796
5 1 .009916 .655713 .551973
6 1 .500708 .441141 .988041
7 1 .473842 .477221 .012305
ITEM: TIMESTEP
200
ITEM: NUMBER OF ATOMS
7
ITEM: BOX BOUNDS ss ss ss
-2.9864 3.2882
-2.6554 3.3730
-2.0740 1.9616
ITEM: ATOMS id type xs ys zs
1 1 .529976 .993176 .547178
2 1 .995644 .590151 .475641
3 1 .776384 .009963 .446106
4 1 .173218 .038654 .481572
5 1 .010071 .655247 .556271
6 1 .501564 .439667 .987339
7 1 .475007 .477876 .012921
ITEM: TIMESTEP
250
ITEM: NUMBER OF ATOMS
7
ITEM: BOX BOUNDS ss ss ss
-2.9812 3.2897
-2.6530 3.3788
-2.0636 1.9665
ITEM: ATOMS id type xs ys zs
1 1 .530908 .992507 .551801
2 1 .992273 .589500 .469485
3 1 .776787 .007917 .442809
4 1 .171697 .036467 .484197
5 1 .008509 .653934 .549464
6 1 .502686 .439649 .985117
7 1 .474391 .475667 .012329
ITEM: TIMESTEP
300
ITEM: NUMBER OF ATOMS
7
ITEM: BOX BOUNDS ss ss ss
-2.9800 3.2898
-2.6585 3.3857
-2.0637 1.9598
ITEM: ATOMS id type xs ys zs
1 1 .529793 .991019 .552252
2 1 .993331 .589595 .469918
3 1 .776944 .008924 .443494
4 1 .171246 .037630 .484872
5 1 .008650 .652202 .551308
6 1 .503384 .439968 .986329
7 1 .474432 .475699 .013587
ITEM: TIMESTEP
350
ITEM: NUMBER OF ATOMS
7
ITEM: BOX BOUNDS ss ss ss
-2.9775 3.2909
-2.6545 3.3809
-2.0654 1.9591
ITEM: ATOMS id type xs ys zs
1 1 .529895 .992293 .551937
2 1 .992396 .590381 .473919
3 1 .775238 .007080 .444515
4 1 .169683 .038995 .488076
5 1 .007143 .652587 .554489
6 1 .503458 .440171 .987575
7 1 .473753 .476841 .014619
ITEM: TIMESTEP
400
ITEM: NUMBER OF ATOMS
7
ITEM: BOX BOUNDS ss ss ss
-2.9759 3.2971
-2.6494 3.3797
-2.0632 1.9636
ITEM: ATOMS id type xs ys zs
1 1 .528275 .993581 .551632
2 1 .992706 .589184 .472493
3 1 .775784 .006168 .443017
4 1 .166949 .038969 .486581
5 1 .008181 .652625 .551645
6 1 .502374 .440169 .985011
7 1 .475995 .475918 .017795
ITEM: TIMESTEP
1
ITEM: NUMBER OF ATOMS
7
ITEM: BOX BOUNDS ss ss ss
-2.9594 3.2863
-2.6341 3.3690
-2.0487 1.9420
ITEM: ATOMS id type xs ys zs
1 1 .531033 .992581 .551049
2 1 .993253 .587295 .475870
3 1 .774481 .003626 .441781
4 1 .173090 .033146 .481093
5 1 .000827 .654657 .555393
6 1 .501401 .438172 .994033
7 1 .472225 .473461 .003409
ITEM: TIMESTEP
50
ITEM: NUMBER OF ATOMS
7
ITEM: BOX BOUNDS ss ss ss
-2.9845 3.2863
-2.6375 3.3690
-2.0674 1.9481
ITEM: ATOMS id type xs ys zs
1 1 .531331 .992183 .555999
2 1 .993815 .587461 .475801
3 1 .776116 .004650 .444163
4 1 .173966 .033750 .483394
5 1 .005911 .654906 .555210
6 1 .501048 .438821 .993809
7 1 .474143 .474292 .011509
ITEM: TIMESTEP
100
ITEM: NUMBER OF ATOMS
7
ITEM: BOX BOUNDS ss ss ss
-2.9913 3.2863
-2.6567 3.3690
-2.0795 1.9538
ITEM: ATOMS id type xs ys zs
1 1 .530839 .992155 .558386
2 1 .993954 .588793 .476592
3 1 .778378 .007930 .446940
4 1 .174154 .036237 .484462
5 1 .006949 .655497 .555145
6 1 .500495 .439107 .991510
7 1 .474251 .476608 .016626
ITEM: TIMESTEP
150
ITEM: NUMBER OF ATOMS
7
ITEM: BOX BOUNDS ss ss ss
-2.9867 3.2863
-2.6583 3.3690
-2.0764 1.9595
ITEM: ATOMS id type xs ys zs
1 1 .529630 .994273 .557259
2 1 .992875 .588655 .479464
3 1 .776777 .007838 .443803
4 1 .172999 .036684 .484228
5 1 .006004 .656222 .552767
6 1 .500618 .439811 .988357
7 1 .472627 .477940 .016387
ITEM: TIMESTEP
200
ITEM: NUMBER OF ATOMS
7
ITEM: BOX BOUNDS ss ss ss
-2.9953 3.2911
-2.6526 3.3690
-2.0662 1.9581
ITEM: ATOMS id type xs ys zs
1 1 .530938 .990199 .554780
2 1 .993761 .589246 .475773
3 1 .778458 .007257 .444256
4 1 .173793 .036830 .484709
5 1 .007145 .653952 .555948
6 1 .502175 .438025 .987892
7 1 .475991 .476708 .014164
ITEM: TIMESTEP
250
ITEM: NUMBER OF ATOMS
7
ITEM: BOX BOUNDS ss ss ss
-3.0045 3.2863
-2.6516 3.3690
-2.0646 1.9667
ITEM: ATOMS id type xs ys zs
1 1 .531122 .992272 .551418
2 1 .991575 .588995 .474590
3 1 .779601 .005635 .446019
4 1 .172894 .032477 .486884
5 1 .012629 .655540 .552667
6 1 .503243 .438446 .984797
7 1 .475806 .474574 .018258
ITEM: TIMESTEP
300
ITEM: NUMBER OF ATOMS
7
ITEM: BOX BOUNDS ss ss ss
-3.0034 3.2901
-2.6581 3.3690
-2.0494 1.9649
ITEM: ATOMS id type xs ys zs
1 1 .532042 .992043 .548281
2 1 .990457 .590854 .474413
3 1 .778718 .006007 .444693
4 1 .170599 .033805 .485636
5 1 .013979 .654178 .551561
6 1 .503879 .439618 .984755
7 1 .475767 .474283 .013813
ITEM: TIMESTEP
350
ITEM: NUMBER OF ATOMS
7
ITEM: BOX BOUNDS ss ss ss
-2.9901 3.3051
-2.6592 3.3690
-2.0500 1.9564
ITEM: ATOMS id type xs ys zs
1 1 .527888 .991228 .550436
2 1 .988687 .590510 .475047
3 1 .775640 .004803 .445016
4 1 .169930 .035161 .487605
5 1 .010124 .656407 .552538
6 1 .502454 .437265 .990359
7 1 .472874 .476438 .013750
ITEM: TIMESTEP
400
ITEM: NUMBER OF ATOMS
7
ITEM: BOX BOUNDS ss ss ss
-2.9831 3.2969
-2.6597 3.3701
-2.0487 1.9601
ITEM: ATOMS id type xs ys zs
1 1 .527272 .993153 .550483
2 1 .991056 .591501 .472715
3 1 .776191 .007224 .445653
4 1 .169508 .033113 .484088
5 1 .009905 .654368 .553762
6 1 .500108 .437739 .986979
7 1 .474347 .476003 .015016
ITEM: TIMESTEP
1
ITEM: NUMBER OF ATOMS
7
ITEM: BOX BOUNDS ss ss ss
-2.9595 3.2823
-2.6526 3.3584
-2.0487 1.9394
ITEM: ATOMS id type xs ys zs
1 1 .531388 .994368 .551354
2 1 .993903 .589574 .476163
3 1 .774987 .006724 .442095
4 1 .173222 .036174 .481365
5 1 .000816 .656888 .555732
6 1 .501734 .440665 .994659
7 1 .472563 .475937 .003374
ITEM: TIMESTEP
50
ITEM: NUMBER OF ATOMS
7
ITEM: BOX BOUNDS ss ss ss
-2.9925 3.2823
-2.6526 3.3584
-2.0681 1.9473
ITEM: ATOMS id type xs ys zs
1 1 .532328 .993629 .553545
2 1 .993809 .590626 .478755
3 1 .776722 .006966 .442311
4 1 .175265 .037018 .484216
5 1 .008258 .655272 .557706
6 1 .503670 .442515 .994032
7 1 .474972 .476627 .007688
ITEM: TIMESTEP
100
ITEM: NUMBER OF ATOMS
7
ITEM: BOX BOUNDS ss ss ss
-2.9899 3.2823
-2.6526 3.3584
-2.0761 1.9573
ITEM: ATOMS id type xs ys zs
1 1 .535717 .993245 .550205
2 1 .994114 .589030 .481307
3 1 .777005 .007047 .443375
4 1 .174184 .038105 .484912
5 1 .009075 .653405 .557318
6 1 .505138 .440755 .987809
7 1 .476458 .476843 .011567
ITEM: TIMESTEP
150
ITEM: NUMBER OF ATOMS
7
ITEM: BOX BOUNDS ss ss ss
-2.9938 3.2860
-2.6526 3.3595
-2.0758 1.9697
ITEM: ATOMS id type xs ys zs
1 1 .534331 .993628 .546164
2 1 .993054 .588882 .474612
3 1 .776159 .006689 .443061
4 1 .174838 .036679 .483304
5 1 .010261 .654388 .551417
6 1 .504349 .440418 .987346
7 1 .476272 .476694 .012280
ITEM: TIMESTEP
200
ITEM: NUMBER OF ATOMS
7
ITEM: BOX BOUNDS ss ss ss
-2.9904 3.2878
-2.6550 3.3635
-2.0894 1.9680
ITEM: ATOMS id type xs ys zs
1 1 .535622 .991540 .550307
2 1 .996024 .588094 .482104
3 1 .774813 .005059 .444055
4 1 .173392 .040503 .488205
5 1 .010488 .653261 .557635
6 1 .504990 .438107 .985018
7 1 .474104 .479495 .016691
ITEM: TIMESTEP
250
ITEM: NUMBER OF ATOMS
7
ITEM: BOX BOUNDS ss ss ss
-2.9814 3.3011
-2.6526 3.3618
-2.0833 1.9662
ITEM: ATOMS id type xs ys zs
1 1 .527027 .993858 .550911
2 1 .990623 .589430 .477310
3 1 .774795 .006549 .446339
4 1 .173001 .037349 .486989
5 1 .008765 .652898 .561407
6 1 .502362 .439568 .987539
7 1 .472934 .476769 .012336
ITEM: TIMESTEP
300
ITEM: NUMBER OF ATOMS
7
ITEM: BOX BOUNDS ss ss ss
-2.9871 3.2929
-2.6538 3.3653
-2.0798 1.9628
ITEM: ATOMS id type xs ys zs
1 1 .533315 .990970 .550524
2 1 .994359 .589328 .479581
3 1 .775348 .005129 .441261
4 1 .172593 .040370 .488154
5 1 .010920 .654286 .554814
6 1 .504360 .438208 .987344
7 1 .474840 .478063 .014140
ITEM: TIMESTEP
350
ITEM: NUMBER OF ATOMS
7
ITEM: BOX BOUNDS ss ss ss
-2.9945 3.2966
-2.6669 3.3745
-2.0751 1.9672
ITEM: ATOMS id type xs ys zs
1 1 .532622 .988069 .545108
2 1 .995866 .588403 .481401
3 1 .776354 .008832 .433306
4 1 .172037 .040485 .485517
5 1 .015199 .654171 .556751
6 1 .507438 .436681 .983805
7 1 .475425 .478899 .011265
ITEM: TIMESTEP
400
ITEM: NUMBER OF ATOMS
7
ITEM: BOX BOUNDS ss ss ss
-2.9794 3.3032
-2.6656 3.3782
-2.0906 1.9599
ITEM: ATOMS id type xs ys zs
1 1 .530389 .991203 .549698
2 1 .995177 .589872 .484095
3 1 .774828 .008388 .432142
4 1 .168573 .042603 .488622
5 1 .012586 .654864 .561691
6 1 .505660 .436696 .985470
7 1 .473233 .478511 .018254
ITEM: TIMESTEP
1
ITEM: NUMBER OF ATOMS
7
ITEM: BOX BOUNDS ss ss ss
-2.9595 3.2943
-2.6381 3.3568
-2.0622 1.9335
ITEM: ATOMS id type xs ys zs
1 1 .530382 .994618 .553685
2 1 .991979 .588725 .478619
3 1 .773483 .004317 .444604
4 1 .172887 .033837 .483807
5 1 .000812 .656239 .558041
6 1 .500747 .439422 .996159
7 1 .471612 .474785 .006736
ITEM: TIMESTEP
50
ITEM: NUMBER OF ATOMS
7
ITEM: BOX BOUNDS ss ss ss
-2.9867 3.2943
-2.6405 3.3568
-2.0663 1.9509
ITEM: ATOMS id type xs ys zs
1 1 .532051 .994320 .554438
2 1 .991974 .587687 .477656
3 1 .774934 .002207 .441461
4 1 .175609 .034884 .483475
5 1 .006089 .653870 .554933
6 1 .501763 .439989 .990476
7 1 .474699 .476589 .008416
ITEM: TIMESTEP
100
ITEM: NUMBER OF ATOMS
7
ITEM: BOX BOUNDS ss ss ss
-2.9940 3.2943
-2.6439 3.3588
-2.0721 1.9552
ITEM: ATOMS id type xs ys zs
1 1 .532081 .994411 .546616
2 1 .990954 .588788 .478215
3 1 .775284 .003672 .438563
4 1 .174150 .033973 .482123
5 1 .008329 .655228 .551808
6 1 .504085 .437973 .989649
7 1 .473171 .475421 .010351
ITEM: TIMESTEP
150
ITEM: NUMBER OF ATOMS
7
ITEM: BOX BOUNDS ss ss ss
-2.9877 3.2943
-2.6514 3.3568
-2.0761 1.9611
ITEM: ATOMS id type xs ys zs
1 1 .533929 .993085 .545565
2 1 .990939 .587493 .476437
3 1 .775888 .005637 .440199
4 1 .172499 .035241 .482154
5 1 .009846 .655712 .552806
6 1 .501978 .437744 .988929
7 1 .472698 .477259 .012649
ITEM: TIMESTEP
200
ITEM: NUMBER OF ATOMS
7
ITEM: BOX BOUNDS ss ss ss
-2.9918 3.2957
-2.6741 3.3637
-2.0874 1.9569
ITEM: ATOMS id type xs ys zs
1 1 .534788 .992606 .548733
2 1 .991061 .588169 .478676
3 1 .775153 .007529 .441656
4 1 .172139 .039022 .481680
5 1 .010331 .656209 .554209
6 1 .502504 .438622 .990079
7 1 .475196 .479377 .017954
ITEM: TIMESTEP
250
ITEM: NUMBER OF ATOMS
7
ITEM: BOX BOUNDS ss ss ss
-2.9797 3.2943
-2.6581 3.3636
-2.0776 1.9549
ITEM: ATOMS id type xs ys zs
1 1 .532388 .992490 .549296
2 1 .990673 .588390 .477044
3 1 .775087 .004522 .441792
4 1 .169800 .036230 .478838
5 1 .007957 .655880 .554317
6 1 .501566 .437953 .989932
7 1 .474638 .478182 .015708
ITEM: TIMESTEP
300
ITEM: NUMBER OF ATOMS
7
ITEM: BOX BOUNDS ss ss ss
-2.9791 3.2943
-2.6690 3.3719
-2.0871 1.9699
ITEM: ATOMS id type xs ys zs
1 1 .528963 .992986 .547557
2 1 .993395 .589178 .479720
3 1 .770015 .008159 .439245
4 1 .170979 .038604 .480912
5 1 .012304 .655610 .553927
6 1 .502218 .438642 .982355
7 1 .475398 .479486 .008234
ITEM: TIMESTEP
350
ITEM: NUMBER OF ATOMS
7
ITEM: BOX BOUNDS ss ss ss
-2.9900 3.2943
-2.6721 3.3708
-2.0931 1.9674
ITEM: ATOMS id type xs ys zs
1 1 .532637 .991458 .548019
2 1 .992120 .586779 .477379
3 1 .774664 .006076 .441401
4 1 .170523 .040591 .482604
5 1 .009115 .653970 .554336
6 1 .502497 .439011 .986014
7 1 .473461 .478313 .019846
ITEM: TIMESTEP
400
ITEM: NUMBER OF ATOMS
7
ITEM: BOX BOUNDS ss ss ss
-2.9848 3.2943
-2.6940 3.3730
-2.0840 1.9693
ITEM: ATOMS id type xs ys zs
1 1 .531381 .991003 .543957
2 1 .993151 .591415 .470200
3 1 .775389 .011487 .445072
4 1 .170217 .041259 .480193
5 1 .010635 .653136 .551425
6 1 .502063 .439400 .979260
7 1 .472733 .479964 .021871
ITEM: TIMESTEP
1
ITEM: NUMBER OF ATOMS
7
ITEM: BOX BOUNDS ss ss ss
-2.9595 3.2686
-2.6829 3.3479
-2.0469 1.9427
ITEM: ATOMS id type xs ys zs
1 1 .532532 .996081 .550658
2 1 .996107 .592648 .475563
3 1 .776716 .011749 .441473
4 1 .173621 .041073 .480698
5 1 .000834 .659734 .555045
6 1 .502849 .444210 .993850
7 1 .473609 .479406 .002947
ITEM: TIMESTEP
50
ITEM: NUMBER OF ATOMS
7
ITEM: BOX BOUNDS ss ss ss
-2.9887 3.2706
-2.6829 3.3552
-2.0698 1.9471
ITEM: ATOMS id type xs ys zs
1 1 .534045 .994711 .550756
2 1 .995216 .591742 .477163
3 1 .777728 .012776 .445566
4 1 .176879 .041785 .482385
5 1 .006715 .658274 .555161
6 1 .505299 .443396 .990235
7 1 .477078 .479698 .009267
ITEM: TIMESTEP
100
ITEM: NUMBER OF ATOMS
7
ITEM: BOX BOUNDS ss ss ss
-2.9883 3.2804
-2.6829 3.3633
-2.0785 1.9606
ITEM: ATOMS id type xs ys zs
1 1 .532659 .994044 .554146
2 1 .994634 .591444 .479329
3 1 .775940 .011296 .446463
4 1 .174892 .042435 .482923
5 1 .006575 .658931 .550945
6 1 .502714 .440228 .988493
7 1 .477274 .480024 .012445
ITEM: TIMESTEP
150
ITEM: NUMBER OF ATOMS
7
ITEM: BOX BOUNDS ss ss ss
-2.9839 3.2792
-2.6829 3.3605
-2.0741 1.9682
ITEM: ATOMS id type xs ys zs
1 1 .528605 .994316 .550065
2 1 .993788 .590029 .473605
3 1 .776110 .010805 .444890
4 1 .174371 .042571 .481278
5 1 .005796 .659301 .547623
6 1 .502892 .442661 .986056
7 1 .474828 .481329 .011753
ITEM: TIMESTEP
200
ITEM: NUMBER OF ATOMS
7
ITEM: BOX BOUNDS ss ss ss
-2.9863 3.2773
-2.6829 3.3600
-2.0777 1.9681
ITEM: ATOMS id type xs ys zs
1 1 .530391 .995976 .547683
2 1 .992436 .591205 .472214
3 1 .778598 .010491 .448155
4 1 .170320 .043275 .482192
5 1 .005259 .661422 .550302
6 1 .504278 .443494 .981893
7 1 .475587 .482376 .016054
ITEM: TIMESTEP
250
ITEM: NUMBER OF ATOMS
7
ITEM: BOX BOUNDS ss ss ss
-2.9954 3.2838
-2.6829 3.3584
-2.0718 1.9565
ITEM: ATOMS id type xs ys zs
1 1 .530903 .995168 .550333
2 1 .992437 .591123 .474549
3 1 .777363 .011115 .449204
4 1 .172198 .043505 .482196
5 1 .008524 .662024 .551010
6 1 .503777 .442274 .985139
7 1 .477183 .482611 .013581
ITEM: TIMESTEP
300
ITEM: NUMBER OF ATOMS
7
ITEM: BOX BOUNDS ss ss ss
-2.9970 3.2878
-2.6829 3.3657
-2.0756 1.9507
ITEM: ATOMS id type xs ys zs
1 1 .529643 .992388 .551881
2 1 .993041 .590728 .474827
3 1 .774416 .010040 .450179
4 1 .172811 .042778 .480730
5 1 .010624 .655578 .553442
6 1 .504241 .442038 .987796
7 1 .474498 .482158 .014093
ITEM: TIMESTEP
350
ITEM: NUMBER OF ATOMS
7
ITEM: BOX BOUNDS ss ss ss
-3.0003 3.2869
-2.6829 3.3721
-2.0718 1.9628
ITEM: ATOMS id type xs ys zs
1 1 .528553 .994302 .550482