ITEM: TIMESTEP
1
ITEM: NUMBER OF ATOMS
7
ITEM: BOX BOUNDS ss ss ss
-2.9136 3.2550
-2.8247 3.1505
-2.0281 1.8430
ITEM: ATOMS id type xs ys zs
1 1 .542236 .999058 .512698
2 1 .999479 .583651 .501085
3 1 .771894 .000495 .499711
4 1 .147184 .047580 .511850
5 1 .000579 .682057 .512579
6 1 .483591 .455192 .998939
7 1 .482248 .466682 .001085
ITEM: TIMESTEP
50
ITEM: NUMBER OF ATOMS
7
ITEM: BOX BOUNDS ss ss ss
-2.9377 3.2813
-2.8556 3.1757
-2.0553 1.8660
ITEM: ATOMS id type xs ys zs
1 1 .540319 .995105 .513786
2 1 .995640 .584223 .500393
3 1 .770697 .005738 .502893
4 1 .149613 .051190 .511909
5 1 .003813 .680881 .514516
6 1 .483369 .457033 .997412
7 1 .483201 .465683 .005711
ITEM: TIMESTEP
100
ITEM: NUMBER OF ATOMS
7
ITEM: BOX BOUNDS ss ss ss
-2.9452 3.2997
-2.8624 3.1851
-2.0637 1.8818
ITEM: ATOMS id type xs ys zs
1 1 .540773 .993086 .509389
2 1 .995671 .583247 .503957
3 1 .766864 .005348 .500502
4 1 .150206 .049623 .511668
5 1 .003605 .681159 .512048
6 1 .483336 .456531 .993142
7 1 .479187 .465627 .012047
ITEM: TIMESTEP
150
ITEM: NUMBER OF ATOMS
7
ITEM: BOX BOUNDS ss ss ss
-2.9562 3.3078
-2.8686 3.1991
-2.0707 1.8902
ITEM: ATOMS id type xs ys zs
1 1 .540357 .991897 .511885
2 1 .991964 .581827 .499582
3 1 .765379 .006449 .497811
4 1 .151431 .054689 .506751
5 1 .010347 .680418 .513221
6 1 .487350 .452924 .994338
7 1 .478132 .463788 .009207
ITEM: TIMESTEP
200
ITEM: NUMBER OF ATOMS
7
ITEM: BOX BOUNDS ss ss ss
-2.9592 3.3109
-2.8749 3.2015
-2.0664 1.9009
ITEM: ATOMS id type xs ys zs
1 1 .537923 .992092 .518161
2 1 .995497 .582793 .498215
3 1 .765443 .005733 .499585
4 1 .147148 .056020 .512496
5 1 .006067 .677146 .511313
6 1 .488156 .458137 .988391
7 1 .480108 .463832 .015944
ITEM: TIMESTEP
250
ITEM: NUMBER OF ATOMS
7
ITEM: BOX BOUNDS ss ss ss
-2.9599 3.3222
-2.8862 3.2153
-2.0611 1.9088
ITEM: ATOMS id type xs ys zs
1 1 .534724 .989224 .514754
2 1 .995733 .585974 .497683
3 1 .762377 .011649 .502348
4 1 .149401 .058985 .504753
5 1 .009724 .676257 .507895
6 1 .486325 .458965 .991889
7 1 .480744 .466932 .009512
ITEM: TIMESTEP
300
ITEM: NUMBER OF ATOMS
7
ITEM: BOX BOUNDS ss ss ss
-2.9579 3.3222
-2.8825 3.2141
-2.0613 1.9152
ITEM: ATOMS id type xs ys zs
1 1 .538020 .994066 .511704
2 1 .992891 .585999 .494411
3 1 .761000 .010769 .495457
4 1 .149617 .056505 .499708
5 1 .008417 .676992 .508765
6 1 .487117 .459678 .987880
7 1 .481259 .465456 .014149
ITEM: TIMESTEP
350
ITEM: NUMBER OF ATOMS
7
ITEM: BOX BOUNDS ss ss ss
-2.9620 3.3198
-2.8876 3.2181
-2.0597 1.9219
ITEM: ATOMS id type xs ys zs
1 1 .539163 .992874 .510615
2 1 .994520 .584639 .492609
3 1 .763831 .012700 .496737
4 1 .151000 .056607 .498752
5 1 .009376 .675867 .507333
6 1 .486934 .459622 .985354
7 1 .483695 .465628 .011671
ITEM: TIMESTEP
400
ITEM: NUMBER OF ATOMS
7
ITEM: BOX BOUNDS ss ss ss
-2.9576 3.3202
-2.8905 3.2217
-2.0614 1.9258
ITEM: ATOMS id type xs ys zs
1 1 .539005 .991302 .510367
2 1 .995002 .586212 .493285
3 1 .763398 .013133 .502788
4 1 .150255 .056420 .502046
5 1 .010068 .677731 .506137
6 1 .484676 .458941 .983910
7 1 .482149 .465987 .010924
ITEM: TIMESTEP
1
ITEM: NUMBER OF ATOMS
7
ITEM: BOX BOUNDS ss ss ss
-2.9324 3.2912
-2.8621 3.2059
-2.0416 1.9227
ITEM: ATOMS id type xs ys zs
1 1 .540219 .990344 .504746
2 1 .993714 .580870 .492372
3 1 .768044 .006871 .491822
4 1 .149315 .052789 .502932
5 1 .003969 .677916 .503710
6 1 .482576 .454606 .979179
7 1 .481051 .465972 .004007
ITEM: TIMESTEP
50
ITEM: NUMBER OF ATOMS
7
ITEM: BOX BOUNDS ss ss ss
-2.9376 3.2912
-2.8621 3.2059
-2.0600 1.9227
ITEM: ATOMS id type xs ys zs
1 1 .540254 .988814 .507665
2 1 .995041 .581426 .497943
3 1 .768281 .007007 .492339
4 1 .149275 .052707 .503559
5 1 .003085 .676948 .508167
6 1 .481429 .455426 .977627
7 1 .482884 .464900 .012300
ITEM: TIMESTEP
100
ITEM: NUMBER OF ATOMS
7
ITEM: BOX BOUNDS ss ss ss
-2.9488 3.2912
-2.8621 3.2059
-2.0662 1.9227
ITEM: ATOMS id type xs ys zs
1 1 .539534 .993437 .505982
2 1 .991854 .582974 .498477
3 1 .766714 .007981 .500103
4 1 .151107 .048837 .504226
5 1 .005690 .675275 .510412
6 1 .483765 .452610 .980995
7 1 .481592 .464092 .008187
ITEM: TIMESTEP
150
ITEM: NUMBER OF ATOMS
7
ITEM: BOX BOUNDS ss ss ss
-2.9525 3.3033
-2.8718 3.2059
-2.0816 1.9227
ITEM: ATOMS id type xs ys zs
1 1 .538049 .993320 .510924
2 1 .993802 .582395 .495108
3 1 .764315 .010662 .493665
4 1 .150807 .051824 .506369
5 1 .004951 .679257 .507170
6 1 .484187 .457186 .982765
7 1 .482196 .465090 .016589
ITEM: TIMESTEP
200
ITEM: NUMBER OF ATOMS
7
ITEM: BOX BOUNDS ss ss ss
-2.9550 3.3078
-2.8737 3.2059
-2.0710 1.9227
ITEM: ATOMS id type xs ys zs
1 1 .533349 .994958 .519116
2 1 .994146 .578764 .494697
3 1 .765609 .008316 .500964
4 1 .150005 .054567 .506810
5 1 .004249 .677977 .504716
6 1 .485008 .459793 .985369
7 1 .481650 .464284 .014630
ITEM: TIMESTEP
250
ITEM: NUMBER OF ATOMS
7
ITEM: BOX BOUNDS ss ss ss
-2.9652 3.3134
-2.8712 3.2097
-2.0641 1.9227
ITEM: ATOMS id type xs ys zs
1 1 .538907 .993006 .508765
2 1 .993081 .583957 .491385
3 1 .762175 .006710 .492278
4 1 .158240 .050139 .503844
5 1 .010029 .678517 .501749
6 1 .484723 .460546 .979892
7 1 .481413 .460518 .005671
ITEM: TIMESTEP
300
ITEM: NUMBER OF ATOMS
7
ITEM: BOX BOUNDS ss ss ss
-2.9626 3.3117
-2.8735 3.2059
-2.0594 1.9227
ITEM: ATOMS id type xs ys zs
1 1 .534479 .991482 .514450
2 1 .993183 .586488 .495841
3 1 .763583 .008753 .494075
4 1 .153365 .050128 .498508
5 1 .008912 .674024 .502266
6 1 .485394 .458317 .990634
7 1 .482931 .461362 .011051
ITEM: TIMESTEP
350
ITEM: NUMBER OF ATOMS
7
ITEM: BOX BOUNDS ss ss ss
-2.9629 3.3098
-2.8700 3.2059
-2.0681 1.9227
ITEM: ATOMS id type xs ys zs
1 1 .532960 .991180 .514343
2 1 .993679 .587814 .495265
3 1 .763996 .008572 .494648
4 1 .152617 .051332 .499184
5 1 .010324 .674533 .501535
6 1 .485495 .459821 .991543
7 1 .481816 .461833 .009436
ITEM: TIMESTEP
400
ITEM: NUMBER OF ATOMS
7
ITEM: BOX BOUNDS ss ss ss
-2.9601 3.3113
-2.8797 3.2173
-2.0609 1.9126
ITEM: ATOMS id type xs ys zs
1 1 .534325 .994225 .515133
2 1 .992926 .588266 .494489
3 1 .759571 .006667 .495914
4 1 .152422 .052923 .499010
5 1 .007968 .672963 .507157
6 1 .488661 .457497 .989336
7 1 .480386 .461635 .008829
ITEM: TIMESTEP
1
ITEM: NUMBER OF ATOMS
7
ITEM: BOX BOUNDS ss ss ss
-2.9485 3.2795
-2.8584 3.2011
-2.0416 1.8947
ITEM: ATOMS id type xs ys zs
1 1 .542282 .991309 .507595
2 1 .995508 .581192 .496565
3 1 .770051 .006207 .495658
4 1 .151883 .051944 .506549
5 1 .006398 .678314 .507502
6 1 .484605 .454422 .986142
7 1 .483228 .465760 .004608
ITEM: TIMESTEP
50
ITEM: NUMBER OF ATOMS
7
ITEM: BOX BOUNDS ss ss ss
-2.9485 3.2804
-2.8584 3.2011
-2.0547 1.8947
ITEM: ATOMS id type xs ys zs
1 1 .542758 .989808 .508313
2 1 .997519 .580551 .498422
3 1 .769622 .006747 .495803
4 1 .150120 .051456 .509151
5 1 .005547 .681187 .506444
6 1 .485382 .454229 .984673
7 1 .482351 .466144 .005776
ITEM: TIMESTEP
100
ITEM: NUMBER OF ATOMS
7
ITEM: BOX BOUNDS ss ss ss
-2.9485 3.2971
-2.8584 3.2011
-2.0678 1.8947
ITEM: ATOMS id type xs ys zs
1 1 .538278 .991971 .515016
2 1 .995482 .582466 .502017
3 1 .768571 .007290 .496119
4 1 .150764 .049571 .508676
5 1 .005510 .680431 .508654
6 1 .482036 .456670 .986600
7 1 .482142 .464674 .008472
ITEM: TIMESTEP
150
ITEM: NUMBER OF ATOMS
7
ITEM: BOX BOUNDS ss ss ss
-2.9535 3.3109
-2.8633 3.2011
-2.0741 1.8947
ITEM: ATOMS id type xs ys zs
1 1 .538803 .993698 .514717
2 1 .992231 .583380 .500766
3 1 .768178 .007911 .497991
4 1 .151079 .050255 .513570
5 1 .007202 .681452 .510036
6 1 .483179 .455889 .985518
7 1 .481244 .464480 .012310
ITEM: TIMESTEP
200
ITEM: NUMBER OF ATOMS
7
ITEM: BOX BOUNDS ss ss ss
-2.9533 3.3227
-2.8675 3.2116
-2.0705 1.9010
ITEM: ATOMS id type xs ys zs
1 1 .540324 .990070 .514633
2 1 .992231 .580358 .499843
3 1 .763202 .001504 .496989
4 1 .150161 .051744 .505653
5 1 .009730 .678446 .512840
6 1 .484206 .455620 .984811
7 1 .480014 .462584 .014794
ITEM: TIMESTEP
250
ITEM: NUMBER OF ATOMS
7
ITEM: BOX BOUNDS ss ss ss
-2.9485 3.3212
-2.8692 3.2043
-2.0741 1.9106
ITEM: ATOMS id type xs ys zs
1 1 .538577 .992598 .513959
2 1 .993901 .581576 .497464
3 1 .764230 .008260 .498051
4 1 .147283 .052033 .505184
5 1 .008008 .678638 .505426
6 1 .484876 .456605 .991381
7 1 .480786 .463875 .017480
ITEM: TIMESTEP
300
ITEM: NUMBER OF ATOMS
7
ITEM: BOX BOUNDS ss ss ss
-2.9494 3.3249
-2.8703 3.2087
-2.0702 1.9101
ITEM: ATOMS id type xs ys zs
1 1 .533555 .995230 .508592
2 1 .992328 .584431 .492647
3 1 .764447 .008892 .492987
4 1 .148493 .051665 .506902
5 1 .006335 .675705 .509226
6 1 .482864 .459680 .988844
7 1 .478111 .460496 .010703
ITEM: TIMESTEP
350
ITEM: NUMBER OF ATOMS
7
ITEM: BOX BOUNDS ss ss ss
-2.9523 3.3213
-2.8718 3.2167
-2.0656 1.9133
ITEM: ATOMS id type xs ys zs
1 1 .538073 .988681 .511882
2 1 .997423 .581514 .494286
3 1 .760935 .009287 .493971
4 1 .146553 .053845 .501672
5 1 .007133 .673547 .504943
6 1 .482919 .455680 .994283
7 1 .479675 .462445 .008220
ITEM: TIMESTEP
400
ITEM: NUMBER OF ATOMS
7
ITEM: BOX BOUNDS ss ss ss
-2.9509 3.3187
-2.8781 3.2221
-2.0685 1.9136
ITEM: ATOMS id type xs ys zs
1 1 .537329 .992322 .501422
2 1 .990844 .581190 .497211
3 1 .761001 .004038 .497171
4 1 .151548 .054947 .500826
5 1 .006923 .674593 .501904
6 1 .484241 .459599 .980566
7 1 .480555 .464952 .009655
ITEM: TIMESTEP
1
ITEM: NUMBER OF ATOMS
7
ITEM: BOX BOUNDS ss ss ss
-2.9485 3.3068
-2.8584 3.2046
-2.0416 1.8979
ITEM: ATOMS id type xs ys zs
1 1 .539959 .990590 .507775
2 1 .991427 .580599 .495641
3 1 .766458 .006234 .494969
4 1 .150864 .052273 .505969
5 1 .006435 .677853 .507048
6 1 .482403 .454312 .985603
7 1 .481275 .465598 .004249
ITEM: TIMESTEP
50
ITEM: NUMBER OF ATOMS
7
ITEM: BOX BOUNDS ss ss ss
-2.9485 3.3068
-2.8584 3.2046
-2.0541 1.8979
ITEM: ATOMS id type xs ys zs
1 1 .541438 .989477 .510427
2 1 .993130 .580271 .496455
3 1 .765362 .005644 .495256
4 1 .151897 .050868 .509027
5 1 .006412 .678634 .509823
6 1 .482724 .454729 .985798
7 1 .481261 .464636 .004533
ITEM: TIMESTEP
100
ITEM: NUMBER OF ATOMS
7
ITEM: BOX BOUNDS ss ss ss
-2.9485 3.3068
-2.8593 3.2046
-2.0620 1.8979
ITEM: ATOMS id type xs ys zs
1 1 .539119 .993544 .513623
2 1 .990629 .583369 .497157
3 1 .763728 .005919 .498297
4 1 .152072 .049454 .505463
5 1 .006444 .678735 .509794
6 1 .485163 .454708 .988093
7 1 .481287 .464720 .010850
ITEM: TIMESTEP
150
ITEM: NUMBER OF ATOMS
7
ITEM: BOX BOUNDS ss ss ss
-2.9485 3.3091
-2.8616 3.2046
-2.0616 1.8979
ITEM: ATOMS id type xs ys zs
1 1 .539426 .994523 .507628
2 1 .993345 .580489 .498411
3 1 .765682 .007442 .499388
4 1 .152212 .053393 .506352
5 1 .002344 .677508 .503031
6 1 .484326 .456100 .992784
7 1 .480090 .465131 .007893
ITEM: TIMESTEP
200
ITEM: NUMBER OF ATOMS
7
ITEM: BOX BOUNDS ss ss ss
-2.9508 3.3186
-2.8657 3.2112
-2.0612 1.9120
ITEM: ATOMS id type xs ys zs
1 1 .542337 .990832 .509487
2 1 .991396 .582382 .501565
3 1 .766029 .006839 .490544
4 1 .149246 .048263 .503744
5 1 .007777 .678862 .508071
6 1 .483255 .454396 .984557
7 1 .476240 .460834 .010320
ITEM: TIMESTEP
250
ITEM: NUMBER OF ATOMS
7
ITEM: BOX BOUNDS ss ss ss
-2.9485 3.3179
-2.8744 3.2127
-2.0661 1.9074
ITEM: ATOMS id type xs ys zs
1 1 .539864 .990170 .506922
2 1 .996046 .581327 .501519
3 1 .761485 .009600 .500569
4 1 .152269 .047527 .503224
5 1 .005024 .671241 .510900
6 1 .486368 .456695 .987523
7 1 .476539 .464600 .009646
ITEM: TIMESTEP
300
ITEM: NUMBER OF ATOMS
7
ITEM: BOX BOUNDS ss ss ss
-2.9485 3.3142
-2.8779 3.2188
-2.0672 1.9131
ITEM: ATOMS id type xs ys zs
1 1 .537843 .990529 .507569
2 1 .992402 .584520 .495236
3 1 .765091 .009714 .491962
4 1 .150819 .048281 .503611
5 1 .006889 .678423 .502144
6 1 .484386 .458035 .986331
7 1 .480391 .461803 .013506
ITEM: TIMESTEP
350
ITEM: NUMBER OF ATOMS
7
ITEM: BOX BOUNDS ss ss ss
-2.9494 3.3237
-2.8774 3.2118
-2.0636 1.9121
ITEM: ATOMS id type xs ys zs
1 1 .537523 .988202 .503944
2 1 .993317 .586141 .496447
3 1 .758247 .006675 .495307
4 1 .149130 .058797 .508080
5 1 .007540 .674836 .506850
6 1 .489223 .461231 .993535
7 1 .477685 .462739 .013713
ITEM: TIMESTEP
400
ITEM: NUMBER OF ATOMS
7
ITEM: BOX BOUNDS ss ss ss
-2.9503 3.3298
-2.8868 3.2187
-2.0638 1.9180
ITEM: ATOMS id type xs ys zs
1 1 .537330 .989233 .501610
2 1 .993658 .586124 .494255
3 1 .760361 .008909 .492185
4 1 .146789 .059422 .505605
5 1 .003777 .672960 .511683
6 1 .487977 .459434 .983896
7 1 .475330 .461521 .012950
ITEM: TIMESTEP
1
ITEM: NUMBER OF ATOMS
7
ITEM: BOX BOUNDS ss ss ss
-2.9267 3.2989
-2.8690 3.1958
-2.0283 1.9027
ITEM: ATOMS id type xs ys zs
1 1 .539146 .992023 .505568
2 1 .992404 .582364 .493325
3 1 .766796 .008308 .492519
4 1 .148276 .053827 .504020
5 1 .002746 .679686 .504407
6 1 .481022 .455903 .983759
7 1 .480213 .466901 .001623
ITEM: TIMESTEP
50
ITEM: NUMBER OF ATOMS
7
ITEM: BOX BOUNDS ss ss ss
-2.9375 3.2989
-2.8690 3.1958
-2.0559 1.9027
ITEM: ATOMS id type xs ys zs
1 1 .539343 .992760 .509253
2 1 .993289 .582727 .497231
3 1 .769128 .007626 .499992
4 1 .149676 .053167 .507512
5 1 .004616 .680169 .508694
6 1 .482330 .457263 .983398
7 1 .480663 .466259 .006119
ITEM: TIMESTEP
100
ITEM: NUMBER OF ATOMS
7
ITEM: BOX BOUNDS ss ss ss
-2.9464 3.2989
-2.8690 3.1958
-2.0654 1.9027
ITEM: ATOMS id type xs ys zs
1 1 .542083 .993646 .510060
2 1 .992671 .581606 .490892
3 1 .765492 .006487 .493358
4 1 .150944 .051900 .508377
5 1 .004997 .681363 .508088
6 1 .483565 .456494 .987468
7 1 .480844 .464517 .009349
ITEM: TIMESTEP
150
ITEM: NUMBER OF ATOMS
7
ITEM: BOX BOUNDS ss ss ss
-2.9476 3.3026
-2.8690 3.1989
-2.0623 1.9027
ITEM: ATOMS id type xs ys zs
1 1 .541560 .993084 .510256
2 1 .991239 .580650 .488480
3 1 .765165 .006374 .490513
4 1 .152386 .052279 .509439
5 1 .002722 .682019 .510189
6 1 .483205 .455867 .989767
7 1 .481270 .465591 .005669
ITEM: TIMESTEP
200
ITEM: NUMBER OF ATOMS
7
ITEM: BOX BOUNDS ss ss ss
-2.9492 3.3080
-2.8695 3.2005
-2.0569 1.9089
ITEM: ATOMS id type xs ys zs
1 1 .534244 .994621 .507272
2 1 .993520 .581107 .488922
3 1 .764219 .009013 .497409
4 1 .155796 .050582 .504831
5 1 .005437 .685837 .505186
6 1 .485077 .458199 .982815
7 1 .478966 .462284 .006640
ITEM: TIMESTEP
250
ITEM: NUMBER OF ATOMS
7
ITEM: BOX BOUNDS ss ss ss
-2.9531 3.3198
-2.8718 3.2085
-2.0694 1.9027
ITEM: ATOMS id type xs ys zs
1 1 .538494 .992774 .513323
2 1 .989568 .582082 .499481
3 1 .765791 .007929 .496259
4 1 .152483 .053489 .506647
5 1 .008419 .679908 .503332
6 1 .483685 .458402 .987229
7 1 .481225 .466040 .010064
ITEM: TIMESTEP
300
ITEM: NUMBER OF ATOMS
7
ITEM: BOX BOUNDS ss ss ss
-2.9552 3.3187
-2.8779 3.2236
-2.0605 1.9073
ITEM: ATOMS id type xs ys zs
1 1 .537444 .989890 .509640
2 1 .991023 .583380 .488691
3 1 .762923 .010204 .499447
4 1 .149471 .051819 .501722
5 1 .009042 .678371 .509232
6 1 .479594 .453874 .985066
7 1 .475476 .460127 .012338
ITEM: TIMESTEP
350
ITEM: NUMBER OF ATOMS
7
ITEM: BOX BOUNDS ss ss ss
-2.9568 3.3215
-2.8754 3.2284
-2.0616 1.9027
ITEM: ATOMS id type xs ys zs
1 1 .536017 .991827 .509412
2 1 .992354 .584097 .499621
3 1 .762214 .010910 .495136
4 1 .151015 .053662 .497881
5 1 .010945 .679363 .506529
6 1 .484669 .456450 .990751
7 1 .483386 .462944 .015191
ITEM: TIMESTEP
400
ITEM: NUMBER OF ATOMS
7
ITEM: BOX BOUNDS ss ss ss
-2.9523 3.3132
-2.8803 3.2404
-2.0636 1.9095
ITEM: ATOMS id type xs ys zs
1 1 .537070 .989177 .508648
2 1 .993220 .581807 .499155
3 1 .765358 .012347 .495551
4 1 .148619 .053947 .497777
5 1 .010498 .679152 .507158
6 1 .484483 .456417 .988450
7 1 .481442 .462355 .014045
ITEM: TIMESTEP
1
ITEM: NUMBER OF ATOMS
7
ITEM: BOX BOUNDS ss ss ss
-2.9322 3.2967
-2.8812 3.2128
-2.0377 1.9026
ITEM: ATOMS id type xs ys zs
1 1 .539946 .988813 .506402
2 1 .992747 .581349 .494471
3 1 .767122 .010075 .493434
4 1 .149345 .055603 .505292
5 1 .003763 .677993 .506199
6 1 .482174 .455723 .983676
7 1 .480660 .466858 .003740
ITEM: TIMESTEP
50
ITEM: NUMBER OF ATOMS
7
ITEM: BOX BOUNDS ss ss ss
-2.9414 3.2967
-2.8812 3.2128
-2.0547 1.9026
ITEM: ATOMS id type xs ys zs
1 1 .540306 .988495 .507644
2 1 .992771 .581504 .497235
3 1 .768024 .009907 .498008
4 1 .148384 .056719 .508143
5 1 .006148 .678830 .507635
6 1 .481228 .456151 .984831
7 1 .480260 .466916 .007387
ITEM: TIMESTEP
100
ITEM: NUMBER OF ATOMS
7
ITEM: BOX BOUNDS ss ss ss
-2.9510 3.2967
-2.8812 3.2128
-2.0596 1.9026
ITEM: ATOMS id type xs ys zs
1 1 .540368 .988831 .511415
2 1 .993356 .582082 .499765
3 1 .769038 .012239 .498172
4 1 .152227 .058643 .506448
5 1 .003679 .677076 .505197
6 1 .483505 .454971 .985665
7 1 .481594 .464426 .010458
ITEM: TIMESTEP
150
ITEM: NUMBER OF ATOMS
7
ITEM: BOX BOUNDS ss ss ss
-2.9651 3.3060
-2.8812 3.2128
-2.0591 1.9026
ITEM: ATOMS id type xs ys zs
1 1 .541052 .990912 .510611
2 1 .992499 .579757 .495942
3 1 .766854 .007457 .496255
4 1 .155134 .053835 .509618
5 1 .005199 .679810 .507780
6 1 .485093 .454580 .985823
7 1 .479601 .462139 .009675
ITEM: TIMESTEP
200
ITEM: NUMBER OF ATOMS
7
ITEM: BOX BOUNDS ss ss ss
-2.9582 3.3111
-2.8812 3.2128
-2.0582 1.9026
ITEM: ATOMS id type xs ys zs
1 1 .539101 .992342 .512673
2 1 .993250 .581618 .497373
3 1 .768418 .005676 .489277
4 1 .155622 .052166 .511562
5 1 .007248 .680186 .508206
6 1 .484168 .457958 .987579
7 1 .479733 .465055 .014993
ITEM: TIMESTEP
250
ITEM: NUMBER OF ATOMS
7
ITEM: BOX BOUNDS ss ss ss
-2.9598 3.3220
-2.8812 3.2228
-2.0659 1.9097
ITEM: ATOMS id type xs ys zs
1 1 .533528 .987155 .511614
2 1 .989415 .579785 .497352
3 1 .767789 .009554 .496411
4 1 .153035 .052498 .506196
5 1 .006384 .678514 .509133
6 1 .484400 .454768 .984749
7 1 .480699 .461723 .006952
ITEM: TIMESTEP
300
ITEM: NUMBER OF ATOMS
7
ITEM: BOX BOUNDS ss ss ss
-2.9570 3.3235
-2.8860 3.2128
-2.0667 1.9095
ITEM: ATOMS id type xs ys zs
1 1 .539287 .990215 .512182
2 1 .995020 .587254 .487245
3 1 .767578 .011191 .494544
4 1 .154843 .052742 .507818
5 1 .008647 .682021 .506388
6 1 .485241 .459925 .990757
7 1 .480347 .464828 .014083
ITEM: TIMESTEP
350
ITEM: NUMBER OF ATOMS
7
ITEM: BOX BOUNDS ss ss ss
-2.9511 3.3085
-2.8833 3.2128
-2.0678 1.9135
ITEM: ATOMS id type xs ys zs
1 1 .535110 .990550 .507201
2 1 .992270 .581015 .494487
3 1 .765678 .007200 .487863
4 1 .151783 .051058 .504466
5 1 .006062 .680174 .511910
6 1 .488646 .457152 .989531
7 1 .479827 .463042 .017316
ITEM: TIMESTEP
400
ITEM: NUMBER OF ATOMS
7
ITEM: BOX BOUNDS ss ss ss
-2.9569 3.3194
-2.8963 3.2128
-2.0696 1.9159
ITEM: ATOMS id type xs ys zs
1 1 .534456 .990279 .508693
2 1 .990373 .583073 .493534
3 1 .763701 .010294 .488549
4 1 .153052 .051651 .503808
5 1 .006162 .679986 .513190
6 1 .489894 .457448 .986915
7 1 .480016 .464330 .017784
ITEM: TIMESTEP
1
ITEM: NUMBER OF ATOMS
7
ITEM: BOX BOUNDS ss ss ss
-2.9326 3.2967
-2.8812 3.2128
-2.0571 1.9026
ITEM: ATOMS id type xs ys zs
1 1 .539781 .989130 .509155
2 1 .992886 .581488 .497124
3 1 .767230 .009793 .496626
4 1 .149410 .055982 .507778
5 1 .003535 .678124 .508284
6 1 .482134 .455729 .984051
7 1 .480445 .467210 .007719
ITEM: TIMESTEP
50
ITEM: NUMBER OF ATOMS
7
ITEM: BOX BOUNDS ss ss ss
-2.9417 3.2967
-2.8812 3.2128
-2.0571 1.9026
ITEM: ATOMS id type xs ys zs
1 1 .540258 .990761 .507116
2 1 .993257 .582373 .496942
3 1 .767563 .007639 .497845
4 1 .151168 .056172 .507787
5 1 .005000 .678009 .509424
6 1 .480253 .454296 .983231
7 1 .480902 .467843 .012786
ITEM: TIMESTEP
100
ITEM: NUMBER OF ATOMS
7
ITEM: BOX BOUNDS ss ss ss
-2.9539 3.2967
-2.8812 3.2128
-2.0664 1.9026
ITEM: ATOMS id type xs ys zs
1 1 .543080 .989443 .508706
2 1 .994133 .580250 .497887
3 1 .769600 .009102 .494585
4 1 .153391 .055940 .507240
5 1 .007088 .676219 .507943
6 1 .483900 .454814 .983579
7 1 .479827 .466473 .005294
ITEM: TIMESTEP
150
ITEM: NUMBER OF ATOMS
7
ITEM: BOX BOUNDS ss ss ss
-2.9497 3.3051
-2.8812 3.2128
-2.0755 1.9026
ITEM: ATOMS id type xs ys zs
1 1 .544022 .989615 .510568
2 1 .991384 .582681 .501643
3 1 .768524 .010035 .500422
4 1 .151722 .054494 .509414
5 1 .008743 .680818 .513351
6 1 .483048 .457876 .988120
7 1 .481933 .464206 .008111
ITEM: TIMESTEP
200
ITEM: NUMBER OF ATOMS
7
ITEM: BOX BOUNDS ss ss ss
-2.9579 3.3065
-2.8812 3.2128
-2.0838 1.9026
ITEM: ATOMS id type xs ys zs
1 1 .541150 .987397 .516587
2 1 .992360 .580595 .500337
3 1 .766607 .006666 .493572
4 1 .146465 .056519 .506463
5 1 .009173 .676604 .514121
6 1 .484028 .455480 .984347
7 1 .480275 .463417 .013975
ITEM: TIMESTEP
250
ITEM: NUMBER OF ATOMS
7
ITEM: BOX BOUNDS ss ss ss
-2.9572 3.3225
-2.8812 3.2128
-2.0780 1.9026
ITEM: ATOMS id type xs ys zs
1 1 .538494 .992483 .510543
2 1 .992158 .581589 .497971
3 1 .763926 .007845 .492982
4 1 .145766 .054421 .506087
5 1 .009815 .677761 .512343
6 1 .484502 .457628 .983029
7 1 .479746 .463724 .013312
ITEM: TIMESTEP
300
ITEM: NUMBER OF ATOMS
7
ITEM: BOX BOUNDS ss ss ss
-2.9720 3.3169
-2.8819 3.2128
-2.0731 1.9091
ITEM: ATOMS id type xs ys zs
1 1 .540571 .992335 .509492
2 1 .994827 .581521 .496272
3 1 .763844 .008514 .488614
4 1 .148775 .051858 .502645
5 1 .012442 .677708 .508471
6 1 .483101 .458425 .981198
7 1 .482444 .462332 .014553
ITEM: TIMESTEP
350
ITEM: NUMBER OF ATOMS
7
ITEM: BOX BOUNDS ss ss ss
-2.9589 3.3215
-2.8923 3.2128
-2.0745 1.9092
ITEM: ATOMS id type xs ys zs
1 1 .540603 .989777 .513587
2 1 .990669 .580981 .499540
3 1 .762738 .010770 .495960
4 1 .142734 .049814 .502731
5 1 .013192 .674275 .507564
6 1 .481721 .452804 .988624
7 1 .481172 .460309 .013914
ITEM: TIMESTEP
400
ITEM: NUMBER OF ATOMS
7
ITEM: BOX BOUNDS ss ss ss
-2.9704 3.3211
-2.8908 3.2184
-2.0693 1.9099
ITEM: ATOMS id type xs ys zs
1 1 .539176 .988316 .512917
2 1 .991918 .579941 .500136
3 1 .757622 .005507 .496922
4 1 .150348 .060278 .507711
5 1 .010941 .679798 .503097
6 1 .483424 .458142 .983961
7 1 .480700 .462145 .007064
ITEM: TIMESTEP
1
ITEM: NUMBER OF ATOMS
7
ITEM: BOX BOUNDS ss ss ss
-2.9439 3.3013
-2.8691 3.2049
-2.0521 1.8849
ITEM: ATOMS id type xs ys zs
1 1 .540365 .990540 .510890
2 1 .991903 .581590 .498437
3 1 .767313 .008069 .497869
4 1 .150859 .053813 .508973
5 1 .005470 .678082 .510161
6 1 .482784 .455201 .988500
7 1 .481306 .466457 .007301
ITEM: TIMESTEP
50
ITEM: NUMBER OF ATOMS
7
ITEM: BOX BOUNDS ss ss ss
-2.9439 3.3013
-2.8691 3.2049
-2.0583 1.8849
ITEM: ATOMS id type xs ys zs
1 1 .541835 .992541 .511987
2 1 .991657 .580584 .496588
3 1 .767937 .007744 .499354
4 1 .148978 .051447 .509701
5 1 .006135 .680307 .510029
6 1 .481919 .454897 .991651
7 1 .479847 .465606 .009555
ITEM: TIMESTEP
100
ITEM: NUMBER OF ATOMS
7
ITEM: BOX BOUNDS ss ss ss
-2.9491 3.3013
-2.8691 3.2049
-2.0692 1.8849
ITEM: ATOMS id type xs ys zs
1 1 .538493 .990269 .509843
2 1 .993629 .580145 .502753
3 1 .767361 .006982 .496585
4 1 .151967 .050435 .511940
5 1 .005228 .679677 .510358
6 1 .484751 .455399 .988841
7 1 .479949 .466594 .012130
ITEM: TIMESTEP
150
ITEM: NUMBER OF ATOMS
7
ITEM: BOX BOUNDS ss ss ss
-2.9562 3.3062
-2.8743 3.2062
-2.0713 1.8889
ITEM: ATOMS id type xs ys zs
1 1 .539763 .991251 .507731
2 1 .995624 .579312 .501911
3 1 .765482 .007129 .498714
4 1 .153395 .051222 .512586
5 1 .005522 .679503 .509562
6 1 .483920 .453956 .984134
7 1 .479915 .468034 .013592
ITEM: TIMESTEP
200
ITEM: NUMBER OF ATOMS
7
ITEM: BOX BOUNDS ss ss ss
-2.9590 3.3048
-2.8747 3.2060
-2.0825 1.8933
ITEM: ATOMS id type xs ys zs
1 1 .545432 .991641 .514336
2 1 .994413 .582619 .511085
3 1 .768047 .009555 .506590
4 1 .150769 .051747 .508167
5 1 .007100 .680831 .519861
6 1 .485381 .455906 .990589
7 1 .481090 .464290 .013048
ITEM: TIMESTEP
250
ITEM: NUMBER OF ATOMS
7
ITEM: BOX BOUNDS ss ss ss
-2.9625 3.3192
-2.8736 3.2089
-2.0797 1.8997
ITEM: ATOMS id type xs ys zs
1 1 .542674 .992074 .511724
2 1 .993468 .583733 .502724
3 1 .768558 .010197 .491139
4 1 .151806 .050018 .503310
5 1 .007330 .677765 .512813
6 1 .485885 .453052 .986586
7 1 .480653 .465124 .017044
ITEM: TIMESTEP
300
ITEM: NUMBER OF ATOMS
7
ITEM: BOX BOUNDS ss ss ss
-2.9657 3.3207
-2.8782 3.2124
-2.0863 1.9028
ITEM: ATOMS id type xs ys zs
1 1 .540093 .993499 .512970
2 1 .992154 .583830 .508274
3 1 .771829 .007398 .495805
4 1 .151311 .051014 .511359
5 1 .006113 .680557 .508004
6 1 .481164 .455592 .983599
7 1 .482079 .464382 .021039
ITEM: TIMESTEP
350
ITEM: NUMBER OF ATOMS
7
ITEM: BOX BOUNDS ss ss ss
-2.9672 3.3293
-2.8777 3.2241
-2.0759 1.9039
ITEM: ATOMS id type xs ys zs
1 1 .538920 .993512 .514773
2 1 .989108 .579337 .504597
3 1 .765790 .006620 .488880
4 1 .153324 .048686 .502525
5 1 .006619 .677106 .512379
6 1 .483095 .452534 .988326
7 1 .476974 .459783 .020490
ITEM: TIMESTEP
400
ITEM: NUMBER OF ATOMS
7
ITEM: BOX BOUNDS ss ss ss
-2.9672 3.3256
-2.8816 3.2207
-2.0735 1.9055
ITEM: ATOMS id type xs ys zs
1 1 .538687 .991381 .507069
2 1 .994400 .582715 .506340
3 1 .766043 .005461 .487091
4 1 .157386 .051148 .503898
5 1 .006046 .681081 .511140
6 1 .481828 .458533 .989240
7 1 .479372 .463153 .020444
ITEM: TIMESTEP
1
ITEM: NUMBER OF ATOMS
7
ITEM: BOX BOUNDS ss ss ss
-2.9439 3.3013
-2.8763 3.2049
-2.0521 1.8959
ITEM: ATOMS id type xs ys zs
1 1 .540540 .990246 .509375
2 1 .991910 .581941 .497436
3 1 .767156 .009268 .496662
4 1 .150677 .055097 .507845
5 1 .005653 .678691 .508727
6 1 .482137 .456061 .985604
7 1 .481176 .466894 .007415
ITEM: TIMESTEP
50
ITEM: NUMBER OF ATOMS
7
ITEM: BOX BOUNDS ss ss ss
-2.9439 3.3013
-2.8763 3.2049
-2.0553 1.8959
ITEM: ATOMS id type xs ys zs
1 1 .542036 .991404 .511737
2 1 .993574 .581823 .501092
3 1 .769176 .010412 .494138
4 1 .151083 .053877 .507750
5 1 .005923 .680349 .511906
6 1 .483949 .457673 .987282
7 1 .481993 .467798 .009925
ITEM: TIMESTEP
100
ITEM: NUMBER OF ATOMS
7
ITEM: BOX BOUNDS ss ss ss
-2.9544 3.3013
-2.8763 3.2049
-2.0733 1.8959
ITEM: ATOMS id type xs ys zs
1 1 .543151 .992027 .514646
2 1 .991268 .580431 .504483
3 1 .771098 .007410 .500219
4 1 .153237 .054290 .510903
5 1 .007274 .680743 .512178
6 1 .485642 .457350 .985748
7 1 .480408 .468713 .017181
ITEM: TIMESTEP
150
ITEM: NUMBER OF ATOMS
7
ITEM: BOX BOUNDS ss ss ss
-2.9597 3.3085
-2.8763 3.2049
-2.0678 1.8959
ITEM: ATOMS id type xs ys zs
1 1 .542907 .991410 .513609
2 1 .988518 .581429 .501734
3 1 .766701 .007768 .498044
4 1 .152831 .056635 .509995
5 1 .004619 .680027 .508896
6 1 .479459 .455514 .987465
7 1 .479464 .469428 .010936
ITEM: TIMESTEP
200
ITEM: NUMBER OF ATOMS
7
ITEM: BOX BOUNDS ss ss ss
-2.9631 3.3073
-2.8763 3.2064
-2.0776 1.8959
ITEM: ATOMS id type xs ys zs
1 1 .543394 .995224 .516256
2 1 .990856 .581024 .505374
3 1 .767300 .007398 .496822
4 1 .154425 .049770 .505848
5 1 .006902 .681853 .510158
6 1 .480216 .455014 .990189
7 1 .476575 .468711 .016164
ITEM: TIMESTEP
250
ITEM: NUMBER OF ATOMS
7
ITEM: BOX BOUNDS ss ss ss
-2.9662 3.3136
-2.8763 3.2121
-2.0693 1.9067
ITEM: ATOMS id type xs ys zs
1 1 .542746 .990977 .510859
2 1 .993767 .584114 .498203
3 1 .765258 .009282 .496983
4 1 .153291 .050337 .503894
5 1 .005672 .681270 .510323
6 1 .479611 .456563 .985918
7 1 .480952 .466527 .018127
ITEM: TIMESTEP
300
ITEM: NUMBER OF ATOMS
7
ITEM: BOX BOUNDS ss ss ss
-2.9648 3.3117
-2.8725 3.2242
-2.0742 1.9103
ITEM: ATOMS id type xs ys zs
1 1 .539921 .990525 .507297
2 1 .992916 .580381 .496575
3 1 .765301 .009317 .490697
4 1 .152356 .047999 .504621
5 1 .010212 .679484 .511311
6 1 .481971 .454496 .985954
7 1 .480387 .460317 .017803
ITEM: TIMESTEP
350
ITEM: NUMBER OF ATOMS
7
ITEM: BOX BOUNDS ss ss ss
-2.9560 3.3102
-2.8694 3.2359
-2.0668 1.9184
ITEM: ATOMS id type xs ys zs
1 1 .536917 .986107 .507809
2 1 .989266 .580987 .501286
3 1 .766596 .006958 .492045
4 1 .150958 .051312 .499014
5 1 .008537 .675929 .508618
6 1 .481653 .450235 .991009
7 1 .477581 .460535 .009284
ITEM: TIMESTEP
400
ITEM: NUMBER OF ATOMS
7
ITEM: BOX BOUNDS ss ss ss
-2.9593 3.3196
-2.8738 3.2285
-2.0687 1.9250
ITEM: ATOMS id type xs ys zs
1 1 .536639 .986242 .509029
2 1 .986993 .579535 .498584
3 1 .767062 .010649 .492154
4 1 .151688 .051931 .498835
5 1 .008681 .678061 .508364
6 1 .481229 .449747 .987213
7 1 .475523 .462772 .009408
ITEM: TIMESTEP
1
ITEM: NUMBER OF ATOMS
7
ITEM: BOX BOUNDS ss ss ss
-2.9375 3.2917
-2.8594 3.1951
-2.0554 1.9142
ITEM: ATOMS id type xs ys zs
1 1 .540500 .991726 .507109
2 1 .993746 .581828 .495501
3 1 .768134 .006192 .494772
4 1 .149850 .052315 .505724
5 1 .004294 .678940 .506730
6 1 .482885 .455390 .981114
7 1 .481629 .466206 .007521
ITEM: TIMESTEP
50
ITEM: NUMBER OF ATOMS
7
ITEM: BOX BOUNDS ss ss ss
-2.9422 3.2917
-2.8594 3.1951
-2.0554 1.9142
ITEM: ATOMS id type xs ys zs
1 1 .543194 .992360 .507140
2 1 .992844 .581369 .495383
3 1 .770415 .003817 .491425
4 1 .149288 .053157 .506832
5 1 .005834 .679320 .505885
6 1 .482509 .456490 .982291
7 1 .479525 .462993 .005780
ITEM: TIMESTEP
100
ITEM: NUMBER OF ATOMS
7
ITEM: BOX BOUNDS ss ss ss
-2.9516 3.2921
-2.8667 3.1951
-2.0674 1.9142
ITEM: ATOMS id type xs ys zs
1 1 .547010 .989840 .507386
2 1 .990694 .580474 .498915
3 1 .770213 .005654 .492346
4 1 .149841 .054659 .512264
5 1 .007628 .679659 .506764
6 1 .483108 .458808 .982758
7 1 .482658 .464340 .008808
ITEM: TIMESTEP
150
ITEM: NUMBER OF ATOMS
7
ITEM: BOX BOUNDS ss ss ss
-2.9580 3.2972
-2.8705 3.1951
-2.0700 1.9142
ITEM: ATOMS id type xs ys zs
1 1 .537743 .993932 .513040
2 1 .992952 .581248 .496444
3 1 .771537 .009206 .493368
4 1 .154749 .052398 .505542
5 1 .008703 .682029 .507545
6 1 .484187 .457453 .984604
7 1 .479624 .465203 .004163
ITEM: TIMESTEP
200
ITEM: NUMBER OF ATOMS
7
ITEM: BOX BOUNDS ss ss ss
-2.9588 3.2938
-2.8819 3.1973
-2.0689 1.9142
ITEM: ATOMS id type xs ys zs
1 1 .540292 .996281 .509807
2 1 .992178 .585250 .493239
3 1 .770165 .009529 .494933
4 1 .150779 .057365 .504893
5 1 .007463 .682121 .510246
6 1 .485799 .458027 .988944
7 1 .480056 .467325 .012411
ITEM: TIMESTEP
250
ITEM: NUMBER OF ATOMS
7
ITEM: BOX BOUNDS ss ss ss
-2.9556 3.2947
-2.8867 3.2023
-2.0724 1.9161
ITEM: ATOMS id type xs ys zs
1 1 .540675 .996088 .507511
2 1 .990132 .586011 .494997
3 1 .772767 .010473 .497752
4 1 .150360 .056208 .504745
5 1 .007129 .681860 .509638
6 1 .483375 .458508 .988296
7 1 .479045 .468168 .011163
ITEM: TIMESTEP
300
ITEM: NUMBER OF ATOMS
7
ITEM: BOX BOUNDS ss ss ss
-2.9510 3.2983
-2.8784 3.2187
-2.0708 1.9142
ITEM: ATOMS id type xs ys zs
1 1 .540331 .990084 .505828
2 1 .996151 .582029 .494847
3 1 .770256 .006555 .496689
4 1 .151433 .058268 .505033
5 1 .005704 .681364 .514579
6 1 .486121 .459041 .989284
7 1 .477274 .465208 .014639
ITEM: TIMESTEP
350
ITEM: NUMBER OF ATOMS
7
ITEM: BOX BOUNDS ss ss ss
-2.9607 3.3062
-2.8852 3.2154
-2.0775 1.9172
ITEM: ATOMS id type xs ys zs
1 1 .539897 .994849 .505826