ITEM: TIMESTEP
1
ITEM: NUMBER OF ATOMS
7
ITEM: BOX BOUNDS ss ss ss
-2.9136 3.2550
-2.8247 3.1505
-2.0281 1.8430
ITEM: ATOMS id type xs ys zs
1 1 .541972 .999484 .513105
2 1 .999559 .583674 .500991
3 1 .771590 .000552 .500090
4 1 .147599 .047363 .511571
5 1 .000717 .681999 .512618
6 1 .483806 .455430 .999300
7 1 .482340 .466484 .000949
ITEM: TIMESTEP
50
ITEM: NUMBER OF ATOMS
7
ITEM: BOX BOUNDS ss ss ss
-2.9377 3.2813
-2.8556 3.1757
-2.0553 1.8660
ITEM: ATOMS id type xs ys zs
1 1 .540421 .996215 .513899
2 1 .996750 .583699 .500586
3 1 .767530 .003630 .499711
4 1 .149372 .051033 .511428
5 1 .004319 .680767 .512822
6 1 .484909 .457512 .995372
7 1 .481847 .466711 .008236
ITEM: TIMESTEP
100
ITEM: NUMBER OF ATOMS
7
ITEM: BOX BOUNDS ss ss ss
-2.9452 3.2997
-2.8624 3.1851
-2.0637 1.8818
ITEM: ATOMS id type xs ys zs
1 1 .539118 .995025 .508784
2 1 .994107 .583749 .501720
3 1 .764462 .005228 .495593
4 1 .149469 .053676 .508624
5 1 .007129 .679492 .512049
6 1 .484476 .458405 .992237
7 1 .481565 .465733 .008467
ITEM: TIMESTEP
150
ITEM: NUMBER OF ATOMS
7
ITEM: BOX BOUNDS ss ss ss
-2.9562 3.3078
-2.8686 3.1991
-2.0707 1.8902
ITEM: ATOMS id type xs ys zs
1 1 .538576 .994357 .509385
2 1 .992900 .582669 .500011
3 1 .762939 .005985 .497247
4 1 .150877 .055396 .507016
5 1 .006985 .677878 .512446
6 1 .486392 .458631 .993250
7 1 .481383 .465187 .015897
ITEM: TIMESTEP
200
ITEM: NUMBER OF ATOMS
7
ITEM: BOX BOUNDS ss ss ss
-2.9592 3.3109
-2.8749 3.2015
-2.0664 1.9009
ITEM: ATOMS id type xs ys zs
1 1 .536874 .995094 .506595
2 1 .993575 .583640 .499142
3 1 .762228 .006043 .496904
4 1 .150060 .057650 .504691
5 1 .008049 .677822 .511099
6 1 .486059 .458601 .990892
7 1 .481943 .465515 .011294
ITEM: TIMESTEP
250
ITEM: NUMBER OF ATOMS
7
ITEM: BOX BOUNDS ss ss ss
-2.9599 3.3222
-2.8862 3.2153
-2.0611 1.9088
ITEM: ATOMS id type xs ys zs
1 1 .535612 .991323 .504552
2 1 .991020 .582763 .494624
3 1 .759882 .009500 .494323
4 1 .150331 .057967 .502787
5 1 .008415 .674441 .510972
6 1 .485307 .460571 .992235
7 1 .482366 .463285 .011203
ITEM: TIMESTEP
300
ITEM: NUMBER OF ATOMS
7
ITEM: BOX BOUNDS ss ss ss
-2.9579 3.3222
-2.8825 3.2141
-2.0613 1.9152
ITEM: ATOMS id type xs ys zs
1 1 .536113 .993591 .504141
2 1 .991277 .583451 .495613
3 1 .758999 .007103 .495100
4 1 .150247 .056347 .500950
5 1 .009705 .675493 .509851
6 1 .487683 .460253 .988905
7 1 .481900 .463356 .012226
ITEM: TIMESTEP
350
ITEM: NUMBER OF ATOMS
7
ITEM: BOX BOUNDS ss ss ss
-2.9620 3.3198
-2.8876 3.2181
-2.0597 1.9219
ITEM: ATOMS id type xs ys zs
1 1 .537388 .991089 .507625
2 1 .993509 .582191 .491692
3 1 .759361 .007847 .489416
4 1 .150556 .058661 .503182
5 1 .010452 .673844 .509379
6 1 .488225 .459229 .988552
7 1 .482434 .464836 .010473
ITEM: TIMESTEP
400
ITEM: NUMBER OF ATOMS
7
ITEM: BOX BOUNDS ss ss ss
-2.9576 3.3202
-2.8905 3.2217
-2.0614 1.9258
ITEM: ATOMS id type xs ys zs
1 1 .536322 .992052 .503918
2 1 .992780 .582127 .490851
3 1 .758810 .007806 .490798
4 1 .149968 .058970 .501151
5 1 .009921 .673123 .506981
6 1 .488282 .459723 .985913
7 1 .482487 .463805 .010333
ITEM: TIMESTEP
1
ITEM: NUMBER OF ATOMS
7
ITEM: BOX BOUNDS ss ss ss
-2.9324 3.2912
-2.8621 3.2059
-2.0416 1.9227
ITEM: ATOMS id type xs ys zs
1 1 .540225 .990380 .504453
2 1 .993725 .580925 .492606
3 1 .767787 .006712 .491722
4 1 .149281 .052799 .502928
5 1 .003713 .677743 .503960
6 1 .482523 .454646 .979248
7 1 .481109 .465553 .004319
ITEM: TIMESTEP
50
ITEM: NUMBER OF ATOMS
7
ITEM: BOX BOUNDS ss ss ss
-2.9376 3.2912
-2.8621 3.2059
-2.0600 1.9227
ITEM: ATOMS id type xs ys zs
1 1 .539235 .992014 .509493
2 1 .994266 .580299 .493400
3 1 .766183 .006591 .492389
4 1 .149145 .054014 .504989
5 1 .006666 .679693 .505744
6 1 .485199 .454126 .982204
7 1 .481172 .465521 .007186
ITEM: TIMESTEP
100
ITEM: NUMBER OF ATOMS
7
ITEM: BOX BOUNDS ss ss ss
-2.9488 3.2912
-2.8621 3.2059
-2.0662 1.9227
ITEM: ATOMS id type xs ys zs
1 1 .536150 .990649 .511902
2 1 .995979 .581385 .496091
3 1 .765645 .006407 .494973
4 1 .149033 .052818 .501934
5 1 .003160 .676014 .504434
6 1 .485666 .455156 .982275
7 1 .482279 .464759 .013550
ITEM: TIMESTEP
150
ITEM: NUMBER OF ATOMS
7
ITEM: BOX BOUNDS ss ss ss
-2.9525 3.3033
-2.8718 3.2059
-2.0816 1.9227
ITEM: ATOMS id type xs ys zs
1 1 .534368 .992397 .515768
2 1 .993716 .582521 .497275
3 1 .765174 .008116 .499424
4 1 .148916 .053847 .503878
5 1 .005078 .676561 .506621
6 1 .485036 .457427 .985337
7 1 .482555 .464243 .016354
ITEM: TIMESTEP
200
ITEM: NUMBER OF ATOMS
7
ITEM: BOX BOUNDS ss ss ss
-2.9550 3.3078
-2.8737 3.2059
-2.0710 1.9227
ITEM: ATOMS id type xs ys zs
1 1 .532957 .992126 .513242
2 1 .993472 .584156 .494913
3 1 .764578 .008941 .494836
4 1 .150339 .052209 .500661
5 1 .005390 .673316 .505140
6 1 .486073 .458003 .985456
7 1 .482073 .463679 .012942
ITEM: TIMESTEP
250
ITEM: NUMBER OF ATOMS
7
ITEM: BOX BOUNDS ss ss ss
-2.9652 3.3134
-2.8712 3.2097
-2.0641 1.9227
ITEM: ATOMS id type xs ys zs
1 1 .531482 .991659 .512950
2 1 .991645 .584146 .491748
3 1 .762264 .007060 .492617
4 1 .150743 .053037 .500638
5 1 .007606 .671522 .500767
6 1 .487525 .458623 .986891
7 1 .482449 .464158 .011360
ITEM: TIMESTEP
300
ITEM: NUMBER OF ATOMS
7
ITEM: BOX BOUNDS ss ss ss
-2.9626 3.3117
-2.8735 3.2059
-2.0594 1.9227
ITEM: ATOMS id type xs ys zs
1 1 .530332 .994953 .512021
2 1 .990380 .586661 .491997
3 1 .760713 .006567 .490776
4 1 .151037 .054800 .500515
5 1 .006885 .671398 .498279
6 1 .486294 .459995 .988208
7 1 .483196 .463242 .010866
ITEM: TIMESTEP
350
ITEM: NUMBER OF ATOMS
7
ITEM: BOX BOUNDS ss ss ss
-2.9629 3.3098
-2.8700 3.2059
-2.0681 1.9227
ITEM: ATOMS id type xs ys zs
1 1 .530776 .994422 .511387
2 1 .990860 .586388 .496294
3 1 .760821 .005825 .493568
4 1 .150582 .054856 .498848
5 1 .007329 .670989 .501850
6 1 .487965 .458867 .990132
7 1 .484921 .463372 .013101
ITEM: TIMESTEP
400
ITEM: NUMBER OF ATOMS
7
ITEM: BOX BOUNDS ss ss ss
-2.9601 3.3113
-2.8797 3.2173
-2.0609 1.9126
ITEM: ATOMS id type xs ys zs
1 1 .530366 .992239 .511568
2 1 .991912 .585113 .495403
3 1 .760206 .007191 .494967
4 1 .151166 .056142 .502794
5 1 .008159 .669843 .504272
6 1 .488172 .458823 .992336
7 1 .484736 .463550 .011205
ITEM: TIMESTEP
1
ITEM: NUMBER OF ATOMS
7
ITEM: BOX BOUNDS ss ss ss
-2.9485 3.2795
-2.8584 3.2011
-2.0416 1.8947
ITEM: ATOMS id type xs ys zs
1 1 .542422 .991155 .508041
2 1 .995602 .581157 .496092
3 1 .769848 .006120 .495245
4 1 .151769 .052265 .506505
5 1 .006288 .678070 .507550
6 1 .484784 .454662 .986200
7 1 .483359 .465591 .004385
ITEM: TIMESTEP
50
ITEM: NUMBER OF ATOMS
7
ITEM: BOX BOUNDS ss ss ss
-2.9485 3.2804
-2.8584 3.2011
-2.0547 1.8947
ITEM: ATOMS id type xs ys zs
1 1 .541459 .991830 .510076
2 1 .996932 .580954 .497068
3 1 .768423 .004326 .497745
4 1 .151510 .051276 .506945
5 1 .006570 .677590 .509857
6 1 .485738 .455395 .987950
7 1 .483285 .464923 .009162
ITEM: TIMESTEP
100
ITEM: NUMBER OF ATOMS
7
ITEM: BOX BOUNDS ss ss ss
-2.9485 3.2971
-2.8584 3.2011
-2.0678 1.8947
ITEM: ATOMS id type xs ys zs
1 1 .539890 .993423 .511085
2 1 .993131 .580361 .499851
3 1 .763950 .004522 .499203
4 1 .150680 .052064 .507197
5 1 .007127 .675879 .508834
6 1 .484951 .455690 .990563
7 1 .480541 .462990 .007430
ITEM: TIMESTEP
150
ITEM: NUMBER OF ATOMS
7
ITEM: BOX BOUNDS ss ss ss
-2.9535 3.3109
-2.8633 3.2011
-2.0741 1.8947
ITEM: ATOMS id type xs ys zs
1 1 .536390 .993319 .513213
2 1 .995101 .582216 .498196
3 1 .763194 .007191 .497954
4 1 .149002 .052593 .504586
5 1 .007072 .677194 .509958
6 1 .484684 .456698 .993113
7 1 .481210 .463591 .013825
ITEM: TIMESTEP
200
ITEM: NUMBER OF ATOMS
7
ITEM: BOX BOUNDS ss ss ss
-2.9533 3.3227
-2.8675 3.2116
-2.0705 1.9010
ITEM: ATOMS id type xs ys zs
1 1 .533292 .994136 .511450
2 1 .990810 .584525 .498277
3 1 .761692 .007205 .497142
4 1 .151418 .052518 .505370
5 1 .007324 .675318 .510412
6 1 .484999 .456913 .989893
7 1 .480912 .462715 .013974
ITEM: TIMESTEP
250
ITEM: NUMBER OF ATOMS
7
ITEM: BOX BOUNDS ss ss ss
-2.9485 3.3212
-2.8692 3.2043
-2.0741 1.9106
ITEM: ATOMS id type xs ys zs
1 1 .533603 .995400 .509130
2 1 .990920 .586490 .497743
3 1 .761059 .007371 .497895
4 1 .150357 .054761 .505247
5 1 .006892 .675584 .510224
6 1 .485474 .458760 .987454
7 1 .482363 .465387 .013249
ITEM: TIMESTEP
300
ITEM: NUMBER OF ATOMS
7
ITEM: BOX BOUNDS ss ss ss
-2.9494 3.3249
-2.8703 3.2087
-2.0702 1.9101
ITEM: ATOMS id type xs ys zs
1 1 .530663 .995427 .508142
2 1 .991977 .586769 .496538
3 1 .758915 .007771 .492471
4 1 .148393 .053520 .502573
5 1 .006565 .674313 .510268
6 1 .486710 .458237 .989096
7 1 .480992 .464429 .013008
ITEM: TIMESTEP
350
ITEM: NUMBER OF ATOMS
7
ITEM: BOX BOUNDS ss ss ss
-2.9523 3.3213
-2.8718 3.2167
-2.0656 1.9133
ITEM: ATOMS id type xs ys zs
1 1 .534800 .992472 .508944
2 1 .993564 .583326 .495291
3 1 .758737 .007599 .495283
4 1 .148470 .054732 .501202
5 1 .009499 .670828 .510143
6 1 .488612 .457758 .990395
7 1 .481463 .462666 .012443
ITEM: TIMESTEP
400
ITEM: NUMBER OF ATOMS
7
ITEM: BOX BOUNDS ss ss ss
-2.9509 3.3187
-2.8781 3.2221
-2.0685 1.9136
ITEM: ATOMS id type xs ys zs
1 1 .530887 .993234 .506126
2 1 .991861 .586003 .494587
3 1 .760627 .008359 .494004
4 1 .149602 .056267 .502062
5 1 .006189 .669917 .507899
6 1 .488643 .459930 .989633
7 1 .481613 .464947 .011586
ITEM: TIMESTEP
1
ITEM: NUMBER OF ATOMS
7
ITEM: BOX BOUNDS ss ss ss
-2.9485 3.3068
-2.8584 3.2046
-2.0416 1.8979
ITEM: ATOMS id type xs ys zs
1 1 .540048 .990572 .507575
2 1 .991310 .580807 .495786
3 1 .766437 .006056 .494808
4 1 .151101 .052211 .506026
5 1 .006306 .677659 .507157
6 1 .482708 .454442 .985492
7 1 .481232 .465334 .004383
ITEM: TIMESTEP
50
ITEM: NUMBER OF ATOMS
7
ITEM: BOX BOUNDS ss ss ss
-2.9485 3.3068
-2.8584 3.2046
-2.0541 1.8979
ITEM: ATOMS id type xs ys zs
1 1 .539887 .991685 .509972
2 1 .992856 .580838 .499513
3 1 .765604 .006019 .495986
4 1 .150396 .051492 .509300
5 1 .006788 .675156 .508247
6 1 .484198 .454347 .990615
7 1 .480458 .463601 .008160
ITEM: TIMESTEP
100
ITEM: NUMBER OF ATOMS
7
ITEM: BOX BOUNDS ss ss ss
-2.9485 3.3068
-2.8593 3.2046
-2.0620 1.8979
ITEM: ATOMS id type xs ys zs
1 1 .539443 .991124 .508718
2 1 .993468 .582593 .497217
3 1 .764807 .005970 .497226
4 1 .148749 .051534 .510809
5 1 .006922 .674439 .510304
6 1 .485177 .455928 .992225
7 1 .481556 .462825 .007294
ITEM: TIMESTEP
150
ITEM: NUMBER OF ATOMS
7
ITEM: BOX BOUNDS ss ss ss
-2.9485 3.3091
-2.8616 3.2046
-2.0616 1.8979
ITEM: ATOMS id type xs ys zs
1 1 .539175 .992155 .510301
2 1 .993882 .582752 .499658
3 1 .764197 .005499 .494115
4 1 .149257 .051588 .507570
5 1 .006814 .674348 .509373
6 1 .486011 .456325 .992026
7 1 .481609 .462405 .010132
ITEM: TIMESTEP
200
ITEM: NUMBER OF ATOMS
7
ITEM: BOX BOUNDS ss ss ss
-2.9508 3.3186
-2.8657 3.2112
-2.0612 1.9120
ITEM: ATOMS id type xs ys zs
1 1 .539672 .991175 .507763
2 1 .993814 .581523 .497093
3 1 .761712 .006262 .491103
4 1 .149202 .053357 .507555
5 1 .007256 .672290 .507590
6 1 .486973 .458239 .990186
7 1 .481249 .461907 .012634
ITEM: TIMESTEP
250
ITEM: NUMBER OF ATOMS
7
ITEM: BOX BOUNDS ss ss ss
-2.9485 3.3179
-2.8744 3.2127
-2.0661 1.9074
ITEM: ATOMS id type xs ys zs
1 1 .537165 .991135 .507464
2 1 .992337 .584081 .499228
3 1 .758712 .006869 .493637
4 1 .147958 .055928 .507727
5 1 .005428 .672938 .511151
6 1 .488144 .459081 .992506
7 1 .480257 .461954 .016476
ITEM: TIMESTEP
300
ITEM: NUMBER OF ATOMS
7
ITEM: BOX BOUNDS ss ss ss
-2.9485 3.3142
-2.8779 3.2188
-2.0672 1.9131
ITEM: ATOMS id type xs ys zs
1 1 .535328 .990761 .506739
2 1 .993927 .583335 .499030
3 1 .759118 .006179 .492895
4 1 .147400 .056317 .507468
5 1 .006453 .672351 .512065
6 1 .488224 .459301 .990652
7 1 .480174 .461622 .018349
ITEM: TIMESTEP
350
ITEM: NUMBER OF ATOMS
7
ITEM: BOX BOUNDS ss ss ss
-2.9494 3.3237
-2.8774 3.2118
-2.0636 1.9121
ITEM: ATOMS id type xs ys zs
1 1 .533453 .993461 .503519
2 1 .990941 .583464 .499744
3 1 .757923 .004981 .491914
4 1 .148785 .056378 .507041
5 1 .007217 .673621 .512892
6 1 .489492 .459168 .990491
7 1 .481092 .462845 .015459
ITEM: TIMESTEP
400
ITEM: NUMBER OF ATOMS
7
ITEM: BOX BOUNDS ss ss ss
-2.9503 3.3298
-2.8868 3.2187
-2.0638 1.9180
ITEM: ATOMS id type xs ys zs
1 1 .532437 .992287 .505606
2 1 .990959 .584297 .499497
3 1 .756353 .007128 .491161
4 1 .147429 .057647 .505684
5 1 .007899 .672942 .511434
6 1 .487897 .460033 .989543
7 1 .480674 .463314 .014172
ITEM: TIMESTEP
1
ITEM: NUMBER OF ATOMS
7
ITEM: BOX BOUNDS ss ss ss
-2.9267 3.2989
-2.8690 3.1958
-2.0283 1.9027
ITEM: ATOMS id type xs ys zs
1 1 .539054 .992072 .505354
2 1 .992560 .582381 .493348
3 1 .766623 .007860 .492552
4 1 .148357 .053981 .503715
5 1 .002792 .679177 .504721
6 1 .481509 .456020 .984141
7 1 .480028 .466889 .000925
ITEM: TIMESTEP
50
ITEM: NUMBER OF ATOMS
7
ITEM: BOX BOUNDS ss ss ss
-2.9375 3.2989
-2.8690 3.1958
-2.0559 1.9027
ITEM: ATOMS id type xs ys zs
1 1 .541180 .992697 .508776
2 1 .994024 .581312 .496349
3 1 .765906 .007188 .494362
4 1 .149600 .055816 .505372
5 1 .004957 .676926 .508578
6 1 .483993 .457339 .986983
7 1 .480128 .465984 .007392
ITEM: TIMESTEP
100
ITEM: NUMBER OF ATOMS
7
ITEM: BOX BOUNDS ss ss ss
-2.9464 3.2989
-2.8690 3.1958
-2.0654 1.9027
ITEM: ATOMS id type xs ys zs
1 1 .536892 .993946 .509160
2 1 .996783 .585634 .498491
3 1 .766607 .006044 .495287
4 1 .151264 .052428 .507066
5 1 .005824 .677545 .507115
6 1 .483923 .458924 .986330
7 1 .484033 .464494 .012814
ITEM: TIMESTEP
150
ITEM: NUMBER OF ATOMS
7
ITEM: BOX BOUNDS ss ss ss
-2.9476 3.3026
-2.8690 3.1989
-2.0623 1.9027
ITEM: ATOMS id type xs ys zs
1 1 .537324 .992502 .507755
2 1 .996051 .583951 .497445
3 1 .765700 .006560 .495264
4 1 .150737 .053243 .504270
5 1 .006487 .677537 .505707
6 1 .484745 .458687 .987540
7 1 .483093 .463685 .009973
ITEM: TIMESTEP
200
ITEM: NUMBER OF ATOMS
7
ITEM: BOX BOUNDS ss ss ss
-2.9492 3.3080
-2.8695 3.2005
-2.0569 1.9089
ITEM: ATOMS id type xs ys zs
1 1 .536097 .996682 .509576
2 1 .994048 .585858 .498566
3 1 .761959 .007147 .496634
4 1 .150056 .053083 .501301
5 1 .009085 .679280 .501333
6 1 .484731 .458378 .985371
7 1 .482616 .464319 .008545
ITEM: TIMESTEP
250
ITEM: NUMBER OF ATOMS
7
ITEM: BOX BOUNDS ss ss ss
-2.9531 3.3198
-2.8718 3.2085
-2.0694 1.9027
ITEM: ATOMS id type xs ys zs
1 1 .535561 .996643 .510213
2 1 .992270 .586811 .497591
3 1 .761096 .006363 .497032
4 1 .149738 .053086 .502458
5 1 .009096 .676913 .502288
6 1 .484758 .459526 .985645
7 1 .483279 .463342 .014431
ITEM: TIMESTEP
300
ITEM: NUMBER OF ATOMS
7
ITEM: BOX BOUNDS ss ss ss
-2.9552 3.3187
-2.8779 3.2236
-2.0605 1.9073
ITEM: ATOMS id type xs ys zs
1 1 .533664 .991950 .506571
2 1 .992432 .585564 .494493
3 1 .766244 .007304 .498326
4 1 .152245 .053464 .504945
5 1 .009193 .670818 .499845
6 1 .486742 .461055 .989373
7 1 .483014 .460498 .012080
ITEM: TIMESTEP
350
ITEM: NUMBER OF ATOMS
7
ITEM: BOX BOUNDS ss ss ss
-2.9568 3.3215
-2.8754 3.2284
-2.0616 1.9027
ITEM: ATOMS id type xs ys zs
1 1 .533296 .990661 .504462
2 1 .992478 .585657 .494275
3 1 .764987 .007292 .499214
4 1 .153250 .052157 .505440
5 1 .009082 .670119 .502795
6 1 .487860 .459423 .991590
7 1 .483090 .459193 .013832
ITEM: TIMESTEP
400
ITEM: NUMBER OF ATOMS
7
ITEM: BOX BOUNDS ss ss ss
-2.9523 3.3132
-2.8803 3.2404
-2.0636 1.9095
ITEM: ATOMS id type xs ys zs
1 1 .531212 .990227 .505215
2 1 .992811 .583584 .491048
3 1 .764041 .006689 .501346
4 1 .153127 .053272 .503540
5 1 .007826 .668589 .500948
6 1 .486920 .460408 .990245
7 1 .484367 .459482 .012216
ITEM: TIMESTEP
1
ITEM: NUMBER OF ATOMS
7
ITEM: BOX BOUNDS ss ss ss
-2.9322 3.2967
-2.8812 3.2128
-2.0377 1.9026
ITEM: ATOMS id type xs ys zs
1 1 .539705 .989259 .506528
2 1 .992840 .581603 .494580
3 1 .767113 .009822 .493732
4 1 .149162 .055703 .505008
5 1 .003679 .677972 .506067
6 1 .482114 .455828 .984176
7 1 .480681 .466688 .003348
ITEM: TIMESTEP
50
ITEM: NUMBER OF ATOMS
7
ITEM: BOX BOUNDS ss ss ss
-2.9414 3.2967
-2.8812 3.2128
-2.0547 1.9026
ITEM: ATOMS id type xs ys zs
1 1 .540323 .990211 .508018
2 1 .993739 .582182 .496782
3 1 .767206 .010301 .496077
4 1 .150156 .055978 .508419
5 1 .005079 .676476 .506947
6 1 .483174 .457054 .989012
7 1 .481524 .465739 .007374
ITEM: TIMESTEP
100
ITEM: NUMBER OF ATOMS
7
ITEM: BOX BOUNDS ss ss ss
-2.9510 3.2967
-2.8812 3.2128
-2.0596 1.9026
ITEM: ATOMS id type xs ys zs
1 1 .538338 .990252 .507377
2 1 .994774 .582483 .496204
3 1 .766926 .008167 .495015
4 1 .149744 .055370 .506396
5 1 .008160 .677947 .506635
6 1 .483999 .458099 .988002
7 1 .480722 .464776 .010724
ITEM: TIMESTEP
150
ITEM: NUMBER OF ATOMS
7
ITEM: BOX BOUNDS ss ss ss
-2.9651 3.3060
-2.8812 3.2128
-2.0591 1.9026
ITEM: ATOMS id type xs ys zs
1 1 .540063 .992808 .510841
2 1 .994287 .583203 .495580
3 1 .767939 .006864 .495466
4 1 .155194 .054792 .504113
5 1 .006670 .676688 .509275
6 1 .486951 .457710 .990176
7 1 .481927 .463824 .011508
ITEM: TIMESTEP
200
ITEM: NUMBER OF ATOMS
7
ITEM: BOX BOUNDS ss ss ss
-2.9582 3.3111
-2.8812 3.2128
-2.0582 1.9026
ITEM: ATOMS id type xs ys zs
1 1 .536064 .991871 .507450
2 1 .991394 .581955 .501093
3 1 .765960 .006401 .494204
4 1 .152115 .054807 .502294
5 1 .007962 .678869 .510068
6 1 .485503 .457574 .991726
7 1 .481146 .463047 .009939
ITEM: TIMESTEP
250
ITEM: NUMBER OF ATOMS
7
ITEM: BOX BOUNDS ss ss ss
-2.9598 3.3220
-2.8812 3.2228
-2.0659 1.9097
ITEM: ATOMS id type xs ys zs
1 1 .535504 .990117 .506595
2 1 .990162 .582037 .500007
3 1 .762081 .007105 .494887
4 1 .151787 .056251 .503918
5 1 .007486 .677388 .509450
6 1 .484749 .456707 .990695
7 1 .482321 .460551 .011936
ITEM: TIMESTEP
300
ITEM: NUMBER OF ATOMS
7
ITEM: BOX BOUNDS ss ss ss
-2.9570 3.3235
-2.8860 3.2128
-2.0667 1.9095
ITEM: ATOMS id type xs ys zs
1 1 .533995 .991977 .504729
2 1 .991612 .583600 .501613
3 1 .763240 .007042 .494637
4 1 .152800 .054720 .501646
5 1 .009993 .676021 .508858
6 1 .485952 .458018 .987771
7 1 .481008 .462109 .009455
ITEM: TIMESTEP
350
ITEM: NUMBER OF ATOMS
7
ITEM: BOX BOUNDS ss ss ss
-2.9511 3.3085
-2.8833 3.2128
-2.0678 1.9135
ITEM: ATOMS id type xs ys zs
1 1 .536522 .992268 .508197
2 1 .993217 .580818 .503892
3 1 .762934 .005405 .494585
4 1 .150658 .057692 .502962
5 1 .008342 .677309 .510142
6 1 .486424 .457509 .990515
7 1 .483264 .460846 .013027
ITEM: TIMESTEP
400
ITEM: NUMBER OF ATOMS
7
ITEM: BOX BOUNDS ss ss ss
-2.9569 3.3194
-2.8963 3.2128
-2.0696 1.9159
ITEM: ATOMS id type xs ys zs
1 1 .531901 .992540 .501437
2 1 .992598 .586467 .498183
3 1 .764415 .009187 .494578
4 1 .149513 .058753 .498347
5 1 .008104 .673516 .508614
6 1 .486473 .459954 .984156
7 1 .482014 .462227 .010415
ITEM: TIMESTEP
1
ITEM: NUMBER OF ATOMS
7
ITEM: BOX BOUNDS ss ss ss
-2.9326 3.2967
-2.8812 3.2128
-2.0571 1.9026
ITEM: ATOMS id type xs ys zs
1 1 .539737 .989275 .508948
2 1 .992848 .581599 .497063
3 1 .767117 .009789 .496195
4 1 .149177 .055697 .507399
5 1 .003756 .677984 .508455
6 1 .482145 .455845 .984266
7 1 .480710 .466662 .008256
ITEM: TIMESTEP
50
ITEM: NUMBER OF ATOMS
7
ITEM: BOX BOUNDS ss ss ss
-2.9417 3.2967
-2.8812 3.2128
-2.0571 1.9026
ITEM: ATOMS id type xs ys zs
1 1 .539662 .989717 .509488
2 1 .993213 .581704 .498112
3 1 .766640 .008654 .495326
4 1 .150180 .056126 .505957
5 1 .004886 .677668 .509445
6 1 .484097 .455895 .985335
7 1 .481382 .466147 .007608
ITEM: TIMESTEP
100
ITEM: NUMBER OF ATOMS
7
ITEM: BOX BOUNDS ss ss ss
-2.9539 3.2967
-2.8812 3.2128
-2.0664 1.9026
ITEM: ATOMS id type xs ys zs
1 1 .537468 .989594 .512129
2 1 .993909 .579519 .498280
3 1 .765906 .008117 .496586
4 1 .147735 .055911 .508305
5 1 .006472 .676058 .510706
6 1 .483461 .454983 .986456
7 1 .482264 .463796 .009240
ITEM: TIMESTEP
150
ITEM: NUMBER OF ATOMS
7
ITEM: BOX BOUNDS ss ss ss
-2.9497 3.3051
-2.8812 3.2128
-2.0755 1.9026
ITEM: ATOMS id type xs ys zs
1 1 .538277 .991315 .512458
2 1 .993424 .581979 .499372
3 1 .763475 .005470 .494406
4 1 .146087 .055562 .504407
5 1 .008009 .676476 .512391
6 1 .483661 .455412 .983735
7 1 .479315 .464546 .010631
ITEM: TIMESTEP
200
ITEM: NUMBER OF ATOMS
7
ITEM: BOX BOUNDS ss ss ss
-2.9579 3.3065
-2.8812 3.2128
-2.0838 1.9026
ITEM: ATOMS id type xs ys zs
1 1 .537317 .991732 .512350
2 1 .992697 .581066 .501351
3 1 .764467 .007494 .495481
4 1 .149623 .056652 .506240
5 1 .008345 .676487 .515716
6 1 .484455 .456283 .988866
7 1 .480659 .465242 .013538
ITEM: TIMESTEP
250
ITEM: NUMBER OF ATOMS
7
ITEM: BOX BOUNDS ss ss ss
-2.9572 3.3225
-2.8812 3.2128
-2.0780 1.9026
ITEM: ATOMS id type xs ys zs
1 1 .535362 .992102 .514254
2 1 .989140 .579815 .500376
3 1 .759729 .006167 .494259
4 1 .146858 .055518 .505184
5 1 .005927 .675252 .509843
6 1 .483614 .457102 .991664
7 1 .477576 .463116 .011884
ITEM: TIMESTEP
300
ITEM: NUMBER OF ATOMS
7
ITEM: BOX BOUNDS ss ss ss
-2.9720 3.3169
-2.8819 3.2128
-2.0731 1.9091
ITEM: ATOMS id type xs ys zs
1 1 .538513 .991277 .512033
2 1 .991066 .580875 .494128
3 1 .761017 .007701 .491473
4 1 .148680 .056163 .504988
5 1 .008430 .674685 .506526
6 1 .483413 .459176 .989150
7 1 .482443 .460876 .011378
ITEM: TIMESTEP
350
ITEM: NUMBER OF ATOMS
7
ITEM: BOX BOUNDS ss ss ss
-2.9589 3.3215
-2.8923 3.2128
-2.0745 1.9092
ITEM: ATOMS id type xs ys zs
1 1 .536333 .992583 .510705
2 1 .987896 .582308 .499394
3 1 .757432 .009860 .492840
4 1 .148720 .056679 .500348
5 1 .008142 .676877 .504276
6 1 .481175 .460319 .995766
7 1 .480282 .465576 .009146
ITEM: TIMESTEP
400
ITEM: NUMBER OF ATOMS
7
ITEM: BOX BOUNDS ss ss ss
-2.9704 3.3211
-2.8908 3.2184
-2.0693 1.9099
ITEM: ATOMS id type xs ys zs
1 1 .538314 .989537 .510949
2 1 .990526 .579950 .496725
3 1 .757344 .007755 .499372
4 1 .149791 .054788 .502934
5 1 .007656 .672875 .509731
6 1 .484316 .459072 .987459
7 1 .480554 .462913 .014199
ITEM: TIMESTEP
1
ITEM: NUMBER OF ATOMS
7
ITEM: BOX BOUNDS ss ss ss
-2.9439 3.3013
-2.8691 3.2049
-2.0521 1.8849
ITEM: ATOMS id type xs ys zs
1 1 .540195 .990530 .510697
2 1 .992181 .581529 .498724
3 1 .766982 .007879 .497762
4 1 .150616 .053838 .509099
5 1 .005623 .678174 .510172
6 1 .482748 .455313 .988759
7 1 .481321 .466170 .006981
ITEM: TIMESTEP
50
ITEM: NUMBER OF ATOMS
7
ITEM: BOX BOUNDS ss ss ss
-2.9439 3.3013
-2.8691 3.2049
-2.0583 1.8849
ITEM: ATOMS id type xs ys zs
1 1 .539682 .990953 .511742
2 1 .992542 .581735 .499169
3 1 .765052 .007480 .498659
4 1 .149935 .053150 .509197
5 1 .005555 .677760 .510571
6 1 .482747 .455863 .989680
7 1 .482061 .465041 .009670
ITEM: TIMESTEP
100
ITEM: NUMBER OF ATOMS
7
ITEM: BOX BOUNDS ss ss ss
-2.9491 3.3013
-2.8691 3.2049
-2.0692 1.8849
ITEM: ATOMS id type xs ys zs
1 1 .537855 .991568 .513199
2 1 .992528 .580405 .501881
3 1 .765067 .006530 .499419
4 1 .151577 .054137 .507961
5 1 .005779 .679111 .511243
6 1 .482388 .455997 .994212
7 1 .484016 .466593 .008299
ITEM: TIMESTEP
150
ITEM: NUMBER OF ATOMS
7
ITEM: BOX BOUNDS ss ss ss
-2.9562 3.3062
-2.8743 3.2062
-2.0713 1.8889
ITEM: ATOMS id type xs ys zs
1 1 .541588 .993069 .515742
2 1 .995083 .581424 .508455
3 1 .764001 .007341 .502364
4 1 .150502 .054032 .508881
5 1 .007669 .678829 .515211
6 1 .485813 .456653 .992995
7 1 .482590 .462131 .011141
ITEM: TIMESTEP
200
ITEM: NUMBER OF ATOMS
7
ITEM: BOX BOUNDS ss ss ss
-2.9590 3.3048
-2.8747 3.2060
-2.0825 1.8933
ITEM: ATOMS id type xs ys zs
1 1 .540179 .993415 .515881
2 1 .993791 .583305 .506300
3 1 .765375 .008792 .501099
4 1 .151268 .055140 .507142
5 1 .008065 .678973 .517210
6 1 .485921 .457397 .990455
7 1 .481133 .462265 .015798
ITEM: TIMESTEP
250
ITEM: NUMBER OF ATOMS
7
ITEM: BOX BOUNDS ss ss ss
-2.9625 3.3192
-2.8736 3.2089
-2.0797 1.8997
ITEM: ATOMS id type xs ys zs
1 1 .538529 .994662 .516218
2 1 .989586 .582966 .502386
3 1 .763556 .009577 .495584
4 1 .150247 .054467 .504815
5 1 .008448 .678119 .512720
6 1 .485142 .456959 .987948
7 1 .478911 .466151 .015301
ITEM: TIMESTEP
300
ITEM: NUMBER OF ATOMS
7
ITEM: BOX BOUNDS ss ss ss
-2.9657 3.3207
-2.8782 3.2124
-2.0863 1.9028
ITEM: ATOMS id type xs ys zs
1 1 .539460 .992962 .516602
2 1 .991856 .582027 .501194
3 1 .763884 .008483 .494575
4 1 .150680 .055929 .506802
5 1 .011887 .678230 .512593
6 1 .486796 .455634 .988364
7 1 .479509 .465027 .015366
ITEM: TIMESTEP
350
ITEM: NUMBER OF ATOMS
7
ITEM: BOX BOUNDS ss ss ss
-2.9672 3.3293
-2.8777 3.2241
-2.0759 1.9039
ITEM: ATOMS id type xs ys zs
1 1 .538018 .991824 .518056
2 1 .991982 .581850 .500339
3 1 .761991 .009182 .494489
4 1 .152311 .057139 .505549
5 1 .012137 .677153 .511321
6 1 .486570 .454807 .988781
7 1 .479938 .463728 .013959
ITEM: TIMESTEP
400
ITEM: NUMBER OF ATOMS
7
ITEM: BOX BOUNDS ss ss ss
-2.9672 3.3256
-2.8816 3.2207
-2.0735 1.9055
ITEM: ATOMS id type xs ys zs
1 1 .538264 .991648 .517928
2 1 .992284 .582716 .497977
3 1 .763038 .009972 .495012
4 1 .151997 .057682 .503792
5 1 .011197 .678274 .511463
6 1 .488530 .456458 .987483
7 1 .482579 .464656 .010858
ITEM: TIMESTEP
1
ITEM: NUMBER OF ATOMS
7
ITEM: BOX BOUNDS ss ss ss
-2.9439 3.3013
-2.8763 3.2049
-2.0521 1.8959
ITEM: ATOMS id type xs ys zs
1 1 .540131 .990553 .509188
2 1 .992139 .582026 .497292
3 1 .766986 .009033 .496441
4 1 .150628 .055044 .507670
5 1 .005504 .678597 .508711
6 1 .482730 .456024 .985935
7 1 .481284 .466830 .007041
ITEM: TIMESTEP
50
ITEM: NUMBER OF ATOMS
7
ITEM: BOX BOUNDS ss ss ss
-2.9439 3.3013
-2.8763 3.2049
-2.0553 1.8959
ITEM: ATOMS id type xs ys zs
1 1 .540630 .990866 .507986
2 1 .993410 .582432 .497248
3 1 .765818 .008632 .496056
4 1 .150060 .056358 .507881
5 1 .005748 .678581 .510101
6 1 .483114 .457038 .986985
7 1 .479992 .465393 .008052
ITEM: TIMESTEP
100
ITEM: NUMBER OF ATOMS
7
ITEM: BOX BOUNDS ss ss ss
-2.9544 3.3013
-2.8763 3.2049
-2.0733 1.8959
ITEM: ATOMS id type xs ys zs
1 1 .540548 .991962 .510611
2 1 .991908 .584254 .499140
3 1 .765980 .008214 .495760
4 1 .152510 .053938 .509627
5 1 .007575 .679320 .512989
6 1 .484763 .455869 .991745
7 1 .480710 .466040 .016208
ITEM: TIMESTEP
150
ITEM: NUMBER OF ATOMS
7
ITEM: BOX BOUNDS ss ss ss
-2.9597 3.3085
-2.8763 3.2049
-2.0678 1.8959
ITEM: ATOMS id type xs ys zs
1 1 .542245 .991241 .512151
2 1 .993886 .579280 .496116
3 1 .765228 .008006 .493106
4 1 .152662 .054784 .507634
5 1 .010596 .680779 .512064
6 1 .486112 .456801 .989504
7 1 .482396 .466481 .009483
ITEM: TIMESTEP
200
ITEM: NUMBER OF ATOMS
7
ITEM: BOX BOUNDS ss ss ss
-2.9631 3.3073
-2.8763 3.2064
-2.0776 1.8959
ITEM: ATOMS id type xs ys zs
1 1 .537890 .989668 .512503
2 1 .991785 .581792 .499375
3 1 .762670 .008653 .493588
4 1 .151833 .050918 .507899
5 1 .008998 .679131 .515240
6 1 .484197 .456283 .994423
7 1 .480301 .462063 .012070
ITEM: TIMESTEP
250
ITEM: NUMBER OF ATOMS
7
ITEM: BOX BOUNDS ss ss ss
-2.9662 3.3136
-2.8763 3.2121
-2.0693 1.9067
ITEM: ATOMS id type xs ys zs
1 1 .538456 .991994 .503399
2 1 .995470 .584059 .498325
3 1 .767278 .007307 .497587
4 1 .152599 .052790 .504096
5 1 .013959 .676900 .507314
6 1 .486857 .458168 .983972
7 1 .484856 .464321 .012165
ITEM: TIMESTEP
300
ITEM: NUMBER OF ATOMS
7
ITEM: BOX BOUNDS ss ss ss
-2.9648 3.3117
-2.8725 3.2242
-2.0742 1.9103
ITEM: ATOMS id type xs ys zs
1 1 .537593 .987650 .514497
2 1 .991821 .579434 .496146
3 1 .762523 .005388 .486916
4 1 .152033 .051692 .503321
5 1 .009583 .674181 .509017
6 1 .482493 .454253 .994067
7 1 .479869 .461616 .012659
ITEM: TIMESTEP
350
ITEM: NUMBER OF ATOMS
7
ITEM: BOX BOUNDS ss ss ss
-2.9560 3.3102
-2.8694 3.2359
-2.0668 1.9184
ITEM: ATOMS id type xs ys zs
1 1 .536336 .986625 .512212
2 1 .990402 .579818 .491795
3 1 .762057 .008547 .490678
4 1 .152690 .051932 .503570
5 1 .008880 .672504 .514710
6 1 .486070 .455517 .992800
7 1 .478816 .461624 .007829
ITEM: TIMESTEP
400
ITEM: NUMBER OF ATOMS
7
ITEM: BOX BOUNDS ss ss ss
-2.9593 3.3196
-2.8738 3.2285
-2.0687 1.9250
ITEM: ATOMS id type xs ys zs
1 1 .534733 .988783 .512639
2 1 .989685 .580838 .491174
3 1 .759673 .007380 .491799
4 1 .152894 .054205 .503238
5 1 .010836 .673118 .511021
6 1 .484603 .457216 .990641
7 1 .477841 .462106 .011569
ITEM: TIMESTEP
1
ITEM: NUMBER OF ATOMS
7
ITEM: BOX BOUNDS ss ss ss
-2.9375 3.2917
-2.8594 3.1951
-2.0554 1.9142
ITEM: ATOMS id type xs ys zs
1 1 .540532 .992150 .507297
2 1 .993662 .581805 .495408
3 1 .767934 .006283 .494594
4 1 .149989 .052483 .505705
5 1 .004516 .678811 .506798
6 1 .482929 .455246 .981389
7 1 .481473 .466143 .007788
ITEM: TIMESTEP
50
ITEM: NUMBER OF ATOMS
7
ITEM: BOX BOUNDS ss ss ss
-2.9422 3.2917
-2.8594 3.1951
-2.0554 1.9142
ITEM: ATOMS id type xs ys zs
1 1 .539815 .992409 .507101
2 1 .994241 .580123 .497674
3 1 .767936 .002300 .492262
4 1 .149723 .053528 .506618
5 1 .002653 .678916 .507399
6 1 .483289 .456318 .984648
7 1 .482203 .464317 .009936
ITEM: TIMESTEP
100
ITEM: NUMBER OF ATOMS
7
ITEM: BOX BOUNDS ss ss ss
-2.9516 3.2921
-2.8667 3.1951
-2.0674 1.9142
ITEM: ATOMS id type xs ys zs
1 1 .540791 .994062 .511404
2 1 .993735 .584329 .494778
3 1 .767531 .005713 .496110
4 1 .150980 .054801 .503286
5 1 .007382 .679852 .508577
6 1 .484720 .454798 .987114
7 1 .480464 .465155 .010730
ITEM: TIMESTEP
150
ITEM: NUMBER OF ATOMS
7
ITEM: BOX BOUNDS ss ss ss
-2.9580 3.2972
-2.8705 3.1951
-2.0700 1.9142
ITEM: ATOMS id type xs ys zs
1 1 .541082 .992949 .510634
2 1 .993229 .585367 .496341
3 1 .766008 .007052 .497724
4 1 .150314 .054734 .501758
5 1 .008296 .680046 .506197
6 1 .486465 .454090 .989040
7 1 .482112 .464722 .011799
ITEM: TIMESTEP
200
ITEM: NUMBER OF ATOMS
7
ITEM: BOX BOUNDS ss ss ss
-2.9588 3.2938
-2.8819 3.1973
-2.0689 1.9142
ITEM: ATOMS id type xs ys zs
1 1 .539661 .995889 .509024
2 1 .993389 .584972 .495434
3 1 .767701 .007516 .495073
4 1 .150011 .055694 .503850
5 1 .009113 .683470 .508136
6 1 .486137 .459408 .993115
7 1 .480813 .465164 .014959
ITEM: TIMESTEP
250
ITEM: NUMBER OF ATOMS
7
ITEM: BOX BOUNDS ss ss ss
-2.9556 3.2947
-2.8867 3.2023
-2.0724 1.9161
ITEM: ATOMS id type xs ys zs
1 1 .540879 .992486 .509719
2 1 .995710 .585687 .497472
3 1 .767067 .010036 .495044
4 1 .149525 .054299 .499002
5 1 .009786 .679919 .508646
6 1 .486409 .455320 .989781
7 1 .482430 .463887 .010511
ITEM: TIMESTEP
300
ITEM: NUMBER OF ATOMS
7
ITEM: BOX BOUNDS ss ss ss
-2.9510 3.2983
-2.8784 3.2187
-2.0708 1.9142
ITEM: ATOMS id type xs ys zs
1 1 .538102 .992560 .512213
2 1 .993497 .581925 .493438
3 1 .765680 .008447 .493060
4 1 .151195 .057468 .504307
5 1 .006449 .680535 .505694
6 1 .484880 .457074 .991552
7 1 .482292 .463984 .014884
ITEM: TIMESTEP
350
ITEM: NUMBER OF ATOMS
7
ITEM: BOX BOUNDS ss ss ss
-2.9607 3.3062
-2.8852 3.2154
-2.0775 1.9172
ITEM: ATOMS id type xs ys zs
1 1 .539317 .993362 .511109