ITEM: TIMESTEP
1
ITEM: NUMBER OF ATOMS
7
ITEM: BOX BOUNDS ss ss ss
-2.9136 3.2550
-2.8247 3.1505
-2.0281 1.8430
ITEM: ATOMS id type xs ys zs
1 1 .542064 .999361 .513094
2 1 .999429 .583666 .500968
3 1 .771699 .000624 .500155
4 1 .147637 .047362 .511689
5 1 .000683 .682067 .512648
6 1 .483693 .455348 .999055
7 1 .482337 .466592 .000967
ITEM: TIMESTEP
50
ITEM: NUMBER OF ATOMS
7
ITEM: BOX BOUNDS ss ss ss
-2.9377 3.2813
-2.8556 3.1757
-2.0553 1.8660
ITEM: ATOMS id type xs ys zs
1 1 .541523 .995682 .513665
2 1 .995827 .583431 .501586
3 1 .769507 .005410 .500591
4 1 .150099 .051602 .511723
5 1 .004262 .681119 .512997
6 1 .483641 .456475 .993948
7 1 .481880 .467176 .007308
ITEM: TIMESTEP
100
ITEM: NUMBER OF ATOMS
7
ITEM: BOX BOUNDS ss ss ss
-2.9452 3.2997
-2.8624 3.1851
-2.0637 1.8818
ITEM: ATOMS id type xs ys zs
1 1 .539906 .994906 .513282
2 1 .994258 .582924 .500238
3 1 .766888 .005494 .499444
4 1 .149919 .051670 .509342
5 1 .004986 .680387 .511823
6 1 .483016 .457170 .991834
7 1 .480170 .466731 .009795
ITEM: TIMESTEP
150
ITEM: NUMBER OF ATOMS
7
ITEM: BOX BOUNDS ss ss ss
-2.9562 3.3078
-2.8686 3.1991
-2.0707 1.8902
ITEM: ATOMS id type xs ys zs
1 1 .539701 .993288 .513111
2 1 .993537 .581888 .499619
3 1 .765527 .006075 .499287
4 1 .150996 .052351 .508172
5 1 .006656 .678789 .511452
6 1 .483820 .457246 .990881
7 1 .480272 .465554 .012437
ITEM: TIMESTEP
200
ITEM: NUMBER OF ATOMS
7
ITEM: BOX BOUNDS ss ss ss
-2.9592 3.3109
-2.8749 3.2015
-2.0664 1.9009
ITEM: ATOMS id type xs ys zs
1 1 .539257 .993527 .510769
2 1 .993486 .582234 .497213
3 1 .764455 .006969 .497443
4 1 .151029 .053449 .505915
5 1 .007359 .678237 .510042
6 1 .484627 .458278 .989253
7 1 .480355 .465076 .012588
ITEM: TIMESTEP
250
ITEM: NUMBER OF ATOMS
7
ITEM: BOX BOUNDS ss ss ss
-2.9599 3.3222
-2.8862 3.2153
-2.0611 1.9088
ITEM: ATOMS id type xs ys zs
1 1 .537964 .991756 .508411
2 1 .991751 .581952 .495647
3 1 .762399 .008739 .495530
4 1 .150628 .055493 .504082
5 1 .007788 .676899 .508815
6 1 .484535 .458584 .988467
7 1 .479817 .464523 .012052
ITEM: TIMESTEP
300
ITEM: NUMBER OF ATOMS
7
ITEM: BOX BOUNDS ss ss ss
-2.9579 3.3222
-2.8825 3.2141
-2.0613 1.9152
ITEM: ATOMS id type xs ys zs
1 1 .537399 .992451 .507283
2 1 .991614 .582059 .494905
3 1 .761612 .008030 .494338
4 1 .150261 .055279 .503002
5 1 .007782 .676629 .508196
6 1 .484792 .458661 .987695
7 1 .480024 .464234 .012544
ITEM: TIMESTEP
350
ITEM: NUMBER OF ATOMS
7
ITEM: BOX BOUNDS ss ss ss
-2.9620 3.3198
-2.8876 3.2181
-2.0597 1.9219
ITEM: ATOMS id type xs ys zs
1 1 .537306 .992228 .506341
2 1 .991719 .582224 .493971
3 1 .761197 .008753 .493359
4 1 .150872 .056344 .501753
5 1 .008769 .675996 .507409
6 1 .485797 .459272 .986888
7 1 .480862 .464313 .012101
ITEM: TIMESTEP
400
ITEM: NUMBER OF ATOMS
7
ITEM: BOX BOUNDS ss ss ss
-2.9576 3.3202
-2.8905 3.2217
-2.0614 1.9258
ITEM: ATOMS id type xs ys zs
1 1 .536474 .991717 .505999
2 1 .991548 .582111 .493642
3 1 .760132 .009048 .493143
4 1 .150164 .057067 .501247
5 1 .008405 .675005 .507638
6 1 .485851 .459566 .986660
7 1 .480770 .464146 .012235
ITEM: TIMESTEP
1
ITEM: NUMBER OF ATOMS
7
ITEM: BOX BOUNDS ss ss ss
-2.9324 3.2912
-2.8621 3.2059
-2.0416 1.9227
ITEM: ATOMS id type xs ys zs
1 1 .540296 .990250 .504438
2 1 .993622 .580914 .492599
3 1 .767902 .006786 .491800
4 1 .149345 .052810 .503070
5 1 .003684 .677810 .504000
6 1 .482432 .454558 .978973
7 1 .481094 .465633 .004347
ITEM: TIMESTEP
50
ITEM: NUMBER OF ATOMS
7
ITEM: BOX BOUNDS ss ss ss
-2.9376 3.2912
-2.8621 3.2059
-2.0600 1.9227
ITEM: ATOMS id type xs ys zs
1 1 .540769 .990562 .506821
2 1 .993968 .580900 .494927
3 1 .768529 .006667 .494163
4 1 .149941 .052358 .505227
5 1 .004238 .678191 .506245
6 1 .482731 .454634 .979741
7 1 .481154 .465519 .008323
ITEM: TIMESTEP
100
ITEM: NUMBER OF ATOMS
7
ITEM: BOX BOUNDS ss ss ss
-2.9488 3.2912
-2.8621 3.2059
-2.0662 1.9227
ITEM: ATOMS id type xs ys zs
1 1 .541078 .991316 .507980
2 1 .994820 .581090 .496079
3 1 .768881 .006347 .494514
4 1 .151113 .051721 .505032
5 1 .005968 .678573 .506852
6 1 .483925 .455131 .981201
7 1 .481501 .464572 .009246
ITEM: TIMESTEP
150
ITEM: NUMBER OF ATOMS
7
ITEM: BOX BOUNDS ss ss ss
-2.9525 3.3033
-2.8718 3.2059
-2.0816 1.9227
ITEM: ATOMS id type xs ys zs
1 1 .539908 .992131 .510647
2 1 .993799 .582036 .497432
3 1 .767283 .007543 .495896
4 1 .151240 .052881 .505847
5 1 .006532 .679116 .507925
6 1 .483824 .456676 .981693
7 1 .480916 .464387 .013822
ITEM: TIMESTEP
200
ITEM: NUMBER OF ATOMS
7
ITEM: BOX BOUNDS ss ss ss
-2.9550 3.3078
-2.8737 3.2059
-2.0710 1.9227
ITEM: ATOMS id type xs ys zs
1 1 .537461 .992263 .511537
2 1 .993690 .582543 .495936
3 1 .765896 .008001 .495142
4 1 .150815 .053372 .503218
5 1 .006173 .677953 .505385
6 1 .484306 .457245 .982893
7 1 .481218 .464352 .012327
ITEM: TIMESTEP
250
ITEM: NUMBER OF ATOMS
7
ITEM: BOX BOUNDS ss ss ss
-2.9652 3.3134
-2.8712 3.2097
-2.0641 1.9227
ITEM: ATOMS id type xs ys zs
1 1 .535955 .991722 .512202
2 1 .992963 .582735 .495530
3 1 .764826 .007811 .494845
4 1 .151591 .053171 .501406
5 1 .007462 .675985 .503917
6 1 .485051 .456932 .984511
7 1 .481754 .463826 .011719
ITEM: TIMESTEP
300
ITEM: NUMBER OF ATOMS
7
ITEM: BOX BOUNDS ss ss ss
-2.9626 3.3117
-2.8735 3.2059
-2.0594 1.9227
ITEM: ATOMS id type xs ys zs
1 1 .534445 .992721 .512010
2 1 .993074 .583984 .494222
3 1 .764380 .007954 .493628
4 1 .151385 .053138 .499763
5 1 .006956 .674634 .503145
6 1 .485590 .457850 .985465
7 1 .482105 .463741 .011210
ITEM: TIMESTEP
350
ITEM: NUMBER OF ATOMS
7
ITEM: BOX BOUNDS ss ss ss
-2.9629 3.3098
-2.8700 3.2059
-2.0681 1.9227
ITEM: ATOMS id type xs ys zs
1 1 .533266 .993081 .513057
2 1 .992921 .584488 .493913
3 1 .763661 .006860 .494100
4 1 .151831 .052529 .500664
5 1 .007084 .672949 .503141
6 1 .486373 .457910 .986464
7 1 .482774 .463150 .013401
ITEM: TIMESTEP
400
ITEM: NUMBER OF ATOMS
7
ITEM: BOX BOUNDS ss ss ss
-2.9601 3.3113
-2.8797 3.2173
-2.0609 1.9126
ITEM: ATOMS id type xs ys zs
1 1 .531867 .991723 .513522
2 1 .992061 .584907 .493067
3 1 .762330 .008128 .494419
4 1 .151451 .054331 .501201
5 1 .006745 .671199 .502031
6 1 .486420 .458290 .989849
7 1 .482756 .463011 .011552
ITEM: TIMESTEP
1
ITEM: NUMBER OF ATOMS
7
ITEM: BOX BOUNDS ss ss ss
-2.9485 3.2795
-2.8584 3.2011
-2.0416 1.8947
ITEM: ATOMS id type xs ys zs
1 1 .542499 .991017 .508034
2 1 .995495 .581112 .496105
3 1 .769944 .006188 .495303
4 1 .151829 .052272 .506657
5 1 .006271 .678144 .507592
6 1 .484678 .454579 .985938
7 1 .483337 .465674 .004387
ITEM: TIMESTEP
50
ITEM: NUMBER OF ATOMS
7
ITEM: BOX BOUNDS ss ss ss
-2.9485 3.2804
-2.8584 3.2011
-2.0547 1.8947
ITEM: ATOMS id type xs ys zs
1 1 .542536 .991263 .509798
2 1 .995680 .581107 .497842
3 1 .770241 .006066 .496914
4 1 .151581 .051753 .508079
5 1 .005938 .678585 .509168
6 1 .484454 .454655 .986471
7 1 .482858 .465504 .007179
ITEM: TIMESTEP
100
ITEM: NUMBER OF ATOMS
7
ITEM: BOX BOUNDS ss ss ss
-2.9485 3.2971
-2.8584 3.2011
-2.0678 1.8947
ITEM: ATOMS id type xs ys zs
1 1 .540790 .991955 .512077
2 1 .994114 .581329 .499487
3 1 .767703 .005523 .498690
4 1 .150201 .050752 .507802
5 1 .005946 .678796 .510603
6 1 .483500 .454937 .988337
7 1 .480848 .464404 .010223
ITEM: TIMESTEP
150
ITEM: NUMBER OF ATOMS
7
ITEM: BOX BOUNDS ss ss ss
-2.9535 3.3109
-2.8633 3.2011
-2.0741 1.8947
ITEM: ATOMS id type xs ys zs
1 1 .539447 .992484 .513078
2 1 .992789 .581420 .500842
3 1 .765184 .005866 .499522
4 1 .150359 .051251 .506864
5 1 .007371 .678739 .511436
6 1 .483274 .455542 .989990
7 1 .479721 .463934 .011961
ITEM: TIMESTEP
200
ITEM: NUMBER OF ATOMS
7
ITEM: BOX BOUNDS ss ss ss
-2.9533 3.3227
-2.8675 3.2116
-2.0705 1.9010
ITEM: ATOMS id type xs ys zs
1 1 .537011 .991216 .511759
2 1 .992401 .581500 .498413
3 1 .762907 .007168 .497515
4 1 .149506 .051969 .503887
5 1 .007287 .677211 .508984
6 1 .483103 .455976 .990133
7 1 .479244 .462729 .012017
ITEM: TIMESTEP
250
ITEM: NUMBER OF ATOMS
7
ITEM: BOX BOUNDS ss ss ss
-2.9485 3.3212
-2.8692 3.2043
-2.0741 1.9106
ITEM: ATOMS id type xs ys zs
1 1 .536105 .992812 .510855
2 1 .993203 .583357 .496481
3 1 .762466 .007906 .496086
4 1 .148817 .052467 .502370
5 1 .006427 .678013 .507486
6 1 .483563 .457507 .988031
7 1 .479396 .463154 .014036
ITEM: TIMESTEP
300
ITEM: NUMBER OF ATOMS
7
ITEM: BOX BOUNDS ss ss ss
-2.9494 3.3249
-2.8703 3.2087
-2.0702 1.9101
ITEM: ATOMS id type xs ys zs
1 1 .535256 .992878 .510286
2 1 .992178 .583856 .495917
3 1 .761710 .008031 .495135
4 1 .149010 .052898 .502308
5 1 .006748 .677138 .507208
6 1 .483844 .457638 .988078
7 1 .479543 .463084 .013299
ITEM: TIMESTEP
350
ITEM: NUMBER OF ATOMS
7
ITEM: BOX BOUNDS ss ss ss
-2.9523 3.3213
-2.8718 3.2167
-2.0656 1.9133
ITEM: ATOMS id type xs ys zs
1 1 .534904 .992347 .509594
2 1 .991895 .583869 .494904
3 1 .761745 .008002 .493524
4 1 .149432 .053336 .501995
5 1 .007416 .675568 .506558
6 1 .484701 .457332 .987366
7 1 .480293 .462793 .012142
ITEM: TIMESTEP
400
ITEM: NUMBER OF ATOMS
7
ITEM: BOX BOUNDS ss ss ss
-2.9509 3.3187
-2.8781 3.2221
-2.0685 1.9136
ITEM: ATOMS id type xs ys zs
1 1 .534595 .991890 .510510
2 1 .991939 .584032 .495666
3 1 .761377 .008803 .493340
4 1 .148894 .054676 .502608
5 1 .007396 .674516 .507279
6 1 .485108 .457682 .987618
7 1 .480711 .463003 .012883
ITEM: TIMESTEP
1
ITEM: NUMBER OF ATOMS
7
ITEM: BOX BOUNDS ss ss ss
-2.9485 3.3068
-2.8584 3.2046
-2.0416 1.8979
ITEM: ATOMS id type xs ys zs
1 1 .540130 .990445 .507617
2 1 .991154 .580777 .495703
3 1 .766584 .006183 .494907
4 1 .151168 .052241 .506246
5 1 .006246 .677751 .507181
6 1 .482563 .454313 .985136
7 1 .481231 .465403 .004383
ITEM: TIMESTEP
50
ITEM: NUMBER OF ATOMS
7
ITEM: BOX BOUNDS ss ss ss
-2.9485 3.3068
-2.8584 3.2046
-2.0541 1.8979
ITEM: ATOMS id type xs ys zs
1 1 .540365 .990596 .509373
2 1 .991430 .580733 .497356
3 1 .767078 .006058 .496482
4 1 .151159 .051810 .507876
5 1 .005965 .678101 .508624
6 1 .482366 .454249 .985526
7 1 .480916 .465312 .006982
ITEM: TIMESTEP
100
ITEM: NUMBER OF ATOMS
7
ITEM: BOX BOUNDS ss ss ss
-2.9485 3.3068
-2.8593 3.2046
-2.0620 1.8979
ITEM: ATOMS id type xs ys zs
1 1 .539994 .991568 .511752
2 1 .992757 .581510 .499562
3 1 .766187 .006038 .497295
4 1 .150966 .051000 .508671
5 1 .006459 .677500 .509517
6 1 .483460 .454553 .988380
7 1 .480506 .464161 .009368
ITEM: TIMESTEP
150
ITEM: NUMBER OF ATOMS
7
ITEM: BOX BOUNDS ss ss ss
-2.9485 3.3091
-2.8616 3.2046
-2.0616 1.8979
ITEM: ATOMS id type xs ys zs
1 1 .539552 .992425 .511756
2 1 .992877 .582255 .498594
3 1 .765461 .006163 .497126
4 1 .150605 .050893 .507545
5 1 .006193 .678036 .509609
6 1 .483436 .455933 .989015
7 1 .479953 .463506 .009593
ITEM: TIMESTEP
200
ITEM: NUMBER OF ATOMS
7
ITEM: BOX BOUNDS ss ss ss
-2.9508 3.3186
-2.8657 3.2112
-2.0612 1.9120
ITEM: ATOMS id type xs ys zs
1 1 .538703 .991823 .509395
2 1 .992021 .581921 .495639
3 1 .763842 .006579 .495562
4 1 .150272 .050990 .504413
5 1 .006529 .677414 .507872
6 1 .483426 .456535 .986140
7 1 .479010 .462746 .010219
ITEM: TIMESTEP
250
ITEM: NUMBER OF ATOMS
7
ITEM: BOX BOUNDS ss ss ss
-2.9485 3.3179
-2.8744 3.2127
-2.0661 1.9074
ITEM: ATOMS id type xs ys zs
1 1 .538079 .991737 .510035
2 1 .992515 .582418 .496082
3 1 .763071 .007818 .496123
4 1 .149760 .051969 .504835
5 1 .006489 .676961 .508984
6 1 .483911 .457453 .988106
7 1 .478897 .462839 .012052
ITEM: TIMESTEP
300
ITEM: NUMBER OF ATOMS
7
ITEM: BOX BOUNDS ss ss ss
-2.9485 3.3142
-2.8779 3.2188
-2.0672 1.9131
ITEM: ATOMS id type xs ys zs
1 1 .537294 .990940 .509759
2 1 .992918 .582553 .496268
3 1 .762864 .008273 .493786
4 1 .149551 .052666 .504658
5 1 .006933 .675286 .508332
6 1 .484818 .457299 .987698
7 1 .479906 .462288 .012555
ITEM: TIMESTEP
350
ITEM: NUMBER OF ATOMS
7
ITEM: BOX BOUNDS ss ss ss
-2.9494 3.3237
-2.8774 3.2118
-2.0636 1.9121
ITEM: ATOMS id type xs ys zs
1 1 .535910 .992296 .509238
2 1 .991570 .583228 .496098
3 1 .761138 .007862 .492911
4 1 .149275 .052936 .504676
5 1 .007018 .674971 .508243
6 1 .484714 .458130 .988497
7 1 .479690 .462613 .012508
ITEM: TIMESTEP
400
ITEM: NUMBER OF ATOMS
7
ITEM: BOX BOUNDS ss ss ss
-2.9503 3.3298
-2.8868 3.2187
-2.0638 1.9180
ITEM: ATOMS id type xs ys zs
1 1 .534742 .991452 .507148
2 1 .991052 .583369 .496469
3 1 .759113 .008563 .491584
4 1 .148368 .055423 .504880
5 1 .006921 .673785 .508830
6 1 .485577 .458992 .987928
7 1 .479583 .462798 .014299
ITEM: TIMESTEP
1
ITEM: NUMBER OF ATOMS
7
ITEM: BOX BOUNDS ss ss ss
-2.9267 3.2989
-2.8690 3.1958
-2.0283 1.9027
ITEM: ATOMS id type xs ys zs
1 1 .539212 .991900 .505325
2 1 .992392 .582354 .493384
3 1 .766750 .007936 .492581
4 1 .148383 .053978 .503947
5 1 .002766 .679302 .504884
6 1 .481362 .455932 .983869
7 1 .480025 .467021 .000998
ITEM: TIMESTEP
50
ITEM: NUMBER OF ATOMS
7
ITEM: BOX BOUNDS ss ss ss
-2.9375 3.2989
-2.8690 3.1958
-2.0559 1.9027
ITEM: ATOMS id type xs ys zs
1 1 .540308 .991989 .509034
2 1 .992587 .582228 .497029
3 1 .767681 .007897 .496154
4 1 .149752 .053629 .507508
5 1 .004305 .679730 .508332
6 1 .481952 .455840 .984184
7 1 .480586 .467038 .007343
ITEM: TIMESTEP
100
ITEM: NUMBER OF ATOMS
7
ITEM: BOX BOUNDS ss ss ss
-2.9464 3.2989
-2.8690 3.1958
-2.0654 1.9027
ITEM: ATOMS id type xs ys zs
1 1 .540929 .992996 .510235
2 1 .993397 .582104 .498646
3 1 .767793 .007410 .497145
4 1 .151012 .053631 .507904
5 1 .005851 .679607 .508679
6 1 .482891 .456634 .986537
7 1 .480566 .466408 .009301
ITEM: TIMESTEP
150
ITEM: NUMBER OF ATOMS
7
ITEM: BOX BOUNDS ss ss ss
-2.9476 3.3026
-2.8690 3.1989
-2.0623 1.9027
ITEM: ATOMS id type xs ys zs
1 1 .538607 .993038 .509325
2 1 .994266 .584001 .497310
3 1 .767208 .007308 .497037
4 1 .151256 .051574 .506774
5 1 .006330 .678806 .506569
6 1 .483420 .457599 .986732
7 1 .481334 .464668 .010613
ITEM: TIMESTEP
200
ITEM: NUMBER OF ATOMS
7
ITEM: BOX BOUNDS ss ss ss
-2.9492 3.3080
-2.8695 3.2005
-2.0569 1.9089
ITEM: ATOMS id type xs ys zs
1 1 .537288 .993291 .508596
2 1 .994005 .584973 .495231
3 1 .766176 .007334 .495426
4 1 .151100 .050898 .504586
5 1 .006441 .678698 .503721
6 1 .483382 .457812 .985496
7 1 .481358 .463508 .009717
ITEM: TIMESTEP
250
ITEM: NUMBER OF ATOMS
7
ITEM: BOX BOUNDS ss ss ss
-2.9531 3.3198
-2.8718 3.2085
-2.0694 1.9027
ITEM: ATOMS id type xs ys zs
1 1 .536130 .992872 .511615
2 1 .992245 .585051 .497337
3 1 .764176 .007690 .497483
4 1 .151031 .051202 .505915
5 1 .007207 .678310 .504879
6 1 .483101 .457804 .987506
7 1 .480952 .462536 .013237
ITEM: TIMESTEP
300
ITEM: NUMBER OF ATOMS
7
ITEM: BOX BOUNDS ss ss ss
-2.9552 3.3187
-2.8779 3.2236
-2.0605 1.9073
ITEM: ATOMS id type xs ys zs
1 1 .535803 .991655 .510159
2 1 .992458 .584468 .495878
3 1 .763411 .008442 .495333
4 1 .150991 .052515 .502667
5 1 .008250 .677212 .501639
6 1 .483947 .457729 .986443
7 1 .481770 .461811 .011723
ITEM: TIMESTEP
350
ITEM: NUMBER OF ATOMS
7
ITEM: BOX BOUNDS ss ss ss
-2.9568 3.3215
-2.8754 3.2284
-2.0616 1.9027
ITEM: ATOMS id type xs ys zs
1 1 .535296 .991920 .510366
2 1 .991905 .584028 .496651
3 1 .763086 .007756 .495886
4 1 .150882 .052372 .502917
5 1 .008841 .676368 .501708
6 1 .484308 .457573 .987915
7 1 .482000 .461149 .012523
ITEM: TIMESTEP
400
ITEM: NUMBER OF ATOMS
7
ITEM: BOX BOUNDS ss ss ss
-2.9523 3.3132
-2.8803 3.2404
-2.0636 1.9095
ITEM: ATOMS id type xs ys zs
1 1 .535288 .990310 .508807
2 1 .993162 .583419 .495406
3 1 .764459 .008209 .495557
4 1 .150648 .053290 .502571
5 1 .008229 .674205 .501182
6 1 .485259 .457557 .986691
7 1 .482532 .460329 .013269
ITEM: TIMESTEP
1
ITEM: NUMBER OF ATOMS
7
ITEM: BOX BOUNDS ss ss ss
-2.9322 3.2967
-2.8812 3.2128
-2.0377 1.9026
ITEM: ATOMS id type xs ys zs
1 1 .539811 .989140 .506524
2 1 .992737 .581562 .494607
3 1 .767224 .009898 .493815
4 1 .149196 .055715 .505156
5 1 .003657 .678044 .506085
6 1 .481993 .455742 .983949
7 1 .480656 .466780 .003389
ITEM: TIMESTEP
50
ITEM: NUMBER OF ATOMS
7
ITEM: BOX BOUNDS ss ss ss
-2.9414 3.2967
-2.8812 3.2128
-2.0547 1.9026
ITEM: ATOMS id type xs ys zs
1 1 .540825 .989145 .508799
2 1 .992990 .581384 .496832
3 1 .768208 .009938 .496236
4 1 .150512 .055276 .507441
5 1 .004762 .678601 .508273
6 1 .482390 .455658 .984129
7 1 .481027 .466823 .007123
ITEM: TIMESTEP
100
ITEM: NUMBER OF ATOMS
7
ITEM: BOX BOUNDS ss ss ss
-2.9510 3.2967
-2.8812 3.2128
-2.0596 1.9026
ITEM: ATOMS id type xs ys zs
1 1 .541243 .990539 .509429
2 1 .994380 .581807 .496279
3 1 .769489 .008434 .496855
4 1 .152191 .054220 .507260
5 1 .005348 .679175 .508302
6 1 .484002 .456425 .986713
7 1 .479981 .465127 .009009
ITEM: TIMESTEP
150
ITEM: NUMBER OF ATOMS
7
ITEM: BOX BOUNDS ss ss ss
-2.9651 3.3060
-2.8812 3.2128
-2.0591 1.9026
ITEM: ATOMS id type xs ys zs
1 1 .541381 .991153 .509726
2 1 .993457 .582091 .495365
3 1 .769352 .007976 .495795
4 1 .154240 .053768 .506715
5 1 .007439 .679707 .508308
6 1 .484979 .456722 .987838
7 1 .480216 .464030 .009655
ITEM: TIMESTEP
200
ITEM: NUMBER OF ATOMS
7
ITEM: BOX BOUNDS ss ss ss
-2.9582 3.3111
-2.8812 3.2128
-2.0582 1.9026
ITEM: ATOMS id type xs ys zs
1 1 .539978 .991503 .509492
2 1 .992864 .582266 .495388
3 1 .768169 .008159 .495657
4 1 .153252 .053272 .505787
5 1 .006582 .679712 .508311
6 1 .484204 .457121 .988667
7 1 .479245 .463407 .010095
ITEM: TIMESTEP
250
ITEM: NUMBER OF ATOMS
7
ITEM: BOX BOUNDS ss ss ss
-2.9598 3.3220
-2.8812 3.2228
-2.0659 1.9097
ITEM: ATOMS id type xs ys zs
1 1 .537926 .990237 .509160
2 1 .990763 .581371 .496350
3 1 .766483 .007630 .495169
4 1 .152966 .053102 .504771
5 1 .007281 .678662 .508727
6 1 .483824 .456718 .987497
7 1 .478685 .462081 .012554
ITEM: TIMESTEP
300
ITEM: NUMBER OF ATOMS
7
ITEM: BOX BOUNDS ss ss ss
-2.9570 3.3235
-2.8860 3.2128
-2.0667 1.9095
ITEM: ATOMS id type xs ys zs
1 1 .535864 .991971 .508087
2 1 .989602 .582597 .499883
3 1 .764947 .007644 .494839
4 1 .152278 .054889 .503155
5 1 .007544 .680116 .510122
6 1 .483662 .457838 .988886
7 1 .479312 .462837 .012530
ITEM: TIMESTEP
350
ITEM: NUMBER OF ATOMS
7
ITEM: BOX BOUNDS ss ss ss
-2.9511 3.3085
-2.8833 3.2128
-2.0678 1.9135
ITEM: ATOMS id type xs ys zs
1 1 .536281 .991887 .506905
2 1 .991918 .582613 .500679
3 1 .765908 .007054 .494535
4 1 .151615 .054667 .501667
5 1 .007111 .679637 .509921
6 1 .484393 .457662 .988395
7 1 .480652 .462276 .012652
ITEM: TIMESTEP
400
ITEM: NUMBER OF ATOMS
7
ITEM: BOX BOUNDS ss ss ss
-2.9569 3.3194
-2.8963 3.2128
-2.0696 1.9159
ITEM: ATOMS id type xs ys zs
1 1 .535373 .991843 .505626
2 1 .990424 .583893 .500629
3 1 .764549 .009194 .494498
4 1 .151911 .056634 .501048
5 1 .008334 .679296 .509604
6 1 .484467 .458904 .987342
7 1 .480640 .463022 .012595
ITEM: TIMESTEP
1
ITEM: NUMBER OF ATOMS
7
ITEM: BOX BOUNDS ss ss ss
-2.9326 3.2967
-2.8812 3.2128
-2.0571 1.9026
ITEM: ATOMS id type xs ys zs
1 1 .539842 .989139 .508939
2 1 .992738 .581561 .497082
3 1 .767239 .009895 .496288
4 1 .149253 .055714 .507573
5 1 .003720 .678047 .508502
6 1 .482023 .455740 .984017
7 1 .480687 .466778 .008263
ITEM: TIMESTEP
50
ITEM: NUMBER OF ATOMS
7
ITEM: BOX BOUNDS ss ss ss
-2.9417 3.2967
-2.8812 3.2128
-2.0571 1.9026
ITEM: ATOMS id type xs ys zs
1 1 .540948 .989095 .509180
2 1 .992809 .581464 .497152
3 1 .768303 .009902 .496362
4 1 .150575 .055267 .507987
5 1 .004796 .678571 .508638
6 1 .482367 .455549 .983894
7 1 .481041 .466822 .007676
ITEM: TIMESTEP
100
ITEM: NUMBER OF ATOMS
7
ITEM: BOX BOUNDS ss ss ss
-2.9539 3.2967
-2.8812 3.2128
-2.0664 1.9026
ITEM: ATOMS id type xs ys zs
1 1 .541655 .989895 .511201
2 1 .993707 .581413 .498988
3 1 .769196 .009669 .496842
4 1 .152062 .054649 .508725
5 1 .006650 .679292 .510146
6 1 .483198 .456265 .986070
7 1 .481483 .466115 .008869
ITEM: TIMESTEP
150
ITEM: NUMBER OF ATOMS
7
ITEM: BOX BOUNDS ss ss ss
-2.9497 3.3051
-2.8812 3.2128
-2.0755 1.9026
ITEM: ATOMS id type xs ys zs
1 1 .540186 .990267 .512757
2 1 .992758 .581433 .500231
3 1 .767648 .009201 .497594
4 1 .150697 .054436 .509206
5 1 .006086 .679507 .511603
6 1 .482565 .456602 .986798
7 1 .479902 .465074 .010721
ITEM: TIMESTEP
200
ITEM: NUMBER OF ATOMS
7
ITEM: BOX BOUNDS ss ss ss
-2.9579 3.3065
-2.8812 3.2128
-2.0838 1.9026
ITEM: ATOMS id type xs ys zs
1 1 .539828 .990522 .513980
2 1 .993155 .581733 .500433
3 1 .766640 .008447 .497831
4 1 .150280 .054379 .508950
5 1 .007134 .678670 .512899
6 1 .483623 .456565 .986256
7 1 .479473 .464797 .013367
ITEM: TIMESTEP
250
ITEM: NUMBER OF ATOMS
7
ITEM: BOX BOUNDS ss ss ss
-2.9572 3.3225
-2.8812 3.2128
-2.0780 1.9026
ITEM: ATOMS id type xs ys zs
1 1 .537910 .991102 .513148
2 1 .990753 .581484 .500116
3 1 .764082 .007917 .495961
4 1 .148542 .054530 .506856
5 1 .006974 .677905 .512203
6 1 .482927 .456373 .986223
7 1 .477708 .464651 .012522
ITEM: TIMESTEP
300
ITEM: NUMBER OF ATOMS
7
ITEM: BOX BOUNDS ss ss ss
-2.9720 3.3169
-2.8819 3.2128
-2.0731 1.9091
ITEM: ATOMS id type xs ys zs
1 1 .539324 .991447 .511597
2 1 .991512 .581291 .498689
3 1 .764477 .007585 .494148
4 1 .150515 .054231 .504874
5 1 .009478 .678055 .510095
6 1 .484798 .456441 .985170
7 1 .479344 .464191 .011896
ITEM: TIMESTEP
350
ITEM: NUMBER OF ATOMS
7
ITEM: BOX BOUNDS ss ss ss
-2.9589 3.3215
-2.8923 3.2128
-2.0745 1.9092
ITEM: ATOMS id type xs ys zs
1 1 .537749 .991622 .512205
2 1 .990773 .581903 .497762
3 1 .762367 .009027 .494138
4 1 .148480 .055290 .504834
5 1 .007493 .678732 .509577
6 1 .483246 .457405 .985381
7 1 .478076 .464495 .013104
ITEM: TIMESTEP
400
ITEM: NUMBER OF ATOMS
7
ITEM: BOX BOUNDS ss ss ss
-2.9704 3.3211
-2.8908 3.2184
-2.0693 1.9099
ITEM: ATOMS id type xs ys zs
1 1 .538692 .991096 .511994
2 1 .991043 .581422 .496545
3 1 .762096 .008440 .493044
4 1 .150033 .054760 .503847
5 1 .009310 .678294 .508326
6 1 .484247 .456979 .985240
7 1 .479187 .463678 .012456
ITEM: TIMESTEP
1
ITEM: NUMBER OF ATOMS
7
ITEM: BOX BOUNDS ss ss ss
-2.9439 3.3013
-2.8691 3.2049
-2.0521 1.8849
ITEM: ATOMS id type xs ys zs
1 1 .540269 .990403 .510602
2 1 .992009 .581481 .498681
3 1 .767088 .007936 .497885
4 1 .150676 .053906 .509238
5 1 .005513 .678284 .510168
6 1 .482600 .455248 .988411
7 1 .481266 .466323 .007057
ITEM: TIMESTEP
50
ITEM: NUMBER OF ATOMS
7
ITEM: BOX BOUNDS ss ss ss
-2.9439 3.3013
-2.8691 3.2049
-2.0583 1.8849
ITEM: ATOMS id type xs ys zs
1 1 .540731 .990329 .511621
2 1 .992112 .581336 .499550
3 1 .767801 .007951 .498787
4 1 .150671 .053526 .510257
5 1 .005198 .678884 .510909
6 1 .482146 .455126 .988358
7 1 .480888 .466332 .008183
ITEM: TIMESTEP
100
ITEM: NUMBER OF ATOMS
7
ITEM: BOX BOUNDS ss ss ss
-2.9491 3.3013
-2.8691 3.2049
-2.0692 1.8849
ITEM: ATOMS id type xs ys zs
1 1 .541590 .991511 .513397
2 1 .993129 .581057 .500331
3 1 .768439 .007621 .500021
4 1 .151108 .052393 .510702
5 1 .005544 .679695 .512349
6 1 .482288 .455457 .989866
7 1 .480197 .465611 .010902
ITEM: TIMESTEP
150
ITEM: NUMBER OF ATOMS
7
ITEM: BOX BOUNDS ss ss ss
-2.9562 3.3062
-2.8743 3.2062
-2.0713 1.8889
ITEM: ATOMS id type xs ys zs
1 1 .541802 .992287 .513215
2 1 .992983 .581490 .500340
3 1 .768420 .007971 .499573
4 1 .151854 .051868 .509970
5 1 .006778 .680350 .511850
6 1 .482887 .456084 .988888
7 1 .479843 .465032 .011575
ITEM: TIMESTEP
200
ITEM: NUMBER OF ATOMS
7
ITEM: BOX BOUNDS ss ss ss
-2.9590 3.3048
-2.8747 3.2060
-2.0825 1.8933
ITEM: ATOMS id type xs ys zs
1 1 .541732 .992602 .514238
2 1 .993696 .582221 .502170
3 1 .768673 .008005 .499727
4 1 .152037 .051351 .509801
5 1 .007139 .680824 .512560
6 1 .483800 .456394 .988465
7 1 .480061 .464172 .014724
ITEM: TIMESTEP
250
ITEM: NUMBER OF ATOMS
7
ITEM: BOX BOUNDS ss ss ss
-2.9625 3.3192
-2.8736 3.2089
-2.0797 1.8997
ITEM: ATOMS id type xs ys zs
1 1 .540435 .992414 .513219
2 1 .992132 .582501 .501805
3 1 .767194 .007946 .497564
4 1 .152183 .050802 .507491
5 1 .007567 .680301 .511099
6 1 .483374 .456194 .987039
7 1 .479312 .463539 .014913
ITEM: TIMESTEP
300
ITEM: NUMBER OF ATOMS
7
ITEM: BOX BOUNDS ss ss ss
-2.9657 3.3207
-2.8782 3.2124
-2.0863 1.9028
ITEM: ATOMS id type xs ys zs
1 1 .540216 .992166 .514109
2 1 .992228 .582554 .502610
3 1 .767422 .008714 .496482
4 1 .153295 .051141 .506713
5 1 .007732 .680073 .512032
6 1 .483691 .456527 .986465
7 1 .479512 .463481 .017411
ITEM: TIMESTEP
350
ITEM: NUMBER OF ATOMS
7
ITEM: BOX BOUNDS ss ss ss
-2.9672 3.3293
-2.8777 3.2241
-2.0759 1.9039
ITEM: ATOMS id type xs ys zs
1 1 .538909 .990788 .512894
2 1 .990370 .581376 .501093
3 1 .765775 .008720 .494034
4 1 .153167 .051373 .505021
5 1 .008383 .678939 .510815
6 1 .483475 .455675 .986568
7 1 .478474 .462702 .014884
ITEM: TIMESTEP
400
ITEM: NUMBER OF ATOMS
7
ITEM: BOX BOUNDS ss ss ss
-2.9672 3.3256
-2.8816 3.2207
-2.0735 1.9055
ITEM: ATOMS id type xs ys zs
1 1 .539243 .992017 .513762
2 1 .990432 .582046 .500563
3 1 .765279 .009110 .491545
4 1 .151874 .053312 .504816
5 1 .009978 .679094 .510847
6 1 .484706 .455471 .987413
7 1 .478452 .463581 .014285
ITEM: TIMESTEP
1
ITEM: NUMBER OF ATOMS
7
ITEM: BOX BOUNDS ss ss ss
-2.9439 3.3013
-2.8763 3.2049
-2.0521 1.8959
ITEM: ATOMS id type xs ys zs
1 1 .540272 .990412 .509187
2 1 .992013 .581979 .497299
3 1 .767090 .009118 .496507
4 1 .150675 .055035 .507823
5 1 .005514 .678669 .508751
6 1 .482598 .455894 .985662
7 1 .481268 .466958 .007037
ITEM: TIMESTEP
50
ITEM: NUMBER OF ATOMS
7
ITEM: BOX BOUNDS ss ss ss
-2.9439 3.3013
-2.8763 3.2049
-2.0553 1.8959
ITEM: ATOMS id type xs ys zs
1 1 .540775 .990273 .509799
2 1 .992020 .581886 .497736
3 1 .767846 .009201 .497174
4 1 .150800 .054595 .508689
5 1 .005158 .679240 .509227
6 1 .482143 .455605 .985396
7 1 .480857 .467136 .007289
ITEM: TIMESTEP
100
ITEM: NUMBER OF ATOMS
7
ITEM: BOX BOUNDS ss ss ss
-2.9544 3.3013
-2.8763 3.2049
-2.0733 1.8959
ITEM: ATOMS id type xs ys zs
1 1 .541453 .990952 .512472
2 1 .993000 .581781 .499865
3 1 .768741 .008843 .499259
4 1 .152583 .053683 .510478
5 1 .006444 .680018 .511586
6 1 .482932 .455753 .987240
7 1 .481246 .466638 .010988
ITEM: TIMESTEP
150
ITEM: NUMBER OF ATOMS
7
ITEM: BOX BOUNDS ss ss ss
-2.9597 3.3085
-2.8763 3.2049
-2.0678 1.8959
ITEM: ATOMS id type xs ys zs
1 1 .541209 .991550 .511650
2 1 .992596 .582583 .499422
3 1 .767441 .008834 .496813
4 1 .153623 .052733 .508823
5 1 .007322 .681272 .510390
6 1 .482678 .456275 .988347
7 1 .481233 .466065 .010323
ITEM: TIMESTEP
200
ITEM: NUMBER OF ATOMS
7
ITEM: BOX BOUNDS ss ss ss
-2.9631 3.3073
-2.8763 3.2064
-2.0776 1.8959
ITEM: ATOMS id type xs ys zs
1 1 .541181 .991550 .512566
2 1 .993209 .583179 .501172
3 1 .766903 .008949 .497333
4 1 .153978 .051571 .509258
5 1 .007956 .681736 .511662
6 1 .482816 .456130 .990502
7 1 .480648 .465234 .014002
ITEM: TIMESTEP
250
ITEM: NUMBER OF ATOMS
7
ITEM: BOX BOUNDS ss ss ss
-2.9662 3.3136
-2.8763 3.2121
-2.0693 1.9067
ITEM: ATOMS id type xs ys zs
1 1 .540197 .990788 .510041
2 1 .991986 .582546 .499026
3 1 .765598 .008887 .494015
4 1 .153694 .051071 .505965
5 1 .008608 .681246 .510048
6 1 .482682 .455683 .988917
7 1 .479861 .463844 .012283
ITEM: TIMESTEP
300
ITEM: NUMBER OF ATOMS
7
ITEM: BOX BOUNDS ss ss ss
-2.9648 3.3117
-2.8725 3.2242
-2.0742 1.9103
ITEM: ATOMS id type xs ys zs
1 1 .539318 .988373 .510139
2 1 .991360 .580814 .498496
3 1 .764353 .008031 .492133
4 1 .152991 .049931 .504860
5 1 .009038 .679304 .510777
6 1 .482748 .454415 .989704
7 1 .479463 .461157 .013311
ITEM: TIMESTEP
350
ITEM: NUMBER OF ATOMS
7
ITEM: BOX BOUNDS ss ss ss
-2.9560 3.3102
-2.8694 3.2359
-2.0668 1.9184
ITEM: ATOMS id type xs ys zs
1 1 .538590 .986565 .508157
2 1 .991760 .579688 .496461
3 1 .764307 .007540 .489463
4 1 .151930 .049397 .502082
5 1 .007952 .677748 .507866
6 1 .482186 .453524 .988486
7 1 .478718 .459776 .011864
ITEM: TIMESTEP
400
ITEM: NUMBER OF ATOMS
7
ITEM: BOX BOUNDS ss ss ss
-2.9593 3.3196
-2.8738 3.2285
-2.0687 1.9250
ITEM: ATOMS id type xs ys zs
1 1 .537941 .988257 .508373
2 1 .990522 .580784 .495618
3 1 .763235 .008511 .488698
4 1 .152813 .050606 .501425
5 1 .008790 .677832 .507506
6 1 .482291 .455063 .987693
7 1 .478426 .461209 .012134
ITEM: TIMESTEP
1
ITEM: NUMBER OF ATOMS
7
ITEM: BOX BOUNDS ss ss ss
-2.9375 3.2917
-2.8594 3.1951
-2.0554 1.9142
ITEM: ATOMS id type xs ys zs
1 1 .540640 .991992 .507241
2 1 .993541 .581757 .495418
3 1 .768044 .006367 .494630
4 1 .150042 .052488 .505886
5 1 .004509 .678872 .506812
6 1 .482815 .455114 .981136
7 1 .481486 .466228 .007809
ITEM: TIMESTEP
50
ITEM: NUMBER OF ATOMS
7
ITEM: BOX BOUNDS ss ss ss
-2.9422 3.2917
-2.8594 3.1951
-2.0554 1.9142
ITEM: ATOMS id type xs ys zs
1 1 .541570 .991911 .507450
2 1 .993475 .581697 .495316
3 1 .769113 .006525 .494705
4 1 .150735 .052157 .506303
5 1 .004845 .679533 .506897
6 1 .482691 .454832 .980939
7 1 .481427 .466319 .007231
ITEM: TIMESTEP
100
ITEM: NUMBER OF ATOMS
7
ITEM: BOX BOUNDS ss ss ss
-2.9516 3.2921
-2.8667 3.1951
-2.0674 1.9142
ITEM: ATOMS id type xs ys zs
1 1 .541940 .992810 .509435
2 1 .993609 .582509 .496682
3 1 .769781 .006973 .496401
4 1 .151529 .053209 .506596
5 1 .006458 .680686 .508468
6 1 .483491 .455471 .982782
7 1 .480966 .466043 .009448
ITEM: TIMESTEP
150
ITEM: NUMBER OF ATOMS
7
ITEM: BOX BOUNDS ss ss ss
-2.9580 3.2972
-2.8705 3.1951
-2.0700 1.9142
ITEM: ATOMS id type xs ys zs
1 1 .541144 .993342 .510191
2 1 .992675 .583633 .496040
3 1 .769477 .007068 .497812
4 1 .152004 .053493 .504125
5 1 .007982 .681534 .508745
6 1 .483915 .454974 .984799
7 1 .479842 .465280 .009719
ITEM: TIMESTEP
200
ITEM: NUMBER OF ATOMS
7
ITEM: BOX BOUNDS ss ss ss
-2.9588 3.2938
-2.8819 3.1973
-2.0689 1.9142
ITEM: ATOMS id type xs ys zs
1 1 .541254 .993753 .510911
2 1 .993320 .584519 .495249
3 1 .769995 .008203 .497914
4 1 .151910 .055247 .501279
5 1 .008431 .682243 .508203
6 1 .484508 .455924 .986826
7 1 .479644 .465861 .009969
ITEM: TIMESTEP
250
ITEM: NUMBER OF ATOMS
7
ITEM: BOX BOUNDS ss ss ss
-2.9556 3.2947
-2.8867 3.2023
-2.0724 1.9161
ITEM: ATOMS id type xs ys zs
1 1 .540881 .993637 .511166
2 1 .993292 .584579 .494757
3 1 .769640 .009153 .497160
4 1 .151603 .056011 .501530
5 1 .007727 .682965 .508656
6 1 .484047 .457125 .987664
7 1 .479535 .465851 .012512
ITEM: TIMESTEP
300
ITEM: NUMBER OF ATOMS
7
ITEM: BOX BOUNDS ss ss ss
-2.9510 3.2983
-2.8784 3.2187
-2.0708 1.9142
ITEM: ATOMS id type xs ys zs
1 1 .539851 .991347 .511024
2 1 .992782 .582345 .494280
3 1 .768660 .007842 .496780
4 1 .151237 .054532 .501276
5 1 .007209 .681755 .508711
6 1 .483439 .455894 .988859
7 1 .479123 .463836 .013565
ITEM: TIMESTEP
350
ITEM: NUMBER OF ATOMS
7
ITEM: BOX BOUNDS ss ss ss
-2.9607 3.3062
-2.8852 3.2154
-2.0775 1.9172
ITEM: ATOMS id type xs ys zs
1 1 .539798 .992081 .511264