ITEM: TIMESTEP
1
ITEM: NUMBER OF ATOMS
7
ITEM: BOX BOUNDS ss ss ss
-2.9986 3.1743
-2.5110 3.3531
-2.1153 1.8771
ITEM: ATOMS id type xs ys zs
1 1 .505455 .999410 .482109
2 1 .999375 .614361 .514808
3 1 .795499 .000571 .471549
4 1 .176485 .012011 .529379
5 1 .000588 .630277 .520455
6 1 .503327 .451808 .998858
7 1 .489234 .447288 .001031
ITEM: TIMESTEP
50
ITEM: NUMBER OF ATOMS
7
ITEM: BOX BOUNDS ss ss ss
-3.0191 3.1968
-2.5333 3.3771
-2.1405 1.9024
ITEM: ATOMS id type xs ys zs
1 1 .505424 .996263 .483298
2 1 .996865 .615194 .510972
3 1 .794107 .002827 .475129
4 1 .179646 .012865 .528900
5 1 .004842 .628996 .520575
6 1 .502472 .450779 .991249
7 1 .488191 .447774 .011347
ITEM: TIMESTEP
100
ITEM: NUMBER OF ATOMS
7
ITEM: BOX BOUNDS ss ss ss
-3.0295 3.2073
-2.5430 3.3834
-2.1470 1.9107
ITEM: ATOMS id type xs ys zs
1 1 .506041 .996998 .483665
2 1 .994722 .615127 .511463
3 1 .792414 .004586 .475569
4 1 .181381 .015456 .528161
5 1 .005626 .629618 .517892
6 1 .502623 .453144 .989416
7 1 .489892 .448665 .012897
ITEM: TIMESTEP
150
ITEM: NUMBER OF ATOMS
7
ITEM: BOX BOUNDS ss ss ss
-3.0326 3.2107
-2.5543 3.3897
-2.1468 1.9173
ITEM: ATOMS id type xs ys zs
1 1 .505706 .994645 .484895
2 1 .991892 .614972 .507722
3 1 .792153 .004517 .475620
4 1 .182229 .015765 .527509
5 1 .007271 .630201 .521226
6 1 .502249 .451731 .988044
7 1 .490036 .448842 .014764
ITEM: TIMESTEP
200
ITEM: NUMBER OF ATOMS
7
ITEM: BOX BOUNDS ss ss ss
-3.0384 3.2227
-2.5559 3.4013
-2.1506 1.9169
ITEM: ATOMS id type xs ys zs
1 1 .504676 .994802 .482699
2 1 .992508 .612224 .505413
3 1 .790800 .005092 .477921
4 1 .183156 .016689 .527156
5 1 .008441 .628623 .515263
6 1 .504775 .452140 .989177
7 1 .490524 .447393 .016223
ITEM: TIMESTEP
250
ITEM: NUMBER OF ATOMS
7
ITEM: BOX BOUNDS ss ss ss
-3.0399 3.2300
-2.5631 3.4029
-2.1523 1.9108
ITEM: ATOMS id type xs ys zs
1 1 .505089 .994734 .484603
2 1 .991043 .611402 .507458
3 1 .789965 .005775 .480507
4 1 .182759 .018479 .528034
5 1 .008846 .628932 .520530
6 1 .502879 .452860 .989559
7 1 .489573 .448135 .018045
ITEM: TIMESTEP
300
ITEM: NUMBER OF ATOMS
7
ITEM: BOX BOUNDS ss ss ss
-3.0499 3.2305
-2.5560 3.4094
-2.1437 1.9120
ITEM: ATOMS id type xs ys zs
1 1 .505300 .992843 .483705
2 1 .990868 .611267 .503731
3 1 .790415 .005603 .480730
4 1 .185452 .016065 .528295
5 1 .008445 .626467 .514809
6 1 .504480 .452538 .988744
7 1 .490126 .447829 .015265
ITEM: TIMESTEP
350
ITEM: NUMBER OF ATOMS
7
ITEM: BOX BOUNDS ss ss ss
-3.0567 3.2410
-2.5664 3.4141
-2.1368 1.9127
ITEM: ATOMS id type xs ys zs
1 1 .505900 .991841 .483010
2 1 .990032 .608606 .501901
3 1 .790339 .006302 .479611
4 1 .186700 .017973 .525291
5 1 .010212 .626572 .516165
6 1 .503787 .453325 .988918
7 1 .489898 .448030 .015569
ITEM: TIMESTEP
400
ITEM: NUMBER OF ATOMS
7
ITEM: BOX BOUNDS ss ss ss
-3.0375 3.2325
-2.5736 3.4242
-2.1309 1.9081
ITEM: ATOMS id type xs ys zs
1 1 .505861 .989922 .484063
2 1 .990846 .608228 .501550
3 1 .791213 .007375 .480266
4 1 .183257 .018327 .524275
5 1 .005188 .625185 .515112
6 1 .501919 .452727 .988201
7 1 .488682 .448981 .013754
ITEM: TIMESTEP
1
ITEM: NUMBER OF ATOMS
7
ITEM: BOX BOUNDS ss ss ss
-3.0379 3.2215
-2.5751 3.4043
-2.1154 1.9035
ITEM: ATOMS id type xs ys zs
1 1 .504752 .990856 .478953
2 1 .991838 .613224 .511440
3 1 .790786 .011270 .468469
4 1 .180329 .022482 .525908
5 1 .006862 .628823 .517046
6 1 .502652 .453805 .992290
7 1 .488759 .449374 .001052
ITEM: TIMESTEP
50
ITEM: NUMBER OF ATOMS
7
ITEM: BOX BOUNDS ss ss ss
-3.0379 3.2215
-2.5751 3.4043
-2.1430 1.9002
ITEM: ATOMS id type xs ys zs
1 1 .504742 .990692 .484343
2 1 .991501 .613296 .513878
3 1 .791324 .011879 .473895
4 1 .181361 .020853 .528383
5 1 .006542 .628499 .518802
6 1 .501801 .453967 .992079
7 1 .488911 .450092 .009682
ITEM: TIMESTEP
100
ITEM: NUMBER OF ATOMS
7
ITEM: BOX BOUNDS ss ss ss
-3.0379 3.2215
-2.5751 3.4043
-2.1504 1.9077
ITEM: ATOMS id type xs ys zs
1 1 .502961 .991999 .483106
2 1 .991787 .614358 .508210
3 1 .790727 .011888 .473550
4 1 .181743 .021811 .530009
5 1 .005528 .629733 .521700
6 1 .503405 .454454 .986516
7 1 .489558 .452628 .010589
ITEM: TIMESTEP
150
ITEM: NUMBER OF ATOMS
7
ITEM: BOX BOUNDS ss ss ss
-3.0422 3.2181
-2.5751 3.4043
-2.1530 1.9175
ITEM: ATOMS id type xs ys zs
1 1 .502992 .994650 .480920
2 1 .991761 .613816 .507577
3 1 .791645 .011200 .474179
4 1 .184031 .019872 .527732
5 1 .008238 .628776 .521808
6 1 .503312 .454219 .985200
7 1 .490602 .452208 .012824
ITEM: TIMESTEP
200
ITEM: NUMBER OF ATOMS
7
ITEM: BOX BOUNDS ss ss ss
-3.0398 3.2147
-2.5751 3.4039
-2.1482 1.9234
ITEM: ATOMS id type xs ys zs
1 1 .505464 .991165 .480362
2 1 .994802 .612628 .507624
3 1 .792952 .009810 .476547
4 1 .183516 .021956 .522598
5 1 .003889 .632504 .518400
6 1 .503926 .455396 .986191
7 1 .488475 .449046 .016518
ITEM: TIMESTEP
250
ITEM: NUMBER OF ATOMS
7
ITEM: BOX BOUNDS ss ss ss
-3.0499 3.2238
-2.5629 3.4039
-2.1459 1.9190
ITEM: ATOMS id type xs ys zs
1 1 .501779 .994773 .482184
2 1 .989057 .614172 .506535
3 1 .792578 .008936 .475514
4 1 .182864 .016164 .523594
5 1 .006120 .630604 .517587
6 1 .500650 .450412 .982449
7 1 .488553 .450861 .015857
ITEM: TIMESTEP
300
ITEM: NUMBER OF ATOMS
7
ITEM: BOX BOUNDS ss ss ss
-3.0550 3.2237
-2.5688 3.4056
-2.1523 1.9132
ITEM: ATOMS id type xs ys zs
1 1 .501079 .993313 .486593
2 1 .989758 .612773 .505884
3 1 .793166 .010115 .477732
4 1 .182940 .017128 .524303
5 1 .005789 .630842 .519497
6 1 .500529 .450812 .983926
7 1 .487783 .450757 .017366
ITEM: TIMESTEP
350
ITEM: NUMBER OF ATOMS
7
ITEM: BOX BOUNDS ss ss ss
-3.0565 3.2212
-2.5682 3.4116
-2.1392 1.9065
ITEM: ATOMS id type xs ys zs
1 1 .502556 .995932 .484591
2 1 .990319 .613550 .505794
3 1 .793454 .006544 .477535
4 1 .183460 .018126 .523177
5 1 .007599 .629961 .517638
6 1 .501569 .451832 .986521
7 1 .490156 .452796 .018338
ITEM: TIMESTEP
400
ITEM: NUMBER OF ATOMS
7
ITEM: BOX BOUNDS ss ss ss
-3.0582 3.2295
-2.5581 3.4138
-2.1411 1.9091
ITEM: ATOMS id type xs ys zs
1 1 .501096 .993991 .486655
2 1 .988079 .610743 .503028
3 1 .791408 .005636 .479577
4 1 .184034 .014655 .527531
5 1 .007280 .625992 .521292
6 1 .500950 .450927 .984197
7 1 .489589 .450166 .016309
ITEM: TIMESTEP
1
ITEM: NUMBER OF ATOMS
7
ITEM: BOX BOUNDS ss ss ss
-3.0501 3.2114
-2.5559 3.4131
-2.1318 1.8937
ITEM: ATOMS id type xs ys zs
1 1 .506525 .989376 .482245
2 1 .993444 .611078 .514668
3 1 .792462 .008063 .471777
4 1 .182224 .019308 .529111
5 1 .008806 .626708 .520265
6 1 .504428 .451386 .994719
7 1 .490532 .446948 .005115
ITEM: TIMESTEP
50
ITEM: NUMBER OF ATOMS
7
ITEM: BOX BOUNDS ss ss ss
-3.0501 3.2114
-2.5559 3.4131
-2.1389 1.9049
ITEM: ATOMS id type xs ys zs
1 1 .506541 .990160 .482908
2 1 .993327 .610942 .511467
3 1 .792281 .007813 .472969
4 1 .182616 .018633 .528345
5 1 .009191 .628094 .519757
6 1 .504288 .451356 .991580
7 1 .490461 .447901 .008654
ITEM: TIMESTEP
100
ITEM: NUMBER OF ATOMS
7
ITEM: BOX BOUNDS ss ss ss
-3.0501 3.2134
-2.5559 3.4131
-2.1496 1.9156
ITEM: ATOMS id type xs ys zs
1 1 .506406 .990664 .485075
2 1 .993746 .610785 .512387
3 1 .791972 .007662 .473032
4 1 .182179 .019285 .525916
5 1 .008602 .629964 .519831
6 1 .503730 .449364 .989336
7 1 .490805 .448346 .013470
ITEM: TIMESTEP
150
ITEM: NUMBER OF ATOMS
7
ITEM: BOX BOUNDS ss ss ss
-3.0501 3.2121
-2.5559 3.4131
-2.1487 1.9155
ITEM: ATOMS id type xs ys zs
1 1 .507021 .991236 .482514
2 1 .993582 .610116 .509614
3 1 .791192 .008258 .475824
4 1 .181800 .019323 .522808
5 1 .009219 .628075 .519926
6 1 .502570 .451623 .989064
7 1 .490952 .447608 .013465
ITEM: TIMESTEP
200
ITEM: NUMBER OF ATOMS
7
ITEM: BOX BOUNDS ss ss ss
-3.0501 3.2200
-2.5559 3.4131
-2.1548 1.9296
ITEM: ATOMS id type xs ys zs
1 1 .507167 .992372 .477981
2 1 .992413 .609970 .507534
3 1 .791146 .007720 .479920
4 1 .183983 .016070 .523386
5 1 .009876 .624808 .516200
6 1 .501783 .450741 .988649
7 1 .490726 .445560 .017408
ITEM: TIMESTEP
250
ITEM: NUMBER OF ATOMS
7
ITEM: BOX BOUNDS ss ss ss
-3.0501 3.2248
-2.5583 3.4131
-2.1446 1.9224
ITEM: ATOMS id type xs ys zs
1 1 .506406 .992979 .482993
2 1 .989088 .609452 .513445
3 1 .791736 .005702 .477847
4 1 .180205 .020405 .520514
5 1 .009924 .632896 .515707
6 1 .499909 .451605 .986456
7 1 .489186 .448729 .014165
ITEM: TIMESTEP
300
ITEM: NUMBER OF ATOMS
7
ITEM: BOX BOUNDS ss ss ss
-3.0501 3.2318
-2.5666 3.4131
-2.1520 1.9242
ITEM: ATOMS id type xs ys zs
1 1 .501129 .989523 .483596
2 1 .991215 .609727 .505453
3 1 .791312 .007473 .473473
4 1 .184936 .015724 .525787
5 1 .005875 .622217 .512800
6 1 .500064 .451703 .981395
7 1 .486547 .447817 .012637
ITEM: TIMESTEP
350
ITEM: NUMBER OF ATOMS
7
ITEM: BOX BOUNDS ss ss ss
-3.0436 3.2388
-2.5676 3.4214
-2.1479 1.9274
ITEM: ATOMS id type xs ys zs
1 1 .500590 .987443 .483203
2 1 .988943 .607478 .500307
3 1 .790911 .006698 .470631
4 1 .183889 .015994 .526025
5 1 .005628 .622826 .512202
6 1 .499890 .450686 .979518
7 1 .486124 .447240 .011904
ITEM: TIMESTEP
400
ITEM: NUMBER OF ATOMS
7
ITEM: BOX BOUNDS ss ss ss
-3.0553 3.2340
-2.5693 3.4046
-2.1539 1.9170
ITEM: ATOMS id type xs ys zs
1 1 .503250 .991727 .485542
2 1 .989889 .608551 .500745
3 1 .790091 .006341 .475279
4 1 .185437 .017043 .528603
5 1 .008368 .626258 .515169
6 1 .501211 .453091 .983912
7 1 .487948 .448518 .015079
ITEM: TIMESTEP
1
ITEM: NUMBER OF ATOMS
7
ITEM: BOX BOUNDS ss ss ss
-3.0514 3.2042
-2.5756 3.4026
-2.1435 1.9266
ITEM: ATOMS id type xs ys zs
1 1 .507206 .991134 .479827
2 1 .994585 .613427 .511910
3 1 .793409 .011358 .469478
4 1 .182595 .022580 .526190
5 1 .009021 .629033 .517440
6 1 .505107 .453989 .986717
7 1 .491204 .449546 .007928
ITEM: TIMESTEP
50
ITEM: NUMBER OF ATOMS
7
ITEM: BOX BOUNDS ss ss ss
-3.0514 3.2042
-2.5756 3.4026
-2.1435 1.9266
ITEM: ATOMS id type xs ys zs
1 1 .507246 .991410 .479776
2 1 .995109 .612843 .509888
3 1 .793376 .011318 .470087
4 1 .182445 .021669 .524951
5 1 .008906 .629889 .516594
6 1 .504835 .453404 .985688
7 1 .490923 .450161 .009294
ITEM: TIMESTEP
100
ITEM: NUMBER OF ATOMS
7
ITEM: BOX BOUNDS ss ss ss
-3.0514 3.2079
-2.5756 3.4026
-2.1484 1.9266
ITEM: ATOMS id type xs ys zs
1 1 .506646 .991098 .479931
2 1 .994397 .613688 .509674
3 1 .793121 .009468 .474962
4 1 .183629 .020078 .524688
5 1 .010566 .631305 .517748
6 1 .504403 .452654 .986147
7 1 .489665 .448269 .013920
ITEM: TIMESTEP
150
ITEM: NUMBER OF ATOMS
7
ITEM: BOX BOUNDS ss ss ss
-3.0514 3.2146
-2.5711 3.4026
-2.1523 1.9266
ITEM: ATOMS id type xs ys zs
1 1 .506863 .991905 .482213
2 1 .993527 .614177 .507203
3 1 .794062 .009218 .475129
4 1 .182593 .019239 .525258
5 1 .010009 .630634 .514306
6 1 .503551 .452867 .987192
7 1 .490273 .447810 .014061
ITEM: TIMESTEP
200
ITEM: NUMBER OF ATOMS
7
ITEM: BOX BOUNDS ss ss ss
-3.0514 3.2200
-2.5711 3.4026
-2.1552 1.9266
ITEM: ATOMS id type xs ys zs
1 1 .506629 .991811 .480804
2 1 .993272 .610265 .509864
3 1 .791369 .010762 .475095
4 1 .180978 .021460 .526661
5 1 .006815 .632361 .512997
6 1 .500711 .453337 .982415
7 1 .489642 .449160 .015024
ITEM: TIMESTEP
250
ITEM: NUMBER OF ATOMS
7
ITEM: BOX BOUNDS ss ss ss
-3.0548 3.2215
-2.5711 3.4062
-2.1584 1.9287
ITEM: ATOMS id type xs ys zs
1 1 .507135 .988734 .480113
2 1 .993485 .610803 .505560
3 1 .791062 .008418 .476259
4 1 .183858 .021191 .526828
5 1 .006270 .631374 .517770
6 1 .501471 .454299 .983888
7 1 .489093 .447691 .016217
ITEM: TIMESTEP
300
ITEM: NUMBER OF ATOMS
7
ITEM: BOX BOUNDS ss ss ss
-3.0514 3.2218
-2.5711 3.4038
-2.1478 1.9266
ITEM: ATOMS id type xs ys zs
1 1 .505826 .989441 .480531
2 1 .991639 .609653 .507936
3 1 .790695 .008062 .476961
4 1 .183439 .019715 .525504
5 1 .005536 .632120 .513096
6 1 .500139 .455462 .982686
7 1 .489673 .447207 .016953
ITEM: TIMESTEP
350
ITEM: NUMBER OF ATOMS
7
ITEM: BOX BOUNDS ss ss ss
-3.0586 3.2330
-2.5711 3.4143
-2.1537 1.9153
ITEM: ATOMS id type xs ys zs
1 1 .506774 .990753 .480646
2 1 .991034 .610578 .505411
3 1 .791760 .008432 .474571
4 1 .185068 .020690 .527430
5 1 .005912 .632151 .515878
6 1 .500154 .454370 .982288
7 1 .488558 .448642 .017220
ITEM: TIMESTEP
400
ITEM: NUMBER OF ATOMS
7
ITEM: BOX BOUNDS ss ss ss
-3.0554 3.2272
-2.5650 3.4097
-2.1540 1.9159
ITEM: ATOMS id type xs ys zs
1 1 .508323 .991255 .482544
2 1 .992612 .612090 .505632
3 1 .790075 .009564 .477974
4 1 .185373 .017986 .522676
5 1 .007771 .628588 .516522
6 1 .501999 .453395 .984640
7 1 .487306 .449598 .013212
ITEM: TIMESTEP
1
ITEM: NUMBER OF ATOMS
7
ITEM: BOX BOUNDS ss ss ss
-3.0514 3.2263
-2.5706 3.4030
-2.1438 1.9099
ITEM: ATOMS id type xs ys zs
1 1 .505432 .991063 .481844
2 1 .991100 .613062 .514016
3 1 .790632 .010529 .471450
4 1 .181963 .021762 .528381
5 1 .008991 .628681 .519609
6 1 .503344 .453504 .990768
7 1 .489481 .449056 .008032
ITEM: TIMESTEP
50
ITEM: NUMBER OF ATOMS
7
ITEM: BOX BOUNDS ss ss ss
-3.0514 3.2263
-2.5706 3.4030
-2.1459 1.9060
ITEM: ATOMS id type xs ys zs
1 1 .506354 .991140 .482864
2 1 .992219 .612883 .511364
3 1 .790656 .010744 .475410
4 1 .183350 .020849 .528885
5 1 .009383 .629836 .519787
6 1 .501838 .452462 .992379
7 1 .489792 .450259 .012245
ITEM: TIMESTEP
100
ITEM: NUMBER OF ATOMS
7
ITEM: BOX BOUNDS ss ss ss
-3.0514 3.2263
-2.5706 3.4030
-2.1629 1.9132
ITEM: ATOMS id type xs ys zs
1 1 .506165 .991472 .482672
2 1 .992913 .613139 .514373
3 1 .791716 .010464 .476931
4 1 .183175 .021058 .525597
5 1 .010054 .629822 .519367
6 1 .502778 .452791 .987898
7 1 .491572 .449370 .013891
ITEM: TIMESTEP
150
ITEM: NUMBER OF ATOMS
7
ITEM: BOX BOUNDS ss ss ss
-3.0507 3.2263
-2.5706 3.4030
-2.1588 1.9236
ITEM: ATOMS id type xs ys zs
1 1 .506331 .993171 .481954
2 1 .991802 .613760 .512080
3 1 .793186 .010983 .476507
4 1 .183379 .019388 .523224
5 1 .010013 .630174 .518286
6 1 .502828 .452556 .983173
7 1 .491323 .450477 .011943
ITEM: TIMESTEP
200
ITEM: NUMBER OF ATOMS
7
ITEM: BOX BOUNDS ss ss ss
-3.0498 3.2229
-2.5706 3.4030
-2.1567 1.9238
ITEM: ATOMS id type xs ys zs
1 1 .507740 .994353 .482327
2 1 .992197 .612475 .510707
3 1 .794757 .011861 .475717
4 1 .184232 .019497 .522096
5 1 .010123 .630223 .520777
6 1 .504289 .453059 .981555
7 1 .490729 .450377 .014148
ITEM: TIMESTEP
250
ITEM: NUMBER OF ATOMS
7
ITEM: BOX BOUNDS ss ss ss
-3.0498 3.2230
-2.5572 3.4030
-2.1546 1.9308
ITEM: ATOMS id type xs ys zs
1 1 .505800 .993167 .487699
2 1 .992989 .612409 .508215
3 1 .792035 .007906 .474615
4 1 .182824 .015116 .523127
5 1 .008581 .627985 .519773
6 1 .504830 .451314 .980149
7 1 .491361 .448207 .015378
ITEM: TIMESTEP
300
ITEM: NUMBER OF ATOMS
7
ITEM: BOX BOUNDS ss ss ss
-3.0498 3.2185
-2.5637 3.4059
-2.1576 1.9283
ITEM: ATOMS id type xs ys zs
1 1 .505291 .994427 .490415
2 1 .993226 .614083 .508209
3 1 .794715 .009325 .475264
4 1 .184638 .018177 .525454
5 1 .007077 .626975 .520297
6 1 .507203 .449933 .979104
7 1 .490981 .449894 .017208
ITEM: TIMESTEP
350
ITEM: NUMBER OF ATOMS
7
ITEM: BOX BOUNDS ss ss ss
-3.0425 3.2259
-2.5590 3.4142
-2.1571 1.9249
ITEM: ATOMS id type xs ys zs
1 1 .503603 .993028 .490350
2 1 .993422 .613365 .511282
3 1 .793935 .007445 .476651
4 1 .182943 .016485 .523527
5 1 .006218 .626723 .519626
6 1 .504203 .449263 .981862
7 1 .490555 .448255 .017485
ITEM: TIMESTEP
400
ITEM: NUMBER OF ATOMS
7
ITEM: BOX BOUNDS ss ss ss
-3.0504 3.2282
-2.5690 3.4114
-2.1501 1.9328
ITEM: ATOMS id type xs ys zs
1 1 .506313 .993746 .484105
2 1 .992723 .612506 .503814
3 1 .791352 .008062 .476331
4 1 .184677 .018216 .521502
5 1 .008852 .627602 .521193
6 1 .505817 .453095 .979629
7 1 .490764 .452095 .016795
ITEM: TIMESTEP
1
ITEM: NUMBER OF ATOMS
7
ITEM: BOX BOUNDS ss ss ss
-3.0376 3.2260
-2.5638 3.4119
-2.1394 1.9075
ITEM: ATOMS id type xs ys zs
1 1 .504361 .989583 .481573
2 1 .991116 .611707 .513811
3 1 .790192 .009381 .471161
4 1 .180158 .020613 .528188
5 1 .006802 .627320 .519400
6 1 .502265 .452197 .991341
7 1 .488382 .447757 .006982
ITEM: TIMESTEP
50
ITEM: NUMBER OF ATOMS
7
ITEM: BOX BOUNDS ss ss ss
-3.0376 3.2260
-2.5638 3.4119
-2.1439 1.9075
ITEM: ATOMS id type xs ys zs
1 1 .504996 .992298 .481244
2 1 .989791 .611970 .512213
3 1 .791161 .008358 .478023
4 1 .181320 .022308 .527318
5 1 .008861 .628931 .518287
6 1 .501681 .451274 .990864
7 1 .488255 .447462 .009467
ITEM: TIMESTEP
100
ITEM: NUMBER OF ATOMS
7
ITEM: BOX BOUNDS ss ss ss
-3.0376 3.2260
-2.5638 3.4119
-2.1511 1.9180
ITEM: ATOMS id type xs ys zs
1 1 .504021 .991034 .484449
2 1 .992863 .611196 .511841
3 1 .789327 .008559 .471661
4 1 .178906 .021683 .526729
5 1 .007490 .630821 .518368
6 1 .501517 .450536 .985872
7 1 .489602 .448620 .014356
ITEM: TIMESTEP
150
ITEM: NUMBER OF ATOMS
7
ITEM: BOX BOUNDS ss ss ss
-3.0376 3.2260
-2.5638 3.4119
-2.1647 1.9199
ITEM: ATOMS id type xs ys zs
1 1 .503661 .991175 .483689
2 1 .990071 .613927 .512882
3 1 .789215 .005148 .474649
4 1 .177130 .017916 .527119
5 1 .006774 .627090 .516113
6 1 .500665 .448360 .987627
7 1 .489709 .447806 .020064
ITEM: TIMESTEP
200
ITEM: NUMBER OF ATOMS
7
ITEM: BOX BOUNDS ss ss ss
-3.0432 3.2260
-2.5611 3.4119
-2.1705 1.9252
ITEM: ATOMS id type xs ys zs
1 1 .504867 .992420 .485247
2 1 .988462 .611892 .512925
3 1 .790417 .004072 .476014
4 1 .179722 .019740 .526732
5 1 .006851 .627349 .515132
6 1 .501850 .447547 .986156
7 1 .490141 .449322 .018752
ITEM: TIMESTEP
250
ITEM: NUMBER OF ATOMS
7
ITEM: BOX BOUNDS ss ss ss
-3.0534 3.2260
-2.5646 3.4119
-2.1615 1.9252
ITEM: ATOMS id type xs ys zs
1 1 .505748 .992571 .483920
2 1 .988541 .610842 .510662
3 1 .789665 .007327 .477797
4 1 .180836 .017161 .525571
5 1 .009792 .626050 .517914
6 1 .500314 .448817 .983849
7 1 .491848 .450413 .016506
ITEM: TIMESTEP
300
ITEM: NUMBER OF ATOMS
7
ITEM: BOX BOUNDS ss ss ss
-3.0524 3.2239
-2.5650 3.4100
-2.1611 1.9230
ITEM: ATOMS id type xs ys zs
1 1 .505195 .995374 .487575
2 1 .989094 .608388 .515136
3 1 .789731 .005976 .478341
4 1 .180130 .016325 .522947
5 1 .011702 .627072 .511658
6 1 .499784 .449228 .984514
7 1 .491684 .451037 .017216
ITEM: TIMESTEP
350
ITEM: NUMBER OF ATOMS
7
ITEM: BOX BOUNDS ss ss ss
-3.0527 3.2279
-2.5714 3.4088
-2.1563 1.9358
ITEM: ATOMS id type xs ys zs
1 1 .504425 .998522 .484904
2 1 .986281 .609686 .511744
3 1 .788969 .008207 .476227
4 1 .180431 .017705 .517330
5 1 .011575 .629225 .506523
6 1 .498067 .451580 .981969
7 1 .490780 .451738 .019158
ITEM: TIMESTEP
400
ITEM: NUMBER OF ATOMS
7
ITEM: BOX BOUNDS ss ss ss
-3.0560 3.2290
-2.5676 3.4209
-2.1484 1.9285
ITEM: ATOMS id type xs ys zs
1 1 .505054 .994605 .483114
2 1 .987052 .610429 .511121
3 1 .788033 .007399 .474239
4 1 .180441 .016898 .518436
5 1 .011199 .628272 .507820
6 1 .497642 .449638 .984678
7 1 .492060 .450581 .016951
ITEM: TIMESTEP
1
ITEM: NUMBER OF ATOMS
7
ITEM: BOX BOUNDS ss ss ss
-3.0562 3.2239
-2.5667 3.4255
-2.1394 1.9138
ITEM: ATOMS id type xs ys zs
1 1 .506002 .987344 .480818
2 1 .991479 .610511 .513015
3 1 .791086 .009841 .470433
4 1 .182650 .021046 .527361
5 1 .009756 .626089 .518598
6 1 .503908 .451433 .989799
7 1 .490054 .447022 .006962
ITEM: TIMESTEP
50
ITEM: NUMBER OF ATOMS
7
ITEM: BOX BOUNDS ss ss ss
-3.0562 3.2239
-2.5667 3.4255
-2.1431 1.9138
ITEM: ATOMS id type xs ys zs
1 1 .507546 .987774 .481430
2 1 .991377 .608452 .510081
3 1 .790426 .008697 .471672
4 1 .181636 .020383 .526025
5 1 .009670 .627845 .520678
6 1 .504278 .452574 .988557
7 1 .489360 .445763 .010667
ITEM: TIMESTEP
100
ITEM: NUMBER OF ATOMS
7
ITEM: BOX BOUNDS ss ss ss
-3.0562 3.2239
-2.5667 3.4255
-2.1529 1.9161
ITEM: ATOMS id type xs ys zs
1 1 .503838 .987382 .480610
2 1 .989847 .609216 .511453
3 1 .794078 .006941 .478817
4 1 .185206 .020450 .534573
5 1 .007027 .623339 .517724
6 1 .502776 .452261 .987887
7 1 .489197 .446289 .011519
ITEM: TIMESTEP
150
ITEM: NUMBER OF ATOMS
7
ITEM: BOX BOUNDS ss ss ss
-3.0461 3.2239
-2.5634 3.4246
-2.1589 1.9250
ITEM: ATOMS id type xs ys zs
1 1 .503363 .987237 .479761
2 1 .989803 .607679 .509844
3 1 .791677 .007803 .474953
4 1 .181868 .018761 .526582
5 1 .010131 .625166 .518346
6 1 .501113 .451492 .987689
7 1 .487454 .445592 .015061
ITEM: TIMESTEP
200
ITEM: NUMBER OF ATOMS
7
ITEM: BOX BOUNDS ss ss ss
-3.0461 3.2239
-2.5634 3.4177
-2.1635 1.9228
ITEM: ATOMS id type xs ys zs
1 1 .505455 .989854 .481979
2 1 .990421 .609758 .511114
3 1 .792151 .005588 .475698
4 1 .185541 .018693 .529998
5 1 .009460 .624930 .523865
6 1 .502553 .450620 .986289
7 1 .488219 .444883 .017004
ITEM: TIMESTEP
250
ITEM: NUMBER OF ATOMS
7
ITEM: BOX BOUNDS ss ss ss
-3.0468 3.2270
-2.5659 3.4151
-2.1648 1.9253
ITEM: ATOMS id type xs ys zs
1 1 .505635 .988661 .480626
2 1 .991009 .607675 .510577
3 1 .791166 .006241 .477757
4 1 .184107 .017769 .529189
5 1 .007768 .627302 .523185
6 1 .501353 .450249 .985354
7 1 .490636 .443933 .017602
ITEM: TIMESTEP
300
ITEM: NUMBER OF ATOMS
7
ITEM: BOX BOUNDS ss ss ss
-3.0462 3.2321
-2.5734 3.4087
-2.1629 1.9355
ITEM: ATOMS id type xs ys zs
1 1 .506412 .992365 .477089
2 1 .991384 .608150 .507962
3 1 .790190 .007882 .478167
4 1 .183447 .020091 .530188
5 1 .008197 .627599 .519746
6 1 .499349 .452352 .980276
7 1 .489999 .446573 .017827
ITEM: TIMESTEP
350
ITEM: NUMBER OF ATOMS
7
ITEM: BOX BOUNDS ss ss ss
-3.0431 3.2382
-2.5722 3.4086
-2.1575 1.9346
ITEM: ATOMS id type xs ys zs
1 1 .504370 .991240 .476773
2 1 .988160 .609766 .502429
3 1 .792072 .006247 .473588
4 1 .184415 .018212 .525546
5 1 .009458 .628154 .520286
6 1 .501950 .450166 .984202
7 1 .485766 .443920 .014486
ITEM: TIMESTEP
400
ITEM: NUMBER OF ATOMS
7
ITEM: BOX BOUNDS ss ss ss
-3.0508 3.2323
-2.5735 3.4142
-2.1460 1.9284
ITEM: ATOMS id type xs ys zs
1 1 .505953 .989112 .478562
2 1 .988026 .606803 .502946
3 1 .792954 .005294 .470211
4 1 .186096 .018646 .521400
5 1 .010028 .627844 .516032
6 1 .502973 .449389 .986884
7 1 .487095 .443494 .012342
ITEM: TIMESTEP
1
ITEM: NUMBER OF ATOMS
7
ITEM: BOX BOUNDS ss ss ss
-3.0395 3.2246
-2.5617 3.4220
-2.1308 1.9168
ITEM: ATOMS id type xs ys zs
1 1 .504629 .987902 .479361
2 1 .991343 .610525 .511587
3 1 .790452 .009023 .468963
4 1 .180460 .020227 .525974
5 1 .007112 .626131 .517180
6 1 .502522 .451240 .989050
7 1 .488645 .446810 .004858
ITEM: TIMESTEP
50
ITEM: NUMBER OF ATOMS
7
ITEM: BOX BOUNDS ss ss ss
-3.0395 3.2246
-2.5617 3.4123
-2.1441 1.9168
ITEM: ATOMS id type xs ys zs
1 1 .504573 .989321 .484308
2 1 .992720 .609000 .513287
3 1 .792424 .010807 .473163
4 1 .182023 .020520 .526751
5 1 .004841 .628536 .518209
6 1 .501092 .451838 .988364
7 1 .488363 .446896 .011268
ITEM: TIMESTEP
100
ITEM: NUMBER OF ATOMS
7
ITEM: BOX BOUNDS ss ss ss
-3.0395 3.2246
-2.5617 3.4123
-2.1567 1.9168
ITEM: ATOMS id type xs ys zs
1 1 .505882 .990929 .480069
2 1 .991070 .611129 .513530
3 1 .789809 .007989 .473548
4 1 .182564 .017107 .528416
5 1 .006059 .626456 .520646
6 1 .501369 .451321 .988650
7 1 .487497 .449467 .012464
ITEM: TIMESTEP
150
ITEM: NUMBER OF ATOMS
7
ITEM: BOX BOUNDS ss ss ss
-3.0443 3.2166
-2.5617 3.4123
-2.1684 1.9215
ITEM: ATOMS id type xs ys zs
1 1 .507718 .991752 .480880
2 1 .992591 .609752 .514135
3 1 .791667 .009157 .474499
4 1 .183262 .018014 .527723
5 1 .006469 .626452 .520425
6 1 .503310 .451616 .986414
7 1 .488851 .449760 .017479
ITEM: TIMESTEP
200
ITEM: NUMBER OF ATOMS
7
ITEM: BOX BOUNDS ss ss ss
-3.0442 3.2258
-2.5617 3.4123
-2.1646 1.9359
ITEM: ATOMS id type xs ys zs
1 1 .502114 .990357 .483582
2 1 .991097 .610771 .510413
3 1 .791705 .008629 .473965
4 1 .180344 .016645 .528229
5 1 .006557 .625066 .517596
6 1 .499647 .453002 .978976
7 1 .487424 .449408 .014576
ITEM: TIMESTEP
250
ITEM: NUMBER OF ATOMS
7
ITEM: BOX BOUNDS ss ss ss
-3.0458 3.2337
-2.5617 3.4120
-2.1607 1.9225
ITEM: ATOMS id type xs ys zs
1 1 .502779 .990718 .481822
2 1 .990576 .611235 .509614
3 1 .789403 .009377 .475949
4 1 .181243 .016887 .532657
5 1 .006422 .624759 .520105
6 1 .500787 .451819 .982292
7 1 .485835 .449153 .013982
ITEM: TIMESTEP
300
ITEM: NUMBER OF ATOMS
7
ITEM: BOX BOUNDS ss ss ss
-3.0432 3.2391
-2.5617 3.4120
-2.1588 1.9331
ITEM: ATOMS id type xs ys zs
1 1 .502505 .989731 .481417
2 1 .989717 .612349 .509969
3 1 .791968 .007079 .476737
4 1 .180310 .017543 .526730
5 1 .005976 .626533 .517003
6 1 .497353 .454362 .980545
7 1 .486811 .450076 .017554
ITEM: TIMESTEP
350
ITEM: NUMBER OF ATOMS
7
ITEM: BOX BOUNDS ss ss ss
-3.0517 3.2315
-2.5552 3.4086
-2.1611 1.9307
ITEM: ATOMS id type xs ys zs
1 1 .505199 .993544 .479806
2 1 .988383 .612001 .514682
3 1 .791901 .007942 .478485
4 1 .184998 .018510 .525164
5 1 .008049 .628535 .518018
6 1 .499134 .454155 .982561
7 1 .488163 .449325 .015613
ITEM: TIMESTEP
400
ITEM: NUMBER OF ATOMS
7
ITEM: BOX BOUNDS ss ss ss
-3.0543 3.2231
-2.5467 3.4088
-2.1613 1.9325
ITEM: ATOMS id type xs ys zs
1 1 .506131 .994048 .478401
2 1 .989936 .611090 .514124
3 1 .794281 .007857 .479563
4 1 .184983 .016492 .524407
5 1 .006797 .627994 .516267
6 1 .499975 .451054 .982450
7 1 .488304 .446753 .017195
ITEM: TIMESTEP
450
ITEM: NUMBER OF ATOMS
7
ITEM: BOX BOUNDS ss ss ss
-3.0541 3.2345
-2.5512 3.4137
-2.1547 1.9188
ITEM: ATOMS id type xs ys zs
1 1 .506802 .990466 .478293
2 1 .991427 .606892 .511974
3 1 .793657 .008595 .477745
4 1 .186389 .019054 .515779
5 1 .007161 .629255 .516196
6 1 .500357 .451792 .987780
7 1 .486230 .447169 .014219
ITEM: TIMESTEP
500
ITEM: NUMBER OF ATOMS
7
ITEM: BOX BOUNDS ss ss ss
-3.0543 3.2444
-2.5545 3.4178
-2.1630 1.9223
ITEM: ATOMS id type xs ys zs
1 1 .503464 .993609 .480161
2 1 .986357 .610714 .513765
3 1 .790331 .008298 .479374
4 1 .184110 .015620 .531275
5 1 .007539 .625337 .514749
6 1 .496606 .452265 .986516
7 1 .488414 .445746 .020277
ITEM: TIMESTEP
550
ITEM: NUMBER OF ATOMS
7
ITEM: BOX BOUNDS ss ss ss
-3.0466 3.2289
-2.5496 3.4187
-2.1498 1.9255
ITEM: ATOMS id type xs ys zs
1 1 .503719 .992099 .477250
2 1 .988892 .611141 .514095
3 1 .792015 .007185 .477966
4 1 .184433 .014937 .528909
5 1 .007369 .623992 .513718
6 1 .498707 .451634 .985779
7 1 .490539 .446566 .017328
ITEM: TIMESTEP
600
ITEM: NUMBER OF ATOMS
7
ITEM: BOX BOUNDS ss ss ss
-3.0545 3.2403
-2.5526 3.4388
-2.1476 1.9228
ITEM: ATOMS id type xs ys zs
1 1 .503156 .988809 .477612
2 1 .987847 .610081 .511586
3 1 .789531 .006620 .477853
4 1 .185388 .013937 .528383
5 1 .008483 .623368 .510699
6 1 .496909 .450394 .986167
7 1 .487748 .443423 .015474
ITEM: TIMESTEP
1
ITEM: NUMBER OF ATOMS
7
ITEM: BOX BOUNDS ss ss ss
-3.0589 3.2314
-2.5567 3.4349
-2.1396 1.9158
ITEM: ATOMS id type xs ys zs
1 1 .505601 .985777 .480609
2 1 .990294 .608893 .512774
3 1 .790240 .008202 .470234
4 1 .182791 .019379 .527125
5 1 .010169 .624482 .518340
6 1 .503514 .449819 .989324
7 1 .489687 .445410 .007023
ITEM: TIMESTEP
50
ITEM: NUMBER OF ATOMS
7
ITEM: BOX BOUNDS ss ss ss
-3.0589 3.2314
-2.5567 3.4349
-2.1458 1.9158
ITEM: ATOMS id type xs ys zs
1 1 .505946 .986780 .483889
2 1 .989193 .608934 .512099
3 1 .790162 .008282 .472122
4 1 .183435 .018519 .529180
5 1 .009805 .625179 .518440
6 1 .504340 .449967 .987123
7 1 .489428 .446122 .010328
ITEM: TIMESTEP
100
ITEM: NUMBER OF ATOMS
7
ITEM: BOX BOUNDS ss ss ss
-3.0589 3.2314
-2.5508 3.4349
-2.1553 1.9158
ITEM: ATOMS id type xs ys zs
1 1 .503595 .987497 .479569
2 1 .989768 .607070 .511231
3 1 .789820 .004542 .476868
4 1 .184266 .018885 .527619
5 1 .012038 .625241 .521760
6 1 .505209 .449250 .988212
7 1 .489162 .444124 .014100
ITEM: TIMESTEP
150
ITEM: NUMBER OF ATOMS
7
ITEM: BOX BOUNDS ss ss ss
-3.0589 3.2314
-2.5527 3.4349
-2.1696 1.9274
ITEM: ATOMS id type xs ys zs
1 1 .504065 .986649 .479494
2 1 .990006 .607012 .508504
3 1 .787521 .004581 .477053
4 1 .184397 .018928 .527499
5 1 .010362 .624870 .521596
6 1 .503923 .450849 .985017
7 1 .488904 .444769 .018499
ITEM: TIMESTEP
200
ITEM: NUMBER OF ATOMS
7
ITEM: BOX BOUNDS ss ss ss
-3.0589 3.2314
-2.5550 3.4349
-2.1601 1.9194
ITEM: ATOMS id type xs ys zs
1 1 .503394 .987719 .480329
2 1 .989410 .608259 .510203
3 1 .790420 .005594 .479253
4 1 .186764 .020594 .524995
5 1 .010064 .624087 .519680
6 1 .504246 .451461 .989199
7 1 .490735 .445490 .016240
ITEM: TIMESTEP
250
ITEM: NUMBER OF ATOMS
7
ITEM: BOX BOUNDS ss ss ss
-3.0589 3.2314
-2.5665 3.4349
-2.1601 1.9204
ITEM: ATOMS id type xs ys zs
1 1 .502955 .988231 .481312
2 1 .988751 .611180 .508339
3 1 .791299 .008168 .478270
4 1 .186876 .020726 .522589
5 1 .009804 .626267 .518870
6 1 .503110 .452201 .988552
7 1 .491306 .445705 .014570
ITEM: TIMESTEP
300
ITEM: NUMBER OF ATOMS
7
ITEM: BOX BOUNDS ss ss ss
-3.0589 3.2314
-2.5692 3.4349
-2.1646 1.9306
ITEM: ATOMS id type xs ys zs
1 1 .503163 .990277 .480335
2 1 .988004 .612054 .507695
3 1 .790538 .007443 .480384
4 1 .186104 .020287 .521115
5 1 .010409 .627701 .518419
6 1 .502233 .449962 .985180
7 1 .491521 .445577 .015798
ITEM: TIMESTEP
350
ITEM: NUMBER OF ATOMS
7
ITEM: BOX BOUNDS ss ss ss
-3.0589 3.2314
-2.5749 3.4349
-2.1595 1.9337
ITEM: ATOMS id type xs ys zs
1 1 .503843 .989442 .480487
2 1 .987093 .612348 .503121
3 1 .793129 .008584 .474888
4 1 .186409 .020483 .519515
5 1 .013484 .626855 .519711
6 1 .504257 .451580 .981184
7 1 .492092 .448145 .014593
ITEM: TIMESTEP
400
ITEM: NUMBER OF ATOMS
7
ITEM: BOX BOUNDS ss ss ss
-3.0589 3.2314
-2.5796 3.4349
-2.1569 1.9190
ITEM: ATOMS id type xs ys zs
1 1 .505165 .989128 .481838
2 1 .988199 .609928 .505274
3 1 .793842 .007956 .475593
4 1 .186690 .022067 .518943
5 1 .011557 .628107 .522956
6 1 .503505 .449436 .988203
7 1 .491990 .449256 .015712
ITEM: TIMESTEP
1
ITEM: NUMBER OF ATOMS
7
ITEM: BOX BOUNDS ss ss ss
-3.0589 3.2314
-2.5663 3.4297
-2.1480 1.9273
ITEM: ATOMS id type xs ys zs
1 1 .505603 .986656 .480330
2 1 .990304 .610046 .512326
3 1 .790234 .009749 .470027
4 1 .182798 .020955 .526633
5 1 .010151 .625632 .517869
6 1 .503518 .451096 .986557
7 1 .489701 .446663 .009051
ITEM: TIMESTEP
50
ITEM: NUMBER OF ATOMS
7
ITEM: BOX BOUNDS ss ss ss
-3.0589 3.2314
-2.5663 3.4297
-2.1480 1.9273
ITEM: ATOMS id type xs ys zs
1 1 .503757 .988669 .481324
2 1 .989541 .609548 .510536
3 1 .790552 .010762 .474352
4 1 .184474 .020212 .526102
5 1 .011204 .624604 .515922
6 1 .502414 .449293 .985044
7 1 .489886 .448162 .007635
ITEM: TIMESTEP
100
ITEM: NUMBER OF ATOMS
7
ITEM: BOX BOUNDS ss ss ss
-3.0589 3.2314
-2.5663 3.4297
-2.1605 1.9273
ITEM: ATOMS id type xs ys zs
1 1 .506014 .989215 .481989
2 1 .989263 .610423 .513502
3 1 .788476 .009054 .475340
4 1 .187181 .020495 .524144
5 1 .012037 .627823 .517277
6 1 .501394 .450669 .986766
7 1 .491161 .449554 .016308
ITEM: TIMESTEP
150
ITEM: NUMBER OF ATOMS
7
ITEM: BOX BOUNDS ss ss ss
-3.0589 3.2314
-2.5663 3.4297
-2.1597 1.9314
ITEM: ATOMS id type xs ys zs
1 1 .504634 .989877 .479485