ITEM: TIMESTEP
1
ITEM: NUMBER OF ATOMS
7
ITEM: BOX BOUNDS ss ss ss
-2.9986 3.1743
-2.5110 3.3531
-2.1153 1.8771
ITEM: ATOMS id type xs ys zs
1 1 .505455 .999359 .482037
2 1 .999364 .614383 .514985
3 1 .795484 .000610 .471407
4 1 .176445 .012047 .529456
5 1 .000603 .630241 .520486
6 1 .503358 .451822 .998934
7 1 .489252 .447247 .000873
ITEM: TIMESTEP
50
ITEM: NUMBER OF ATOMS
7
ITEM: BOX BOUNDS ss ss ss
-3.0191 3.1968
-2.5333 3.3771
-2.1405 1.9024
ITEM: ATOMS id type xs ys zs
1 1 .505231 .995125 .481891
2 1 .995834 .613420 .515238
3 1 .793228 .004475 .471365
4 1 .178574 .015809 .529344
5 1 .003994 .629074 .520248
6 1 .503130 .451951 .992871
7 1 .489094 .447545 .006871
ITEM: TIMESTEP
100
ITEM: NUMBER OF ATOMS
7
ITEM: BOX BOUNDS ss ss ss
-3.0295 3.2073
-2.5430 3.3834
-2.1470 1.9107
ITEM: ATOMS id type xs ys zs
1 1 .505225 .994095 .481356
2 1 .994321 .613268 .515010
3 1 .792172 .006066 .471365
4 1 .180008 .017253 .529079
5 1 .005682 .629187 .519863
6 1 .502903 .452118 .990812
7 1 .488861 .448286 .008914
ITEM: TIMESTEP
150
ITEM: NUMBER OF ATOMS
7
ITEM: BOX BOUNDS ss ss ss
-3.0326 3.2107
-2.5543 3.3897
-2.1468 1.9173
ITEM: ATOMS id type xs ys zs
1 1 .505375 .993436 .480386
2 1 .993964 .613198 .513545
3 1 .791928 .007697 .470985
4 1 .180847 .018665 .527996
5 1 .006078 .629463 .518830
6 1 .502676 .452621 .988931
7 1 .488702 .449122 .009833
ITEM: TIMESTEP
200
ITEM: NUMBER OF ATOMS
7
ITEM: BOX BOUNDS ss ss ss
-3.0384 3.2227
-2.5559 3.4013
-2.1506 1.9169
ITEM: ATOMS id type xs ys zs
1 1 .505259 .992314 .481042
2 1 .992165 .612359 .512930
3 1 .790985 .007603 .472240
4 1 .181853 .018172 .528134
5 1 .006949 .628443 .519051
6 1 .502138 .452080 .988407
7 1 .488271 .448496 .012277
ITEM: TIMESTEP
250
ITEM: NUMBER OF ATOMS
7
ITEM: BOX BOUNDS ss ss ss
-3.0399 3.2300
-2.5631 3.4029
-2.1523 1.9108
ITEM: ATOMS id type xs ys zs
1 1 .504803 .992854 .482105
2 1 .991028 .612922 .512867
3 1 .790448 .008479 .473770
4 1 .182205 .018575 .528883
5 1 .007280 .628646 .519553
6 1 .501717 .452647 .989263
7 1 .487925 .449080 .014167
ITEM: TIMESTEP
300
ITEM: NUMBER OF ATOMS
7
ITEM: BOX BOUNDS ss ss ss
-3.0499 3.2305
-2.5560 3.4094
-2.1437 1.9120
ITEM: ATOMS id type xs ys zs
1 1 .505386 .992569 .481149
2 1 .990966 .611705 .510317
3 1 .790632 .006641 .473894
4 1 .183694 .016859 .527629
5 1 .009184 .627347 .517541
6 1 .502676 .451581 .988382
7 1 .489142 .448102 .013297
ITEM: TIMESTEP
350
ITEM: NUMBER OF ATOMS
7
ITEM: BOX BOUNDS ss ss ss
-3.0567 3.2410
-2.5664 3.4141
-2.1368 1.9127
ITEM: ATOMS id type xs ys zs
1 1 .505020 .992173 .480403
2 1 .989430 .611497 .508108
3 1 .789630 .007674 .474676
4 1 .184407 .018285 .527040
5 1 .010491 .627459 .515983
6 1 .502594 .452264 .987745
7 1 .489464 .448541 .012710
ITEM: TIMESTEP
400
ITEM: NUMBER OF ATOMS
7
ITEM: BOX BOUNDS ss ss ss
-3.0375 3.2325
-2.5736 3.4242
-2.1309 1.9081
ITEM: ATOMS id type xs ys zs
1 1 .504430 .990529 .480462
2 1 .990886 .610220 .506486
3 1 .790508 .008227 .476170
4 1 .182660 .019219 .527333
5 1 .007437 .626664 .515700
6 1 .501976 .452411 .988926
7 1 .488956 .448129 .012361
ITEM: TIMESTEP
1
ITEM: NUMBER OF ATOMS
7
ITEM: BOX BOUNDS ss ss ss
-3.0379 3.2215
-2.5751 3.4043
-2.1154 1.9035
ITEM: ATOMS id type xs ys zs
1 1 .504751 .990798 .478878
2 1 .991835 .613246 .511622
3 1 .790771 .011309 .468317
4 1 .180289 .022529 .525993
5 1 .006879 .628798 .517078
6 1 .502685 .453823 .992368
7 1 .488775 .449338 .000890
ITEM: TIMESTEP
50
ITEM: NUMBER OF ATOMS
7
ITEM: BOX BOUNDS ss ss ss
-3.0379 3.2215
-2.5751 3.4043
-2.1430 1.9002
ITEM: ATOMS id type xs ys zs
1 1 .504692 .990594 .482412
2 1 .991924 .613328 .515949
3 1 .790711 .011427 .471859
4 1 .180315 .022670 .529996
5 1 .007006 .628765 .520877
6 1 .502655 .453723 .993448
7 1 .488720 .449335 .007370
ITEM: TIMESTEP
100
ITEM: NUMBER OF ATOMS
7
ITEM: BOX BOUNDS ss ss ss
-3.0379 3.2215
-2.5751 3.4043
-2.1504 1.9077
ITEM: ATOMS id type xs ys zs
1 1 .504629 .990604 .482148
2 1 .992114 .613262 .515995
3 1 .790668 .011420 .471927
4 1 .180679 .022478 .529935
5 1 .007057 .628908 .520739
6 1 .502458 .453547 .991578
7 1 .488451 .449625 .009481
ITEM: TIMESTEP
150
ITEM: NUMBER OF ATOMS
7
ITEM: BOX BOUNDS ss ss ss
-3.0422 3.2181
-2.5751 3.4043
-2.1530 1.9175
ITEM: ATOMS id type xs ys zs
1 1 .505210 .990921 .480957
2 1 .992756 .613074 .514965
3 1 .791321 .011334 .471256
4 1 .181869 .021978 .528859
5 1 .007484 .629038 .519801
6 1 .502819 .453498 .988968
7 1 .488762 .449867 .010946
ITEM: TIMESTEP
200
ITEM: NUMBER OF ATOMS
7
ITEM: BOX BOUNDS ss ss ss
-3.0398 3.2147
-2.5751 3.4039
-2.1482 1.9234
ITEM: ATOMS id type xs ys zs
1 1 .505227 .991399 .479281
2 1 .993373 .612953 .513194
3 1 .791870 .011089 .469951
4 1 .182061 .021547 .527206
5 1 .006695 .629210 .518496
6 1 .502614 .453582 .986940
7 1 .488455 .450057 .011031
ITEM: TIMESTEP
250
ITEM: NUMBER OF ATOMS
7
ITEM: BOX BOUNDS ss ss ss
-3.0499 3.2238
-2.5629 3.4039
-2.1459 1.9190
ITEM: ATOMS id type xs ys zs
1 1 .504843 .991904 .479293
2 1 .991806 .612221 .512517
3 1 .791279 .008575 .470152
4 1 .183243 .019259 .527202
5 1 .007819 .628573 .518899
6 1 .502507 .452590 .987239
7 1 .488317 .449059 .011839
ITEM: TIMESTEP
300
ITEM: NUMBER OF ATOMS
7
ITEM: BOX BOUNDS ss ss ss
-3.0550 3.2237
-2.5688 3.4056
-2.1523 1.9132
ITEM: ATOMS id type xs ys zs
1 1 .505065 .992308 .481094
2 1 .991606 .612719 .512791
3 1 .792036 .009271 .471846
4 1 .184210 .019927 .527918
5 1 .008334 .629054 .520742
6 1 .502880 .452996 .987840
7 1 .488713 .449616 .014754
ITEM: TIMESTEP
350
ITEM: NUMBER OF ATOMS
7
ITEM: BOX BOUNDS ss ss ss
-3.0565 3.2212
-2.5682 3.4116
-2.1392 1.9065
ITEM: ATOMS id type xs ys zs
1 1 .504998 .992068 .481063
2 1 .991864 .612679 .510506
3 1 .793095 .009279 .472138
4 1 .184759 .019247 .525930
5 1 .008160 .628853 .520347
6 1 .503004 .452211 .988238
7 1 .489172 .449628 .012879
ITEM: TIMESTEP
400
ITEM: NUMBER OF ATOMS
7
ITEM: BOX BOUNDS ss ss ss
-3.0582 3.2295
-2.5581 3.4138
-2.1411 1.9091
ITEM: ATOMS id type xs ys zs
1 1 .504005 .992604 .481508
2 1 .990306 .612189 .509029
3 1 .792384 .007673 .473625
4 1 .184821 .017106 .525123
5 1 .007948 .628318 .519964
6 1 .502047 .451310 .986612
7 1 .488771 .449056 .014383
ITEM: TIMESTEP
1
ITEM: NUMBER OF ATOMS
7
ITEM: BOX BOUNDS ss ss ss
-3.0501 3.2114
-2.5559 3.4131
-2.1318 1.8937
ITEM: ATOMS id type xs ys zs
1 1 .506524 .989316 .482170
2 1 .993440 .611104 .514855
3 1 .792446 .008111 .471621
4 1 .182175 .019355 .529199
5 1 .008826 .626680 .520299
6 1 .504459 .451402 .994810
7 1 .490552 .446906 .004959
ITEM: TIMESTEP
50
ITEM: NUMBER OF ATOMS
7
ITEM: BOX BOUNDS ss ss ss
-3.0501 3.2114
-2.5559 3.4131
-2.1389 1.9049
ITEM: ATOMS id type xs ys zs
1 1 .506494 .989082 .481339
2 1 .993497 .611208 .515057
3 1 .792360 .008253 .470633
4 1 .182129 .019503 .528997
5 1 .008960 .626629 .519785
6 1 .504443 .451321 .992354
7 1 .490507 .446899 .006232
ITEM: TIMESTEP
100
ITEM: NUMBER OF ATOMS
7
ITEM: BOX BOUNDS ss ss ss
-3.0501 3.2134
-2.5559 3.4131
-2.1496 1.9156
ITEM: ATOMS id type xs ys zs
1 1 .506300 .989037 .480996
2 1 .993426 .611196 .515271
3 1 .792092 .008240 .470580
4 1 .182374 .019430 .529042
5 1 .008982 .626834 .519734
6 1 .504116 .451065 .989738
7 1 .490089 .447142 .009107
ITEM: TIMESTEP
150
ITEM: NUMBER OF ATOMS
7
ITEM: BOX BOUNDS ss ss ss
-3.0501 3.2121
-2.5559 3.4131
-2.1487 1.9155
ITEM: ATOMS id type xs ys zs
1 1 .506333 .989353 .480611
2 1 .993776 .611091 .514811
3 1 .792334 .008205 .470754
4 1 .182707 .019128 .528900
5 1 .008889 .627304 .519731
6 1 .504017 .450770 .989477
7 1 .489736 .447380 .009913
ITEM: TIMESTEP
200
ITEM: NUMBER OF ATOMS
7
ITEM: BOX BOUNDS ss ss ss
-3.0501 3.2200
-2.5559 3.4131
-2.1548 1.9296
ITEM: ATOMS id type xs ys zs
1 1 .505508 .989570 .480011
2 1 .992321 .610753 .513106
3 1 .791387 .007909 .470594
4 1 .182611 .018779 .527429
5 1 .008587 .627653 .518568
6 1 .503012 .450395 .985917
7 1 .488813 .447471 .012380
ITEM: TIMESTEP
250
ITEM: NUMBER OF ATOMS
7
ITEM: BOX BOUNDS ss ss ss
-3.0501 3.2248
-2.5583 3.4131
-2.1446 1.9224
ITEM: ATOMS id type xs ys zs
1 1 .505040 .989730 .479973
2 1 .991207 .610570 .512496
3 1 .790730 .007939 .470963
4 1 .182443 .018937 .526786
5 1 .008375 .627956 .517965
6 1 .502258 .450513 .987785
7 1 .488250 .447789 .010791
ITEM: TIMESTEP
300
ITEM: NUMBER OF ATOMS
7
ITEM: BOX BOUNDS ss ss ss
-3.0501 3.2318
-2.5666 3.4131
-2.1520 1.9242
ITEM: ATOMS id type xs ys zs
1 1 .504567 .989947 .480824
2 1 .989935 .610622 .512825
3 1 .789743 .009120 .472517
4 1 .182379 .019996 .527197
5 1 .008190 .628515 .518168
6 1 .501316 .451473 .987374
7 1 .487453 .448584 .013062
ITEM: TIMESTEP
350
ITEM: NUMBER OF ATOMS
7
ITEM: BOX BOUNDS ss ss ss
-3.0436 3.2388
-2.5676 3.4214
-2.1479 1.9274
ITEM: ATOMS id type xs ys zs
1 1 .503529 .988703 .479796
2 1 .988744 .609311 .511669
3 1 .788724 .009109 .471915
4 1 .181525 .019619 .525939
5 1 .006762 .627396 .516863
6 1 .499833 .451037 .986324
7 1 .486129 .448030 .012457
ITEM: TIMESTEP
400
ITEM: NUMBER OF ATOMS
7
ITEM: BOX BOUNDS ss ss ss
-3.0553 3.2340
-2.5693 3.4046
-2.1539 1.9170
ITEM: ATOMS id type xs ys zs
1 1 .504438 .991786 .482010
2 1 .989104 .610634 .513552
3 1 .789824 .008742 .474225
4 1 .183419 .019443 .527706
5 1 .008072 .628875 .518275
6 1 .500634 .452383 .988497
7 1 .487592 .449413 .014913
ITEM: TIMESTEP
1
ITEM: NUMBER OF ATOMS
7
ITEM: BOX BOUNDS ss ss ss
-3.0514 3.2042
-2.5756 3.4026
-2.1435 1.9266
ITEM: ATOMS id type xs ys zs
1 1 .507207 .991073 .479757
2 1 .994581 .613453 .512091
3 1 .793395 .011403 .469324
4 1 .182548 .022625 .526279
5 1 .009039 .629001 .517476
6 1 .505139 .453997 .986806
7 1 .491216 .449506 .007763
ITEM: TIMESTEP
50
ITEM: NUMBER OF ATOMS
7
ITEM: BOX BOUNDS ss ss ss
-3.0514 3.2042
-2.5756 3.4026
-2.1435 1.9266
ITEM: ATOMS id type xs ys zs
1 1 .507165 .990803 .479270
2 1 .994658 .613564 .512939
3 1 .793288 .011579 .468634
4 1 .182509 .022809 .526706
5 1 .009200 .628923 .517574
6 1 .505150 .453920 .987107
7 1 .491159 .449458 .007173
ITEM: TIMESTEP
100
ITEM: NUMBER OF ATOMS
7
ITEM: BOX BOUNDS ss ss ss
-3.0514 3.2079
-2.5756 3.4026
-2.1484 1.9266
ITEM: ATOMS id type xs ys zs
1 1 .506831 .990724 .479389
2 1 .994259 .613556 .513861
3 1 .792766 .011632 .468990
4 1 .182758 .022750 .527640
5 1 .009214 .629141 .518225
6 1 .504710 .453669 .987191
7 1 .490533 .449695 .008461
ITEM: TIMESTEP
150
ITEM: NUMBER OF ATOMS
7
ITEM: BOX BOUNDS ss ss ss
-3.0514 3.2146
-2.5711 3.4026
-2.1523 1.9266
ITEM: ATOMS id type xs ys zs
1 1 .506472 .990887 .479548
2 1 .993310 .613073 .514288
3 1 .792118 .010875 .469405
4 1 .182927 .021689 .528390
5 1 .009082 .629203 .518607
6 1 .503968 .453076 .987143
7 1 .489578 .449531 .010080
ITEM: TIMESTEP
200
ITEM: NUMBER OF ATOMS
7
ITEM: BOX BOUNDS ss ss ss
-3.0514 3.2200
-2.5711 3.4026
-2.1552 1.9266
ITEM: ATOMS id type xs ys zs
1 1 .506423 .991116 .479931
2 1 .992463 .612812 .514168
3 1 .791966 .010675 .469838
4 1 .182930 .021428 .528697
5 1 .009027 .629718 .518528
6 1 .503275 .452878 .986726
7 1 .488892 .449471 .011699
ITEM: TIMESTEP
250
ITEM: NUMBER OF ATOMS
7
ITEM: BOX BOUNDS ss ss ss
-3.0548 3.2215
-2.5711 3.4062
-2.1584 1.9287
ITEM: ATOMS id type xs ys zs
1 1 .506851 .990700 .480157
2 1 .992273 .612075 .513684
3 1 .792424 .010582 .470243
4 1 .183529 .021237 .528511
5 1 .009206 .630005 .517953
6 1 .503028 .452344 .985356
7 1 .488857 .449243 .013486
ITEM: TIMESTEP
300
ITEM: NUMBER OF ATOMS
7
ITEM: BOX BOUNDS ss ss ss
-3.0514 3.2218
-2.5711 3.4038
-2.1478 1.9266
ITEM: ATOMS id type xs ys zs
1 1 .506755 .991251 .478894
2 1 .992574 .612079 .511971
3 1 .792366 .010582 .469825
4 1 .183204 .020834 .527388
5 1 .008146 .630660 .516169
6 1 .502395 .452668 .984884
7 1 .488580 .449370 .011899
ITEM: TIMESTEP
350
ITEM: NUMBER OF ATOMS
7
ITEM: BOX BOUNDS ss ss ss
-3.0586 3.2330
-2.5711 3.4143
-2.1537 1.9153
ITEM: ATOMS id type xs ys zs
1 1 .506544 .989962 .480589
2 1 .991006 .610885 .513591
3 1 .791340 .010281 .472479
4 1 .183850 .020487 .529261
5 1 .008888 .629857 .517871
6 1 .501847 .452250 .986633
7 1 .488146 .448390 .014064
ITEM: TIMESTEP
400
ITEM: NUMBER OF ATOMS
7
ITEM: BOX BOUNDS ss ss ss
-3.0554 3.2272
-2.5650 3.4097
-2.1540 1.9159
ITEM: ATOMS id type xs ys zs
1 1 .506861 .991134 .480260
2 1 .991770 .610547 .513117
3 1 .792245 .008687 .472688
4 1 .183808 .019275 .529000
5 1 .007799 .630306 .517555
6 1 .501653 .452402 .985547
7 1 .488078 .448221 .014779
ITEM: TIMESTEP
1
ITEM: NUMBER OF ATOMS
7
ITEM: BOX BOUNDS ss ss ss
-3.0514 3.2263
-2.5706 3.4030
-2.1438 1.9099
ITEM: ATOMS id type xs ys zs
1 1 .505432 .991004 .481764
2 1 .991094 .613092 .514223
3 1 .790618 .010581 .471290
4 1 .181911 .021811 .528475
5 1 .009012 .628655 .519641
6 1 .503371 .453512 .990853
7 1 .489500 .449018 .007867
ITEM: TIMESTEP
50
ITEM: NUMBER OF ATOMS
7
ITEM: BOX BOUNDS ss ss ss
-3.0514 3.2263
-2.5706 3.4030
-2.1459 1.9060
ITEM: ATOMS id type xs ys zs
1 1 .505384 .990695 .481966
2 1 .991182 .613208 .515935
3 1 .790476 .010767 .471261
4 1 .181836 .022031 .529722
5 1 .009175 .628588 .520507
6 1 .503400 .453431 .992216
7 1 .489484 .448961 .007741
ITEM: TIMESTEP
100
ITEM: NUMBER OF ATOMS
7
ITEM: BOX BOUNDS ss ss ss
-3.0514 3.2263
-2.5706 3.4030
-2.1629 1.9132
ITEM: ATOMS id type xs ys zs
1 1 .505316 .990633 .482597
2 1 .991440 .613133 .517526
3 1 .790264 .010796 .472259
4 1 .182084 .021961 .531016
5 1 .009318 .628745 .521609
6 1 .503226 .453178 .990657
7 1 .489124 .449239 .011970
ITEM: TIMESTEP
150
ITEM: NUMBER OF ATOMS
7
ITEM: BOX BOUNDS ss ss ss
-3.0507 3.2263
-2.5706 3.4030
-2.1588 1.9236
ITEM: ATOMS id type xs ys zs
1 1 .505420 .990893 .480371
2 1 .991666 .612934 .515611
3 1 .790223 .010821 .470676
4 1 .182517 .021556 .528839
5 1 .009252 .629141 .519977
6 1 .502829 .452912 .988132
7 1 .488660 .449631 .012058
ITEM: TIMESTEP
200
ITEM: NUMBER OF ATOMS
7
ITEM: BOX BOUNDS ss ss ss
-3.0498 3.2229
-2.5706 3.4030
-2.1567 1.9238
ITEM: ATOMS id type xs ys zs
1 1 .506111 .991338 .479350
2 1 .992270 .612674 .514875
3 1 .790767 .010803 .471200
4 1 .183022 .021318 .528045
5 1 .009295 .629615 .519747
6 1 .502880 .453050 .988021
7 1 .488761 .449901 .012407
ITEM: TIMESTEP
250
ITEM: NUMBER OF ATOMS
7
ITEM: BOX BOUNDS ss ss ss
-3.0498 3.2230
-2.5572 3.4030
-2.1546 1.9308
ITEM: ATOMS id type xs ys zs
1 1 .506523 .991638 .477697
2 1 .992276 .611555 .513248
3 1 .791001 .008716 .470886
4 1 .183444 .018855 .526597
5 1 .009253 .628910 .518681
6 1 .502904 .452152 .986099
7 1 .488576 .448645 .012138
ITEM: TIMESTEP
300
ITEM: NUMBER OF ATOMS
7
ITEM: BOX BOUNDS ss ss ss
-3.0498 3.2185
-2.5637 3.4059
-2.1576 1.9283
ITEM: ATOMS id type xs ys zs
1 1 .507164 .991495 .478593
2 1 .993146 .611707 .513549
3 1 .792197 .009818 .472057
4 1 .183619 .019401 .527037
5 1 .009191 .629253 .519766
6 1 .503382 .452447 .985845
7 1 .488759 .448818 .013541
ITEM: TIMESTEP
350
ITEM: NUMBER OF ATOMS
7
ITEM: BOX BOUNDS ss ss ss
-3.0425 3.2259
-2.5590 3.4142
-2.1571 1.9249
ITEM: ATOMS id type xs ys zs
1 1 .505913 .990544 .479557
2 1 .992170 .610744 .513581
3 1 .791830 .008799 .472594
4 1 .182667 .018198 .526621
5 1 .008082 .628290 .520535
6 1 .502371 .451171 .985392
7 1 .488131 .447876 .014233
ITEM: TIMESTEP
400
ITEM: NUMBER OF ATOMS
7
ITEM: BOX BOUNDS ss ss ss
-3.0504 3.2282
-2.5690 3.4114
-2.1501 1.9328
ITEM: ATOMS id type xs ys zs
1 1 .506334 .992001 .477471
2 1 .992173 .611767 .511411
3 1 .792310 .009840 .470811
4 1 .184119 .019553 .523824
5 1 .009242 .629374 .518798
6 1 .502877 .452743 .982004
7 1 .489198 .449232 .013656
ITEM: TIMESTEP
1
ITEM: NUMBER OF ATOMS
7
ITEM: BOX BOUNDS ss ss ss
-3.0376 3.2260
-2.5638 3.4119
-2.1394 1.9075
ITEM: ATOMS id type xs ys zs
1 1 .504358 .989514 .481493
2 1 .991108 .611733 .514015
3 1 .790182 .009428 .470996
4 1 .180114 .020654 .528286
5 1 .006824 .627292 .519431
6 1 .502294 .452205 .991436
7 1 .488393 .447716 .006806
ITEM: TIMESTEP
50
ITEM: NUMBER OF ATOMS
7
ITEM: BOX BOUNDS ss ss ss
-3.0376 3.2260
-2.5638 3.4119
-2.1439 1.9075
ITEM: ATOMS id type xs ys zs
1 1 .504301 .989171 .481510
2 1 .991141 .611873 .515563
3 1 .790071 .009647 .470764
4 1 .180039 .020878 .529386
5 1 .007012 .627213 .520098
6 1 .502339 .452153 .991937
7 1 .488348 .447624 .007152
ITEM: TIMESTEP
100
ITEM: NUMBER OF ATOMS
7
ITEM: BOX BOUNDS ss ss ss
-3.0376 3.2260
-2.5638 3.4119
-2.1511 1.9180
ITEM: ATOMS id type xs ys zs
1 1 .504194 .989026 .480566
2 1 .991362 .611817 .515618
3 1 .789976 .009725 .470079
4 1 .180320 .020845 .529177
5 1 .007136 .627346 .519556
6 1 .502247 .451826 .989657
7 1 .488098 .447855 .008848
ITEM: TIMESTEP
150
ITEM: NUMBER OF ATOMS
7
ITEM: BOX BOUNDS ss ss ss
-3.0376 3.2260
-2.5638 3.4119
-2.1647 1.9199
ITEM: ATOMS id type xs ys zs
1 1 .504118 .989023 .481430
2 1 .991393 .611666 .517162
3 1 .790000 .009527 .471271
4 1 .180679 .020729 .530347
5 1 .007023 .627633 .520951
6 1 .502170 .451533 .989033
7 1 .487840 .448091 .012438
ITEM: TIMESTEP
200
ITEM: NUMBER OF ATOMS
7
ITEM: BOX BOUNDS ss ss ss
-3.0432 3.2260
-2.5611 3.4119
-2.1705 1.9252
ITEM: ATOMS id type xs ys zs
1 1 .504364 .989381 .481288
2 1 .991268 .611574 .517217
3 1 .789976 .008580 .471276
4 1 .181361 .019813 .530219
5 1 .007803 .627626 .521078
6 1 .502330 .450962 .987198
7 1 .488156 .448105 .014669
ITEM: TIMESTEP
250
ITEM: NUMBER OF ATOMS
7
ITEM: BOX BOUNDS ss ss ss
-3.0534 3.2260
-2.5646 3.4119
-2.1615 1.9252
ITEM: ATOMS id type xs ys zs
1 1 .505104 .989888 .479947
2 1 .991186 .612127 .515919
3 1 .790258 .008755 .469944
4 1 .182602 .019836 .529028
5 1 .009280 .627680 .519972
6 1 .502912 .450991 .986572
7 1 .488987 .448549 .013645
ITEM: TIMESTEP
300
ITEM: NUMBER OF ATOMS
7
ITEM: BOX BOUNDS ss ss ss
-3.0524 3.2239
-2.5650 3.4100
-2.1611 1.9230
ITEM: ATOMS id type xs ys zs
1 1 .505413 .990919 .480119
2 1 .991271 .612161 .515795
3 1 .790712 .008338 .470490
4 1 .182430 .019289 .528995
5 1 .009243 .627658 .519791
6 1 .502710 .450807 .986558
7 1 .489316 .448805 .014269
ITEM: TIMESTEP
350
ITEM: NUMBER OF ATOMS
7
ITEM: BOX BOUNDS ss ss ss
-3.0527 3.2279
-2.5714 3.4088
-2.1563 1.9358
ITEM: ATOMS id type xs ys zs
1 1 .505349 .992258 .478518
2 1 .989879 .612063 .513417
3 1 .789926 .008624 .469772
4 1 .181869 .019413 .526508
5 1 .009750 .628070 .516526
6 1 .501751 .450703 .983095
7 1 .489602 .449732 .013791
ITEM: TIMESTEP
400
ITEM: NUMBER OF ATOMS
7
ITEM: BOX BOUNDS ss ss ss
-3.0560 3.2290
-2.5676 3.4209
-2.1484 1.9285
ITEM: ATOMS id type xs ys zs
1 1 .505565 .990995 .478739
2 1 .989165 .610144 .513393
3 1 .789527 .007189 .470578
4 1 .181836 .017839 .525890
5 1 .010752 .626612 .515479
6 1 .501423 .448692 .984500
7 1 .490375 .448717 .012760
ITEM: TIMESTEP
1
ITEM: NUMBER OF ATOMS
7
ITEM: BOX BOUNDS ss ss ss
-3.0562 3.2239
-2.5667 3.4255
-2.1394 1.9138
ITEM: ATOMS id type xs ys zs
1 1 .505999 .987283 .480745
2 1 .991471 .610545 .513216
3 1 .791072 .009889 .470265
4 1 .182606 .021085 .527456
5 1 .009777 .626056 .518624
6 1 .503943 .451455 .989896
7 1 .490074 .446975 .006789
ITEM: TIMESTEP
50
ITEM: NUMBER OF ATOMS
7
ITEM: BOX BOUNDS ss ss ss
-3.0562 3.2239
-2.5667 3.4255
-2.1431 1.9138
ITEM: ATOMS id type xs ys zs
1 1 .505948 .986888 .480606
2 1 .991532 .610701 .514805
3 1 .790923 .010145 .469857
4 1 .182473 .021323 .528492
5 1 .009972 .625949 .519242
6 1 .504005 .451391 .990356
7 1 .490052 .446863 .006847
ITEM: TIMESTEP
100
ITEM: NUMBER OF ATOMS
7
ITEM: BOX BOUNDS ss ss ss
-3.0562 3.2239
-2.5667 3.4255
-2.1529 1.9161
ITEM: ATOMS id type xs ys zs
1 1 .505825 .986681 .480794
2 1 .991711 .610722 .516354
3 1 .790832 .010192 .470511
4 1 .182724 .021322 .529772
5 1 .010060 .626080 .520123
6 1 .503813 .451114 .990068
7 1 .489793 .446982 .009114
ITEM: TIMESTEP
150
ITEM: NUMBER OF ATOMS
7
ITEM: BOX BOUNDS ss ss ss
-3.0461 3.2239
-2.5634 3.4246
-2.1589 1.9250
ITEM: ATOMS id type xs ys zs
1 1 .505075 .986947 .479656
2 1 .991703 .610300 .516141
3 1 .790526 .009502 .470137
4 1 .181751 .020557 .529515
5 1 .008396 .626174 .519520
6 1 .502718 .450674 .987995
7 1 .488611 .446764 .011032
ITEM: TIMESTEP
200
ITEM: NUMBER OF ATOMS
7
ITEM: BOX BOUNDS ss ss ss
-3.0461 3.2239
-2.5634 3.4177
-2.1635 1.9228
ITEM: ATOMS id type xs ys zs
1 1 .505312 .988511 .479703
2 1 .991577 .610182 .516820
3 1 .790651 .008916 .470787
4 1 .182269 .020250 .530318
5 1 .008363 .627074 .520447
6 1 .502458 .451239 .988741
7 1 .488281 .447421 .013117
ITEM: TIMESTEP
250
ITEM: NUMBER OF ATOMS
7
ITEM: BOX BOUNDS ss ss ss
-3.0468 3.2270
-2.5659 3.4151
-2.1648 1.9253
ITEM: ATOMS id type xs ys zs
1 1 .505192 .989435 .479571
2 1 .990902 .610080 .516641
3 1 .790871 .008783 .470299
4 1 .183314 .020208 .530406
5 1 .008559 .627591 .520895
6 1 .502373 .451427 .988294
7 1 .488028 .448199 .014580
ITEM: TIMESTEP
300
ITEM: NUMBER OF ATOMS
7
ITEM: BOX BOUNDS ss ss ss
-3.0462 3.2321
-2.5734 3.4087
-2.1629 1.9355
ITEM: ATOMS id type xs ys zs
1 1 .505309 .991158 .478546
2 1 .990078 .611149 .514895
3 1 .790375 .010207 .468403
4 1 .183349 .020745 .528914
5 1 .008416 .629082 .520677
6 1 .501673 .452532 .985280
7 1 .487317 .450011 .015420
ITEM: TIMESTEP
350
ITEM: NUMBER OF ATOMS
7
ITEM: BOX BOUNDS ss ss ss
-3.0431 3.2382
-2.5722 3.4086
-2.1575 1.9346
ITEM: ATOMS id type xs ys zs
1 1 .505351 .991946 .478639
2 1 .989635 .611122 .514577
3 1 .789654 .010752 .467920
4 1 .182710 .020127 .528412
5 1 .007635 .629337 .521174
6 1 .500878 .453107 .984747
7 1 .485862 .450458 .015520
ITEM: TIMESTEP
400
ITEM: NUMBER OF ATOMS
7
ITEM: BOX BOUNDS ss ss ss
-3.0508 3.2323
-2.5735 3.4142
-2.1460 1.9284
ITEM: ATOMS id type xs ys zs
1 1 .507064 .991765 .478175
2 1 .991392 .610738 .514857
3 1 .790635 .011517 .467279
4 1 .183835 .020241 .527862
5 1 .008590 .629010 .520700
6 1 .501905 .453555 .985495
7 1 .486554 .450799 .013654
ITEM: TIMESTEP
1
ITEM: NUMBER OF ATOMS
7
ITEM: BOX BOUNDS ss ss ss
-3.0395 3.2246
-2.5617 3.4220
-2.1308 1.9168
ITEM: ATOMS id type xs ys zs
1 1 .504629 .987841 .479282
2 1 .991339 .610564 .511802
3 1 .790429 .009062 .468787
4 1 .180413 .020272 .526064
5 1 .007138 .626100 .517212
6 1 .502564 .451249 .989138
7 1 .488664 .446763 .004666
ITEM: TIMESTEP
50
ITEM: NUMBER OF ATOMS
7
ITEM: BOX BOUNDS ss ss ss
-3.0395 3.2246
-2.5617 3.4123
-2.1441 1.9168
ITEM: ATOMS id type xs ys zs
1 1 .504576 .989034 .480396
2 1 .991391 .611735 .514588
3 1 .790309 .009329 .469582
4 1 .180266 .020554 .528242
5 1 .007323 .626988 .518970
6 1 .502647 .451920 .989643
7 1 .488653 .447338 .006998
ITEM: TIMESTEP
100
ITEM: NUMBER OF ATOMS
7
ITEM: BOX BOUNDS ss ss ss
-3.0395 3.2246
-2.5617 3.4123
-2.1567 1.9168
ITEM: ATOMS id type xs ys zs
1 1 .504492 .988715 .481272
2 1 .991670 .611752 .516952
3 1 .790156 .009539 .470668
4 1 .180506 .020574 .530178
5 1 .007434 .627050 .520332
6 1 .502462 .451715 .989995
7 1 .488350 .447511 .009812
ITEM: TIMESTEP
150
ITEM: NUMBER OF ATOMS
7
ITEM: BOX BOUNDS ss ss ss
-3.0443 3.2166
-2.5617 3.4123
-2.1684 1.9215
ITEM: ATOMS id type xs ys zs
1 1 .505800 .988767 .481511
2 1 .993213 .611382 .518188
3 1 .791245 .009759 .471366
4 1 .181868 .020090 .531085
5 1 .008094 .627149 .520743
6 1 .503091 .451534 .988916
7 1 .488966 .447948 .012780
ITEM: TIMESTEP
200
ITEM: NUMBER OF ATOMS
7
ITEM: BOX BOUNDS ss ss ss
-3.0442 3.2258
-2.5617 3.4123
-2.1646 1.9359
ITEM: ATOMS id type xs ys zs
1 1 .505807 .989359 .478704
2 1 .991638 .610893 .515805
3 1 .790089 .009769 .469645
4 1 .182477 .018950 .528325
5 1 .007770 .626903 .518464
6 1 .501651 .451604 .985037
7 1 .487844 .448811 .012572
ITEM: TIMESTEP
250
ITEM: NUMBER OF ATOMS
7
ITEM: BOX BOUNDS ss ss ss
-3.0458 3.2337
-2.5617 3.4120
-2.1607 1.9225
ITEM: ATOMS id type xs ys zs
1 1 .505780 .989886 .479054
2 1 .990197 .610519 .517346
3 1 .789287 .009747 .470821
4 1 .183042 .018398 .529159
5 1 .008113 .626947 .520040
6 1 .500661 .451883 .988392
7 1 .487114 .449114 .012447
ITEM: TIMESTEP
300
ITEM: NUMBER OF ATOMS
7
ITEM: BOX BOUNDS ss ss ss
-3.0432 3.2391
-2.5617 3.4120
-2.1588 1.9331
ITEM: ATOMS id type xs ys zs
1 1 .505194 .990219 .476725
2 1 .989427 .610586 .516019
3 1 .788894 .009841 .469110
4 1 .182679 .018226 .527331
5 1 .007674 .627178 .518720
6 1 .499920 .452014 .985353
7 1 .486150 .449023 .012414
ITEM: TIMESTEP
350
ITEM: NUMBER OF ATOMS
7
ITEM: BOX BOUNDS ss ss ss
-3.0517 3.2315
-2.5552 3.4086
-2.1611 1.9307
ITEM: ATOMS id type xs ys zs
1 1 .506107 .991232 .476206
2 1 .990763 .610790 .516295
3 1 .790552 .009033 .469819
4 1 .184025 .017021 .528394
5 1 .008685 .627442 .519209
6 1 .501210 .451862 .984703
7 1 .487057 .448461 .013106
ITEM: TIMESTEP
400
ITEM: NUMBER OF ATOMS
7
ITEM: BOX BOUNDS ss ss ss
-3.0543 3.2231
-2.5467 3.4088
-2.1613 1.9325
ITEM: ATOMS id type xs ys zs
1 1 .506984 .991564 .474610
2 1 .992195 .610169 .515829
3 1 .792169 .007812 .470246
4 1 .184848 .015786 .528377
5 1 .008921 .627507 .518862
6 1 .502033 .451470 .983788
7 1 .487710 .447347 .013695
ITEM: TIMESTEP
450
ITEM: NUMBER OF ATOMS
7
ITEM: BOX BOUNDS ss ss ss
-3.0541 3.2345
-2.5512 3.4137
-2.1547 1.9188
ITEM: ATOMS id type xs ys zs
1 1 .506527 .991159 .474450
2 1 .990524 .609491 .517059
3 1 .791307 .008518 .471530
4 1 .184879 .016804 .528325
5 1 .008700 .628141 .519680
6 1 .500810 .452283 .987245
7 1 .486548 .447345 .013012
ITEM: TIMESTEP
500
ITEM: NUMBER OF ATOMS
7
ITEM: BOX BOUNDS ss ss ss
-3.0543 3.2444
-2.5545 3.4178
-2.1630 1.9223
ITEM: ATOMS id type xs ys zs
1 1 .506399 .991123 .474831
2 1 .989225 .608968 .518067
3 1 .790231 .008920 .472281
4 1 .184833 .017444 .528403
5 1 .008707 .628494 .519878
6 1 .499894 .453089 .986305
7 1 .485663 .447574 .015888
ITEM: TIMESTEP
550
ITEM: NUMBER OF ATOMS
7
ITEM: BOX BOUNDS ss ss ss
-3.0466 3.2289
-2.5496 3.4187
-2.1498 1.9255
ITEM: ATOMS id type xs ys zs
1 1 .507508 .991435 .471787
2 1 .991987 .608617 .515940
3 1 .791890 .007900 .469837
4 1 .184084 .016733 .527055
5 1 .007543 .628616 .517728
6 1 .500569 .452822 .984972
7 1 .486309 .447003 .013340
ITEM: TIMESTEP
600
ITEM: NUMBER OF ATOMS
7
ITEM: BOX BOUNDS ss ss ss
-3.0545 3.2403
-2.5526 3.4388
-2.1476 1.9228
ITEM: ATOMS id type xs ys zs
1 1 .507116 .988620 .470905
2 1 .990108 .606940 .515750
3 1 .790479 .007731 .469613
4 1 .184567 .017146 .528448
5 1 .008858 .626821 .517238
6 1 .500164 .451634 .985303
7 1 .486675 .445671 .013611
ITEM: TIMESTEP
1
ITEM: NUMBER OF ATOMS
7
ITEM: BOX BOUNDS ss ss ss
-3.0589 3.2314
-2.5567 3.4349
-2.1396 1.9158
ITEM: ATOMS id type xs ys zs
1 1 .505602 .985717 .480526
2 1 .990286 .608936 .512982
3 1 .790216 .008230 .470054
4 1 .182733 .019429 .527219
5 1 .010187 .624452 .518385
6 1 .503549 .449837 .989402
7 1 .489705 .445360 .006828
ITEM: TIMESTEP
50
ITEM: NUMBER OF ATOMS
7
ITEM: BOX BOUNDS ss ss ss
-3.0589 3.2314
-2.5567 3.4349
-2.1458 1.9158
ITEM: ATOMS id type xs ys zs
1 1 .505541 .985301 .480663
2 1 .990328 .609124 .515036
3 1 .790060 .008491 .469881
4 1 .182586 .019704 .528601
5 1 .010419 .624311 .519273
6 1 .503642 .449808 .989947
7 1 .489681 .445214 .007376
ITEM: TIMESTEP
100
ITEM: NUMBER OF ATOMS
7
ITEM: BOX BOUNDS ss ss ss
-3.0589 3.2314
-2.5508 3.4349
-2.1553 1.9158
ITEM: ATOMS id type xs ys zs
1 1 .505470 .985126 .480998
2 1 .990555 .608766 .517031
3 1 .789851 .007583 .470557
4 1 .182797 .018782 .530224
5 1 .010614 .624107 .520287
6 1 .503520 .448989 .990222
7 1 .489382 .444796 .009559
ITEM: TIMESTEP
150
ITEM: NUMBER OF ATOMS
7
ITEM: BOX BOUNDS ss ss ss
-3.0589 3.2314
-2.5527 3.4349
-2.1696 1.9274
ITEM: ATOMS id type xs ys zs
1 1 .505417 .985571 .480421
2 1 .990670 .608818 .517395
3 1 .789780 .007765 .471033
4 1 .183091 .018807 .530328
5 1 .010715 .624685 .520019
6 1 .503296 .449030 .986784
7 1 .488819 .445270 .013694
ITEM: TIMESTEP
200
ITEM: NUMBER OF ATOMS
7
ITEM: BOX BOUNDS ss ss ss
-3.0589 3.2314
-2.5550 3.4349
-2.1601 1.9194
ITEM: ATOMS id type xs ys zs
1 1 .505315 .986113 .479000
2 1 .990599 .608640 .515932
3 1 .789744 .007814 .471124
4 1 .183396 .019017 .529902
5 1 .010732 .625204 .519919
6 1 .503034 .449635 .987874
7 1 .488588 .445699 .012076
ITEM: TIMESTEP
250
ITEM: NUMBER OF ATOMS
7
ITEM: BOX BOUNDS ss ss ss
-3.0589 3.2314
-2.5665 3.4349
-2.1601 1.9204
ITEM: ATOMS id type xs ys zs
1 1 .505248 .986475 .478408
2 1 .990491 .608912 .514161
3 1 .789585 .009183 .471500
4 1 .183894 .021076 .529433
5 1 .010522 .626156 .519819
6 1 .503266 .451121 .987670
7 1 .488485 .446812 .013120
ITEM: TIMESTEP
300
ITEM: NUMBER OF ATOMS
7
ITEM: BOX BOUNDS ss ss ss
-3.0589 3.2314
-2.5692 3.4349
-2.1646 1.9306
ITEM: ATOMS id type xs ys zs
1 1 .504928 .986960 .477386
2 1 .990086 .608613 .511744
3 1 .789428 .008795 .471977
4 1 .184473 .021876 .528041
5 1 .010186 .626630 .518695
6 1 .503556 .451888 .985689
7 1 .488694 .446778 .014772
ITEM: TIMESTEP
350
ITEM: NUMBER OF ATOMS
7
ITEM: BOX BOUNDS ss ss ss
-3.0589 3.2314
-2.5749 3.4349
-2.1595 1.9337
ITEM: ATOMS id type xs ys zs
1 1 .504829 .987422 .475710
2 1 .989809 .608630 .509885
3 1 .789687 .009059 .470882
4 1 .184674 .022918 .527012
5 1 .010042 .627298 .517615
6 1 .503521 .452450 .985009
7 1 .488984 .447276 .014066
ITEM: TIMESTEP
400
ITEM: NUMBER OF ATOMS
7
ITEM: BOX BOUNDS ss ss ss
-3.0589 3.2314
-2.5796 3.4349
-2.1569 1.9190
ITEM: ATOMS id type xs ys zs
1 1 .504832 .987883 .476778
2 1 .989540 .608772 .510833
3 1 .790292 .009512 .471834
4 1 .184621 .023710 .527798
5 1 .010004 .627832 .519420
6 1 .503330 .452636 .987974
7 1 .489097 .447988 .013894
ITEM: TIMESTEP
1
ITEM: NUMBER OF ATOMS
7
ITEM: BOX BOUNDS ss ss ss
-3.0589 3.2314
-2.5663 3.4297
-2.1480 1.9273
ITEM: ATOMS id type xs ys zs
1 1 .505602 .986587 .480251
2 1 .990284 .610086 .512554
3 1 .790216 .009814 .469828
4 1 .182736 .021002 .526720
5 1 .010186 .625589 .517924
6 1 .503550 .451098 .986653
7 1 .489704 .446620 .008859
ITEM: TIMESTEP
50
ITEM: NUMBER OF ATOMS
7
ITEM: BOX BOUNDS ss ss ss
-3.0589 3.2314
-2.5663 3.4297
-2.1480 1.9273
ITEM: ATOMS id type xs ys zs
1 1 .505565 .986145 .479601
2 1 .990331 .610271 .513930
3 1 .790090 .010090 .468733
4 1 .182557 .021324 .527386
5 1 .010417 .625438 .518144
6 1 .503649 .451046 .987212
7 1 .489690 .446475 .007804
ITEM: TIMESTEP
100
ITEM: NUMBER OF ATOMS
7
ITEM: BOX BOUNDS ss ss ss
-3.0589 3.2314
-2.5663 3.4297
-2.1605 1.9273
ITEM: ATOMS id type xs ys zs
1 1 .505458 .985861 .480477
2 1 .990496 .610313 .516373
3 1 .789952 .010250 .469758
4 1 .182904 .021372 .529225
5 1 .010565 .625553 .519696
6 1 .503456 .450773 .987556
7 1 .489450 .446753 .010477
ITEM: TIMESTEP
150
ITEM: NUMBER OF ATOMS
7
ITEM: BOX BOUNDS ss ss ss
-3.0589 3.2314
-2.5663 3.4297
-2.1597 1.9314
ITEM: ATOMS id type xs ys zs
1 1 .505549 .985858 .479258