ITEM: TIMESTEP
1
ITEM: NUMBER OF ATOMS
7
ITEM: BOX BOUNDS ss ss ss
-2.9986 3.1743
-2.5110 3.3531
-2.1153 1.8771
ITEM: ATOMS id type xs ys zs
1 1 .505296 .999413 .482051
2 1 .999188 .613874 .515206
3 1 .795545 .000185 .471205
4 1 .176573 .012145 .529267
5 1 .000771 .630568 .520078
6 1 .503419 .451860 .998455
7 1 .489038 .447202 .000991
ITEM: TIMESTEP
50
ITEM: NUMBER OF ATOMS
7
ITEM: BOX BOUNDS ss ss ss
-3.0191 3.1968
-2.5333 3.3771
-2.1405 1.9024
ITEM: ATOMS id type xs ys zs
1 1 .503028 .995455 .481894
2 1 .994814 .611653 .517362
3 1 .792704 .005148 .471787
4 1 .176968 .016152 .529614
5 1 .006840 .628759 .521170
6 1 .503498 .452891 .992321
7 1 .488840 .446661 .004342
ITEM: TIMESTEP
100
ITEM: NUMBER OF ATOMS
7
ITEM: BOX BOUNDS ss ss ss
-3.0295 3.2073
-2.5430 3.3834
-2.1470 1.9107
ITEM: ATOMS id type xs ys zs
1 1 .503602 .994075 .482477
2 1 .993328 .613099 .514427
3 1 .793998 .005760 .471818
4 1 .179263 .017080 .526567
5 1 .005530 .628100 .521185
6 1 .501596 .453254 .992526
7 1 .488554 .446210 .011383
ITEM: TIMESTEP
150
ITEM: NUMBER OF ATOMS
7
ITEM: BOX BOUNDS ss ss ss
-3.0326 3.2107
-2.5543 3.3897
-2.1468 1.9173
ITEM: ATOMS id type xs ys zs
1 1 .505617 .995785 .476918
2 1 .997355 .613170 .516389
3 1 .789965 .008337 .473615
4 1 .182174 .020194 .528175
5 1 .007477 .631884 .515667
6 1 .503235 .457043 .988270
7 1 .486085 .450023 .010967
ITEM: TIMESTEP
200
ITEM: NUMBER OF ATOMS
7
ITEM: BOX BOUNDS ss ss ss
-3.0384 3.2227
-2.5559 3.4013
-2.1506 1.9169
ITEM: ATOMS id type xs ys zs
1 1 .506980 .992885 .478411
2 1 .996245 .612387 .519980
3 1 .789909 .009204 .478041
4 1 .182407 .021959 .530219
5 1 .008685 .630675 .515016
6 1 .502548 .459310 .987756
7 1 .485861 .451360 .008684
ITEM: TIMESTEP
250
ITEM: NUMBER OF ATOMS
7
ITEM: BOX BOUNDS ss ss ss
-3.0399 3.2300
-2.5631 3.4029
-2.1523 1.9108
ITEM: ATOMS id type xs ys zs
1 1 .504965 .994899 .480571
2 1 .993091 .614492 .506750
3 1 .789230 .007182 .477458
4 1 .183266 .017101 .528562
5 1 .009982 .627661 .516683
6 1 .505626 .454757 .993035
7 1 .490660 .448658 .017396
ITEM: TIMESTEP
300
ITEM: NUMBER OF ATOMS
7
ITEM: BOX BOUNDS ss ss ss
-3.0499 3.2305
-2.5560 3.4094
-2.1437 1.9120
ITEM: ATOMS id type xs ys zs
1 1 .504704 .994013 .480992
2 1 .992995 .615370 .509893
3 1 .789759 .006250 .475561
4 1 .183692 .013257 .527077
5 1 .010557 .626249 .518195
6 1 .506532 .453040 .992140
7 1 .491535 .446055 .014935
ITEM: TIMESTEP
350
ITEM: NUMBER OF ATOMS
7
ITEM: BOX BOUNDS ss ss ss
-3.0567 3.2410
-2.5664 3.4141
-2.1368 1.9127
ITEM: ATOMS id type xs ys zs
1 1 .506964 .994529 .478156
2 1 .988354 .614531 .513076
3 1 .791632 .009294 .472120
4 1 .184561 .016402 .519478
5 1 .010437 .625339 .511907
6 1 .502193 .452944 .984652
7 1 .489036 .450845 .013126
ITEM: TIMESTEP
400
ITEM: NUMBER OF ATOMS
7
ITEM: BOX BOUNDS ss ss ss
-3.0375 3.2325
-2.5736 3.4242
-2.1309 1.9081
ITEM: ATOMS id type xs ys zs
1 1 .508564 .989505 .482760
2 1 .992886 .609042 .502205
3 1 .790016 .009191 .477715
4 1 .185692 .018050 .526799
5 1 .006287 .623914 .514827
6 1 .500341 .450898 .988270
7 1 .490684 .448439 .012518
ITEM: TIMESTEP
1
ITEM: NUMBER OF ATOMS
7
ITEM: BOX BOUNDS ss ss ss
-3.0379 3.2215
-2.5751 3.4043
-2.1154 1.9035
ITEM: ATOMS id type xs ys zs
1 1 .504756 .990714 .479107
2 1 .991756 .613384 .511233
3 1 .790513 .011053 .467854
4 1 .180364 .022435 .526294
5 1 .006782 .628591 .516969
6 1 .502871 .453908 .992317
7 1 .488578 .449145 .000705
ITEM: TIMESTEP
50
ITEM: NUMBER OF ATOMS
7
ITEM: BOX BOUNDS ss ss ss
-3.0379 3.2215
-2.5751 3.4043
-2.1430 1.9002
ITEM: ATOMS id type xs ys zs
1 1 .504735 .989548 .485444
2 1 .993971 .614712 .516278
3 1 .792550 .009717 .471054
4 1 .178786 .022693 .530093
5 1 .007460 .629807 .518332
6 1 .501376 .454663 .993498
7 1 .487035 .449449 .007954
ITEM: TIMESTEP
100
ITEM: NUMBER OF ATOMS
7
ITEM: BOX BOUNDS ss ss ss
-3.0379 3.2215
-2.5751 3.4043
-2.1504 1.9077
ITEM: ATOMS id type xs ys zs
1 1 .503645 .990753 .482894
2 1 .990449 .611058 .518096
3 1 .794449 .012540 .472504
4 1 .182438 .022196 .526236
5 1 .007500 .628641 .518471
6 1 .499793 .452644 .991887
7 1 .489649 .448541 .010113
ITEM: TIMESTEP
150
ITEM: NUMBER OF ATOMS
7
ITEM: BOX BOUNDS ss ss ss
-3.0422 3.2181
-2.5751 3.4043
-2.1530 1.9175
ITEM: ATOMS id type xs ys zs
1 1 .504727 .988039 .481992
2 1 .991933 .610841 .517883
3 1 .796865 .013353 .472359
4 1 .181520 .024563 .525149
5 1 .006739 .627685 .517912
6 1 .498968 .453164 .988255
7 1 .491096 .447968 .012624
ITEM: TIMESTEP
200
ITEM: NUMBER OF ATOMS
7
ITEM: BOX BOUNDS ss ss ss
-3.0398 3.2147
-2.5751 3.4039
-2.1482 1.9234
ITEM: ATOMS id type xs ys zs
1 1 .503315 .994726 .481353
2 1 .992447 .611308 .515223
3 1 .792970 .010496 .463889
4 1 .181967 .020205 .527854
5 1 .003274 .628770 .520685
6 1 .500958 .455664 .985975
7 1 .487404 .450216 .016353
ITEM: TIMESTEP
250
ITEM: NUMBER OF ATOMS
7
ITEM: BOX BOUNDS ss ss ss
-3.0499 3.2238
-2.5629 3.4039
-2.1459 1.9190
ITEM: ATOMS id type xs ys zs
1 1 .501383 .995091 .480486
2 1 .993751 .610958 .517306
3 1 .790523 .006857 .462867
4 1 .182026 .018692 .528962
5 1 .004011 .628156 .521310
6 1 .501185 .453936 .987156
7 1 .487460 .446900 .017150
ITEM: TIMESTEP
300
ITEM: NUMBER OF ATOMS
7
ITEM: BOX BOUNDS ss ss ss
-3.0550 3.2237
-2.5688 3.4056
-2.1523 1.9132
ITEM: ATOMS id type xs ys zs
1 1 .505402 .997479 .480560
2 1 .991678 .612479 .516967
3 1 .791105 .011788 .475938
4 1 .184014 .019493 .526487
5 1 .007243 .635948 .516538
6 1 .501253 .454280 .984503
7 1 .484015 .449249 .014361
ITEM: TIMESTEP
350
ITEM: NUMBER OF ATOMS
7
ITEM: BOX BOUNDS ss ss ss
-3.0565 3.2212
-2.5682 3.4116
-2.1392 1.9065
ITEM: ATOMS id type xs ys zs
1 1 .505587 .990021 .478376
2 1 .994109 .613369 .513867
3 1 .787578 .007357 .478551
4 1 .184702 .016783 .528024
5 1 .006159 .626198 .520309
6 1 .502424 .452825 .986690
7 1 .490666 .449798 .012552
ITEM: TIMESTEP
400
ITEM: NUMBER OF ATOMS
7
ITEM: BOX BOUNDS ss ss ss
-3.0582 3.2295
-2.5581 3.4138
-2.1411 1.9091
ITEM: ATOMS id type xs ys zs
1 1 .504811 .990726 .475254
2 1 .993175 .606650 .511405
3 1 .792828 .006825 .479172
4 1 .189169 .017595 .526699
5 1 .009647 .627748 .520523
6 1 .506234 .452095 .988544
7 1 .487807 .447277 .017269
ITEM: TIMESTEP
1
ITEM: NUMBER OF ATOMS
7
ITEM: BOX BOUNDS ss ss ss
-3.0501 3.2114
-2.5559 3.4131
-2.1318 1.8937
ITEM: ATOMS id type xs ys zs
1 1 .506449 .989687 .482206
2 1 .993422 .611280 .514991
3 1 .792436 .008008 .471637
4 1 .182291 .019506 .529139
5 1 .008818 .626662 .520141
6 1 .504614 .451565 .994607
7 1 .490559 .446748 .004650
ITEM: TIMESTEP
50
ITEM: NUMBER OF ATOMS
7
ITEM: BOX BOUNDS ss ss ss
-3.0501 3.2114
-2.5559 3.4131
-2.1389 1.9049
ITEM: ATOMS id type xs ys zs
1 1 .505642 .989230 .481415
2 1 .993018 .612755 .514628
3 1 .792058 .008319 .470465
4 1 .183415 .020280 .530797
5 1 .010302 .626099 .517838
6 1 .502497 .452515 .993139
7 1 .489872 .446307 .005152
ITEM: TIMESTEP
100
ITEM: NUMBER OF ATOMS
7
ITEM: BOX BOUNDS ss ss ss
-3.0501 3.2134
-2.5559 3.4131
-2.1496 1.9156
ITEM: ATOMS id type xs ys zs
1 1 .504072 .987298 .478563
2 1 .991345 .612911 .512534
3 1 .791060 .010686 .473872
4 1 .181209 .021346 .529819
5 1 .008062 .627639 .517676
6 1 .501440 .450362 .990081
7 1 .489379 .447717 .008688
ITEM: TIMESTEP
150
ITEM: NUMBER OF ATOMS
7
ITEM: BOX BOUNDS ss ss ss
-3.0501 3.2121
-2.5559 3.4131
-2.1487 1.9155
ITEM: ATOMS id type xs ys zs
1 1 .508738 .989197 .482944
2 1 .995085 .613880 .515844
3 1 .791664 .010420 .472340
4 1 .182551 .020107 .528897
5 1 .005889 .627304 .520657
6 1 .505960 .453506 .988867
7 1 .489583 .448249 .008002
ITEM: TIMESTEP
200
ITEM: NUMBER OF ATOMS
7
ITEM: BOX BOUNDS ss ss ss
-3.0501 3.2200
-2.5559 3.4131
-2.1548 1.9296
ITEM: ATOMS id type xs ys zs
1 1 .504624 .989753 .481744
2 1 .992821 .609698 .511874
3 1 .792298 .012245 .469806
4 1 .184818 .017534 .533915
5 1 .006740 .625663 .522200
6 1 .500119 .450431 .985161
7 1 .489746 .449686 .009411
ITEM: TIMESTEP
250
ITEM: NUMBER OF ATOMS
7
ITEM: BOX BOUNDS ss ss ss
-3.0501 3.2248
-2.5583 3.4131
-2.1446 1.9224
ITEM: ATOMS id type xs ys zs
1 1 .507446 .989529 .480095
2 1 .991314 .611495 .514247
3 1 .791079 .010551 .478353
4 1 .181842 .016279 .520534
5 1 .012769 .624238 .516953
6 1 .504242 .451855 .995430
7 1 .489102 .445980 .014159
ITEM: TIMESTEP
300
ITEM: NUMBER OF ATOMS
7
ITEM: BOX BOUNDS ss ss ss
-3.0501 3.2318
-2.5666 3.4131
-2.1520 1.9242
ITEM: ATOMS id type xs ys zs
1 1 .503650 .992473 .479138
2 1 .991375 .610266 .512761
3 1 .786455 .009055 .470711
4 1 .179768 .015977 .526017
5 1 .007687 .628037 .520610
6 1 .500108 .453713 .986376
7 1 .486417 .446899 .016397
ITEM: TIMESTEP
350
ITEM: NUMBER OF ATOMS
7
ITEM: BOX BOUNDS ss ss ss
-3.0436 3.2388
-2.5676 3.4214
-2.1479 1.9274
ITEM: ATOMS id type xs ys zs
1 1 .502709 .989986 .474577
2 1 .989523 .608947 .513674
3 1 .784533 .008679 .468735
4 1 .179326 .017471 .525805
5 1 .007344 .625710 .521229
6 1 .500439 .454711 .985128
7 1 .488144 .446386 .014957
ITEM: TIMESTEP
400
ITEM: NUMBER OF ATOMS
7
ITEM: BOX BOUNDS ss ss ss
-3.0553 3.2340
-2.5693 3.4046
-2.1539 1.9170
ITEM: ATOMS id type xs ys zs
1 1 .501017 .989446 .477065
2 1 .990075 .611733 .507561
3 1 .790318 .009649 .474216
4 1 .183224 .013792 .525437
5 1 .004670 .627216 .516788
6 1 .503798 .450816 .982555
7 1 .486769 .447002 .007480
ITEM: TIMESTEP
1
ITEM: NUMBER OF ATOMS
7
ITEM: BOX BOUNDS ss ss ss
-3.0514 3.2042
-2.5756 3.4026
-2.1435 1.9266
ITEM: ATOMS id type xs ys zs
1 1 .507164 .990959 .479361
2 1 .994435 .613657 .512344
3 1 .793477 .011425 .469239
4 1 .182602 .022606 .526151
5 1 .008986 .628989 .517725
6 1 .505243 .454209 .986648
7 1 .491136 .449462 .007858
ITEM: TIMESTEP
50
ITEM: NUMBER OF ATOMS
7
ITEM: BOX BOUNDS ss ss ss
-3.0514 3.2042
-2.5756 3.4026
-2.1435 1.9266
ITEM: ATOMS id type xs ys zs
1 1 .507826 .990034 .477488
2 1 .994177 .613657 .513777
3 1 .794963 .012330 .467838
4 1 .182841 .020613 .527500
5 1 .007632 .629048 .516263
6 1 .504352 .453096 .987772
7 1 .492118 .447714 .006542
ITEM: TIMESTEP
100
ITEM: NUMBER OF ATOMS
7
ITEM: BOX BOUNDS ss ss ss
-3.0514 3.2079
-2.5756 3.4026
-2.1484 1.9266
ITEM: ATOMS id type xs ys zs
1 1 .502070 .989274 .475578
2 1 .993734 .610123 .518567
3 1 .793431 .010848 .469085
4 1 .181295 .022657 .524198
5 1 .008477 .631099 .520850
6 1 .506484 .452261 .987702
7 1 .491564 .448350 .010165
ITEM: TIMESTEP
150
ITEM: NUMBER OF ATOMS
7
ITEM: BOX BOUNDS ss ss ss
-3.0514 3.2146
-2.5711 3.4026
-2.1523 1.9266
ITEM: ATOMS id type xs ys zs
1 1 .505398 .991918 .483186
2 1 .995913 .610205 .512501
3 1 .792496 .009988 .472182
4 1 .181942 .023834 .528962
5 1 .009473 .628766 .517886
6 1 .503434 .451189 .986534
7 1 .489908 .450243 .006395
ITEM: TIMESTEP
200
ITEM: NUMBER OF ATOMS
7
ITEM: BOX BOUNDS ss ss ss
-3.0514 3.2200
-2.5711 3.4026
-2.1552 1.9266
ITEM: ATOMS id type xs ys zs
1 1 .505510 .991503 .470960
2 1 .994440 .612959 .515199
3 1 .793931 .014682 .468084
4 1 .183503 .021511 .524649
5 1 .008849 .629948 .514997
6 1 .500596 .451116 .988854
7 1 .487293 .451210 .012599
ITEM: TIMESTEP
250
ITEM: NUMBER OF ATOMS
7
ITEM: BOX BOUNDS ss ss ss
-3.0548 3.2215
-2.5711 3.4062
-2.1584 1.9287
ITEM: ATOMS id type xs ys zs
1 1 .509864 .991557 .480577
2 1 .992510 .611407 .516289
3 1 .790634 .011111 .470311
4 1 .182634 .020720 .526917
5 1 .008233 .633271 .520889
6 1 .502512 .450977 .980753
7 1 .490765 .452895 .015519
ITEM: TIMESTEP
300
ITEM: NUMBER OF ATOMS
7
ITEM: BOX BOUNDS ss ss ss
-3.0514 3.2218
-2.5711 3.4038
-2.1478 1.9266
ITEM: ATOMS id type xs ys zs
1 1 .507118 .993972 .476425
2 1 .994547 .613567 .518873
3 1 .790275 .009246 .468074
4 1 .179610 .019733 .527472
5 1 .005980 .632039 .513687
6 1 .498584 .455117 .975031
7 1 .485824 .449362 .013211
ITEM: TIMESTEP
350
ITEM: NUMBER OF ATOMS
7
ITEM: BOX BOUNDS ss ss ss
-3.0586 3.2330
-2.5711 3.4143
-2.1537 1.9153
ITEM: ATOMS id type xs ys zs
1 1 .505938 .991342 .479485
2 1 .993747 .613115 .521127
3 1 .787794 .008355 .467778
4 1 .180389 .019018 .533732
5 1 .007471 .631170 .517060
6 1 .497097 .454812 .977498
7 1 .484179 .447772 .013998
ITEM: TIMESTEP
400
ITEM: NUMBER OF ATOMS
7
ITEM: BOX BOUNDS ss ss ss
-3.0554 3.2272
-2.5650 3.4097
-2.1540 1.9159
ITEM: ATOMS id type xs ys zs
1 1 .509601 .989816 .483910
2 1 .996319 .614560 .515566
3 1 .790945 .011250 .477270
4 1 .183074 .017868 .534131
5 1 .006379 .627980 .523615
6 1 .503141 .452481 .982239
7 1 .484136 .450163 .013358
ITEM: TIMESTEP
1
ITEM: NUMBER OF ATOMS
7
ITEM: BOX BOUNDS ss ss ss
-3.0514 3.2263
-2.5706 3.4030
-2.1438 1.9099
ITEM: ATOMS id type xs ys zs
1 1 .505720 .990776 .481808
2 1 .991000 .613140 .514122
3 1 .790427 .010656 .471565
4 1 .181791 .022108 .528517
5 1 .009093 .628853 .519099
6 1 .503352 .453531 .990745
7 1 .489460 .448917 .007715
ITEM: TIMESTEP
50
ITEM: NUMBER OF ATOMS
7
ITEM: BOX BOUNDS ss ss ss
-3.0514 3.2263
-2.5706 3.4030
-2.1459 1.9060
ITEM: ATOMS id type xs ys zs
1 1 .504136 .990447 .481231
2 1 .990251 .614101 .517336
3 1 .790726 .009464 .470107
4 1 .181007 .020314 .532089
5 1 .010949 .631398 .518990
6 1 .503041 .454785 .992406
7 1 .489701 .448389 .006712
ITEM: TIMESTEP
100
ITEM: NUMBER OF ATOMS
7
ITEM: BOX BOUNDS ss ss ss
-3.0514 3.2263
-2.5706 3.4030
-2.1629 1.9132
ITEM: ATOMS id type xs ys zs
1 1 .505293 .992827 .483766
2 1 .992141 .615300 .513527
3 1 .791634 .012547 .475138
4 1 .183576 .022562 .529584
5 1 .011434 .630384 .523944
6 1 .503628 .454602 .988395
7 1 .490497 .448808 .011449
ITEM: TIMESTEP
150
ITEM: NUMBER OF ATOMS
7
ITEM: BOX BOUNDS ss ss ss
-3.0507 3.2263
-2.5706 3.4030
-2.1588 1.9236
ITEM: ATOMS id type xs ys zs
1 1 .503851 .990356 .481102
2 1 .992457 .613993 .515580
3 1 .790668 .010203 .469928
4 1 .180556 .023229 .533073
5 1 .010591 .630730 .525842
6 1 .503424 .451862 .985663
7 1 .491711 .453989 .013742
ITEM: TIMESTEP
200
ITEM: NUMBER OF ATOMS
7
ITEM: BOX BOUNDS ss ss ss
-3.0498 3.2229
-2.5706 3.4030
-2.1567 1.9238
ITEM: ATOMS id type xs ys zs
1 1 .506558 .986433 .477056
2 1 .994685 .609519 .513807
3 1 .793001 .012259 .473459
4 1 .182540 .020297 .524955
5 1 .010438 .631522 .516524
6 1 .503616 .454107 .983512
7 1 .492951 .448707 .008059
ITEM: TIMESTEP
250
ITEM: NUMBER OF ATOMS
7
ITEM: BOX BOUNDS ss ss ss
-3.0498 3.2230
-2.5572 3.4030
-2.1546 1.9308
ITEM: ATOMS id type xs ys zs
1 1 .506524 .987950 .480529
2 1 .994016 .608343 .512084
3 1 .791340 .007899 .469899
4 1 .184731 .019483 .526059
5 1 .005329 .624937 .511244
6 1 .506426 .454406 .984722
7 1 .493054 .446040 .007898
ITEM: TIMESTEP
300
ITEM: NUMBER OF ATOMS
7
ITEM: BOX BOUNDS ss ss ss
-3.0498 3.2185
-2.5637 3.4059
-2.1576 1.9283
ITEM: ATOMS id type xs ys zs
1 1 .507835 .989735 .474012
2 1 .994296 .611805 .510054
3 1 .796487 .010965 .473997
4 1 .183454 .020432 .525897
5 1 .008799 .627933 .517447
6 1 .502958 .454014 .983826
7 1 .491041 .449346 .013002
ITEM: TIMESTEP
350
ITEM: NUMBER OF ATOMS
7
ITEM: BOX BOUNDS ss ss ss
-3.0425 3.2259
-2.5590 3.4142
-2.1571 1.9249
ITEM: ATOMS id type xs ys zs
1 1 .500943 .995187 .476792
2 1 .989231 .611046 .511662
3 1 .795287 .005257 .470427
4 1 .181342 .016877 .529658
5 1 .005506 .627674 .525172
6 1 .501600 .449130 .983582
7 1 .487714 .445781 .021159
ITEM: TIMESTEP
400
ITEM: NUMBER OF ATOMS
7
ITEM: BOX BOUNDS ss ss ss
-3.0504 3.2282
-2.5690 3.4114
-2.1501 1.9328
ITEM: ATOMS id type xs ys zs
1 1 .501195 .995692 .473963
2 1 .986430 .612626 .510655
3 1 .793600 .008519 .467061
4 1 .184235 .019743 .526319
5 1 .008655 .627941 .525311
6 1 .500902 .450088 .980053
7 1 .486145 .444929 .020201
ITEM: TIMESTEP
1
ITEM: NUMBER OF ATOMS
7
ITEM: BOX BOUNDS ss ss ss
-3.0376 3.2260
-2.5638 3.4119
-2.1394 1.9075
ITEM: ATOMS id type xs ys zs
1 1 .504312 .989693 .480983
2 1 .991089 .611728 .514141
3 1 .790047 .009783 .470978
4 1 .180042 .020458 .528161
5 1 .006938 .627470 .519818
6 1 .502404 .452159 .991204
7 1 .488330 .447750 .006818
ITEM: TIMESTEP
50
ITEM: NUMBER OF ATOMS
7
ITEM: BOX BOUNDS ss ss ss
-3.0376 3.2260
-2.5638 3.4119
-2.1439 1.9075
ITEM: ATOMS id type xs ys zs
1 1 .504629 .989117 .480903
2 1 .990860 .612126 .512824
3 1 .790080 .009116 .471740
4 1 .179432 .019889 .532077
5 1 .005718 .628110 .521866
6 1 .500079 .450702 .993310
7 1 .491006 .447630 .008585
ITEM: TIMESTEP
100
ITEM: NUMBER OF ATOMS
7
ITEM: BOX BOUNDS ss ss ss
-3.0376 3.2260
-2.5638 3.4119
-2.1511 1.9180
ITEM: ATOMS id type xs ys zs
1 1 .502047 .987709 .481407
2 1 .991839 .612818 .516558
3 1 .788394 .009150 .471378
4 1 .179937 .019392 .528705
5 1 .007164 .629932 .519152
6 1 .501675 .451034 .989012
7 1 .487171 .447594 .010066
ITEM: TIMESTEP
150
ITEM: NUMBER OF ATOMS
7
ITEM: BOX BOUNDS ss ss ss
-3.0376 3.2260
-2.5638 3.4119
-2.1647 1.9199
ITEM: ATOMS id type xs ys zs
1 1 .503979 .986459 .478885
2 1 .991123 .613337 .521537
3 1 .786478 .011315 .472244
4 1 .180750 .020745 .530939
5 1 .009477 .629554 .522075
6 1 .501442 .451058 .987163
7 1 .486216 .446683 .010065
ITEM: TIMESTEP
200
ITEM: NUMBER OF ATOMS
7
ITEM: BOX BOUNDS ss ss ss
-3.0432 3.2260
-2.5611 3.4119
-2.1705 1.9252
ITEM: ATOMS id type xs ys zs
1 1 .502431 .988428 .480220
2 1 .987979 .613801 .514276
3 1 .790473 .007981 .470643
4 1 .179530 .021425 .531756
5 1 .007086 .630072 .515190
6 1 .502918 .453436 .988543
7 1 .485889 .450533 .017581
ITEM: TIMESTEP
250
ITEM: NUMBER OF ATOMS
7
ITEM: BOX BOUNDS ss ss ss
-3.0534 3.2260
-2.5646 3.4119
-2.1615 1.9252
ITEM: ATOMS id type xs ys zs
1 1 .505259 .994742 .472962
2 1 .994872 .611750 .511769
3 1 .787376 .010912 .470131
4 1 .185402 .023020 .527893
5 1 .010545 .625208 .521295
6 1 .504973 .460057 .986221
7 1 .490791 .448817 .012177
ITEM: TIMESTEP
300
ITEM: NUMBER OF ATOMS
7
ITEM: BOX BOUNDS ss ss ss
-3.0524 3.2239
-2.5650 3.4100
-2.1611 1.9230
ITEM: ATOMS id type xs ys zs
1 1 .504525 .986346 .478913
2 1 .993070 .612153 .510065
3 1 .790007 .007246 .468393
4 1 .179472 .020940 .527657
5 1 .008633 .629485 .518622
6 1 .502839 .450663 .986784
7 1 .492135 .446396 .017338
ITEM: TIMESTEP
350
ITEM: NUMBER OF ATOMS
7
ITEM: BOX BOUNDS ss ss ss
-3.0527 3.2279
-2.5714 3.4088
-2.1563 1.9358
ITEM: ATOMS id type xs ys zs
1 1 .502801 .991265 .483825
2 1 .987876 .611465 .518670
3 1 .788901 .007753 .470188
4 1 .183533 .020300 .530076
5 1 .004281 .627272 .524413
6 1 .496614 .451027 .983106
7 1 .492422 .453516 .013920
ITEM: TIMESTEP
400
ITEM: NUMBER OF ATOMS
7
ITEM: BOX BOUNDS ss ss ss
-3.0560 3.2290
-2.5676 3.4209
-2.1484 1.9285
ITEM: ATOMS id type xs ys zs
1 1 .511810 .993625 .481265
2 1 .987499 .610292 .509175
3 1 .788078 .007777 .477258
4 1 .179866 .019308 .526782
5 1 .013536 .629783 .516917
6 1 .500257 .446103 .985466
7 1 .492245 .450138 .013775
ITEM: TIMESTEP
1
ITEM: NUMBER OF ATOMS
7
ITEM: BOX BOUNDS ss ss ss
-3.0562 3.2239
-2.5667 3.4255
-2.1394 1.9138
ITEM: ATOMS id type xs ys zs
1 1 .505834 .987254 .481015
2 1 .991706 .610471 .512839
3 1 .791241 .009987 .470120
4 1 .182421 .020932 .527575
5 1 .009752 .626051 .518378
6 1 .503978 .451461 .989354
7 1 .490000 .446990 .006562
ITEM: TIMESTEP
50
ITEM: NUMBER OF ATOMS
7
ITEM: BOX BOUNDS ss ss ss
-3.0562 3.2239
-2.5667 3.4255
-2.1431 1.9138
ITEM: ATOMS id type xs ys zs
1 1 .507180 .986945 .481392
2 1 .992812 .611733 .512679
3 1 .791733 .009295 .467574
4 1 .181588 .021717 .530068
5 1 .008312 .624418 .518510
6 1 .503648 .452301 .988543
7 1 .491297 .447595 .005848
ITEM: TIMESTEP
100
ITEM: NUMBER OF ATOMS
7
ITEM: BOX BOUNDS ss ss ss
-3.0562 3.2239
-2.5667 3.4255
-2.1529 1.9161
ITEM: ATOMS id type xs ys zs
1 1 .505278 .985898 .484748
2 1 .991656 .611393 .513736
3 1 .789943 .009527 .470042
4 1 .180503 .020726 .529351
5 1 .009864 .626763 .518325
6 1 .503146 .450047 .993341
7 1 .490221 .449284 .008855
ITEM: TIMESTEP
150
ITEM: NUMBER OF ATOMS
7
ITEM: BOX BOUNDS ss ss ss
-3.0461 3.2239
-2.5634 3.4246
-2.1589 1.9250
ITEM: ATOMS id type xs ys zs
1 1 .502384 .986001 .483552
2 1 .991872 .609664 .515568
3 1 .791598 .009115 .472331
4 1 .180092 .021353 .528801
5 1 .007152 .626375 .518430
6 1 .502622 .449901 .991328
7 1 .489873 .451911 .011886
ITEM: TIMESTEP
200
ITEM: NUMBER OF ATOMS
7
ITEM: BOX BOUNDS ss ss ss
-3.0461 3.2239
-2.5634 3.4177
-2.1635 1.9228
ITEM: ATOMS id type xs ys zs
1 1 .502324 .986741 .479658
2 1 .991601 .609509 .515766
3 1 .792226 .008351 .469790
4 1 .179861 .023175 .532648
5 1 .008869 .627546 .516984
6 1 .504351 .451288 .990731
7 1 .488801 .452058 .011719
ITEM: TIMESTEP
250
ITEM: NUMBER OF ATOMS
7
ITEM: BOX BOUNDS ss ss ss
-3.0468 3.2270
-2.5659 3.4151
-2.1648 1.9253
ITEM: ATOMS id type xs ys zs
1 1 .504305 .989280 .482532
2 1 .990909 .608040 .514359
3 1 .795432 .008071 .477448
4 1 .184054 .021520 .532801
5 1 .007528 .624374 .520829
6 1 .503805 .449922 .989026
7 1 .488292 .447134 .021303
ITEM: TIMESTEP
300
ITEM: NUMBER OF ATOMS
7
ITEM: BOX BOUNDS ss ss ss
-3.0462 3.2321
-2.5734 3.4087
-2.1629 1.9355
ITEM: ATOMS id type xs ys zs
1 1 .504498 .989613 .480914
2 1 .988353 .609132 .516625
3 1 .796454 .011134 .475460
4 1 .184675 .024574 .531977
5 1 .007091 .625971 .522481
6 1 .501001 .452101 .985377
7 1 .486567 .447510 .018492
ITEM: TIMESTEP
350
ITEM: NUMBER OF ATOMS
7
ITEM: BOX BOUNDS ss ss ss
-3.0431 3.2382
-2.5722 3.4086
-2.1575 1.9346
ITEM: ATOMS id type xs ys zs
1 1 .508113 .993682 .480218
2 1 .989387 .612501 .517828
3 1 .789369 .011798 .464789
4 1 .180238 .017733 .531841
5 1 .008926 .631570 .520798
6 1 .496139 .451235 .990352
7 1 .485191 .453001 .020019
ITEM: TIMESTEP
400
ITEM: NUMBER OF ATOMS
7
ITEM: BOX BOUNDS ss ss ss
-3.0508 3.2323
-2.5735 3.4142
-2.1460 1.9284
ITEM: ATOMS id type xs ys zs
1 1 .503962 .993915 .476553
2 1 .987602 .612989 .517496
3 1 .792548 .009813 .464667
4 1 .185318 .016722 .534323
5 1 .008888 .628064 .520981
6 1 .499400 .456857 .984586
7 1 .488069 .452212 .015620
ITEM: TIMESTEP
1
ITEM: NUMBER OF ATOMS
7
ITEM: BOX BOUNDS ss ss ss
-3.0395 3.2246
-2.5617 3.4220
-2.1308 1.9168
ITEM: ATOMS id type xs ys zs
1 1 .504869 .987836 .479498
2 1 .991482 .610651 .511615
3 1 .790529 .008982 .468755
4 1 .180257 .020413 .526118
5 1 .007253 .626052 .517742
6 1 .502534 .451460 .989479
7 1 .488658 .446728 .004199
ITEM: TIMESTEP
50
ITEM: NUMBER OF ATOMS
7
ITEM: BOX BOUNDS ss ss ss
-3.0395 3.2246
-2.5617 3.4123
-2.1441 1.9168
ITEM: ATOMS id type xs ys zs
1 1 .503730 .990732 .483616
2 1 .993548 .611580 .514364
3 1 .791520 .008418 .465899
4 1 .180414 .021794 .529495
5 1 .009292 .625670 .520008
6 1 .502567 .451144 .990334
7 1 .488501 .446317 .003829
ITEM: TIMESTEP
100
ITEM: NUMBER OF ATOMS
7
ITEM: BOX BOUNDS ss ss ss
-3.0395 3.2246
-2.5617 3.4123
-2.1567 1.9168
ITEM: ATOMS id type xs ys zs
1 1 .505161 .987904 .483342
2 1 .994575 .614299 .520044
3 1 .789879 .010509 .468915
4 1 .179379 .020351 .531549
5 1 .008472 .626975 .525219
6 1 .502585 .452412 .988316
7 1 .486972 .449416 .011632
ITEM: TIMESTEP
150
ITEM: NUMBER OF ATOMS
7
ITEM: BOX BOUNDS ss ss ss
-3.0443 3.2166
-2.5617 3.4123
-2.1684 1.9215
ITEM: ATOMS id type xs ys zs
1 1 .507416 .988860 .477564
2 1 .991390 .609628 .517531
3 1 .793146 .010338 .466397
4 1 .180233 .024208 .527490
5 1 .008758 .630106 .523460
6 1 .504737 .451748 .986865
7 1 .485745 .449559 .012699
ITEM: TIMESTEP
200
ITEM: NUMBER OF ATOMS
7
ITEM: BOX BOUNDS ss ss ss
-3.0442 3.2258
-2.5617 3.4123
-2.1646 1.9359
ITEM: ATOMS id type xs ys zs
1 1 .507617 .987381 .475977
2 1 .988411 .608803 .517216
3 1 .794031 .010084 .463619
4 1 .179343 .023044 .523160
5 1 .009535 .628762 .521238
6 1 .504988 .452123 .987039
7 1 .483350 .448660 .012417
ITEM: TIMESTEP
250
ITEM: NUMBER OF ATOMS
7
ITEM: BOX BOUNDS ss ss ss
-3.0458 3.2337
-2.5617 3.4120
-2.1607 1.9225
ITEM: ATOMS id type xs ys zs
1 1 .507891 .991811 .481670
2 1 .985812 .610025 .519941
3 1 .789907 .010745 .465540
4 1 .186518 .017952 .524938
5 1 .009994 .626267 .519688
6 1 .499092 .451221 .982259
7 1 .486922 .451858 .011810
ITEM: TIMESTEP
300
ITEM: NUMBER OF ATOMS
7
ITEM: BOX BOUNDS ss ss ss
-3.0432 3.2391
-2.5617 3.4120
-2.1588 1.9331
ITEM: ATOMS id type xs ys zs
1 1 .504917 .989007 .481141
2 1 .986785 .612221 .518183
3 1 .789292 .004849 .470409
4 1 .180523 .020193 .531733
5 1 .009378 .626899 .520148
6 1 .501450 .449037 .989994
7 1 .485032 .443756 .013670
ITEM: TIMESTEP
350
ITEM: NUMBER OF ATOMS
7
ITEM: BOX BOUNDS ss ss ss
-3.0517 3.2315
-2.5552 3.4086
-2.1611 1.9307
ITEM: ATOMS id type xs ys zs
1 1 .506222 .992130 .475525
2 1 .992528 .611461 .521789
3 1 .791424 .007387 .467813
4 1 .184793 .014036 .530567
5 1 .012672 .624500 .523243
6 1 .503201 .446503 .989333
7 1 .489741 .450198 .014094
ITEM: TIMESTEP
400
ITEM: NUMBER OF ATOMS
7
ITEM: BOX BOUNDS ss ss ss
-3.0543 3.2231
-2.5467 3.4088
-2.1613 1.9325
ITEM: ATOMS id type xs ys zs
1 1 .508045 .992646 .472114
2 1 .994781 .611665 .522446
3 1 .793743 .007814 .466068
4 1 .185282 .012862 .533571
5 1 .012510 .622312 .521176
6 1 .504447 .445413 .987548
7 1 .490416 .450397 .014806
ITEM: TIMESTEP
450
ITEM: NUMBER OF ATOMS
7
ITEM: BOX BOUNDS ss ss ss
-3.0541 3.2345
-2.5512 3.4137
-2.1547 1.9188
ITEM: ATOMS id type xs ys zs
1 1 .504564 .991260 .473703
2 1 .987955 .609418 .515206
3 1 .792669 .007523 .475037
4 1 .183805 .017722 .522258
5 1 .009216 .632080 .523842
6 1 .501658 .450176 .988841
7 1 .491705 .446026 .013728
ITEM: TIMESTEP
500
ITEM: NUMBER OF ATOMS
7
ITEM: BOX BOUNDS ss ss ss
-3.0543 3.2444
-2.5545 3.4178
-2.1630 1.9223
ITEM: ATOMS id type xs ys zs
1 1 .504293 .990133 .474436
2 1 .985721 .607878 .516384
3 1 .791315 .005831 .474528
4 1 .182830 .016931 .521850
5 1 .009755 .633536 .527083
6 1 .498438 .448298 .989918
7 1 .491041 .445995 .015021
ITEM: TIMESTEP
550
ITEM: NUMBER OF ATOMS
7
ITEM: BOX BOUNDS ss ss ss
-3.0466 3.2289
-2.5496 3.4187
-2.1498 1.9255
ITEM: ATOMS id type xs ys zs
1 1 .503621 .988565 .470709
2 1 .987769 .606314 .516063
3 1 .793449 .006355 .475710
4 1 .185931 .012841 .521590
5 1 .009925 .628056 .519999
6 1 .497730 .450385 .991847
7 1 .485804 .445695 .011149
ITEM: TIMESTEP
600
ITEM: NUMBER OF ATOMS
7
ITEM: BOX BOUNDS ss ss ss
-3.0545 3.2403
-2.5526 3.4388
-2.1476 1.9228
ITEM: ATOMS id type xs ys zs
1 1 .509032 .987266 .466481
2 1 .993544 .609669 .512761
3 1 .788539 .009037 .463103
4 1 .182550 .018500 .522552
5 1 .008269 .624685 .519373
6 1 .500645 .452278 .976347
7 1 .482963 .445234 .012281
ITEM: TIMESTEP
1
ITEM: NUMBER OF ATOMS
7
ITEM: BOX BOUNDS ss ss ss
-3.0589 3.2314
-2.5567 3.4349
-2.1396 1.9158
ITEM: ATOMS id type xs ys zs
1 1 .505604 .985495 .480585
2 1 .990420 .609041 .512955
3 1 .790259 .008290 .469786
4 1 .182652 .019094 .527391
5 1 .010220 .624384 .518376
6 1 .503316 .449769 .988886
7 1 .489915 .445351 .006916
ITEM: TIMESTEP
50
ITEM: NUMBER OF ATOMS
7
ITEM: BOX BOUNDS ss ss ss
-3.0589 3.2314
-2.5567 3.4349
-2.1458 1.9158
ITEM: ATOMS id type xs ys zs
1 1 .504212 .984294 .483151
2 1 .989594 .611584 .517086
3 1 .789260 .007819 .469940
4 1 .182594 .017979 .527946
5 1 .011406 .624605 .519909
6 1 .503328 .448223 .987762
7 1 .489701 .446599 .002892
ITEM: TIMESTEP
100
ITEM: NUMBER OF ATOMS
7
ITEM: BOX BOUNDS ss ss ss
-3.0589 3.2314
-2.5508 3.4349
-2.1553 1.9158
ITEM: ATOMS id type xs ys zs
1 1 .507476 .984349 .479162
2 1 .988643 .609006 .517186
3 1 .790720 .008663 .469002
4 1 .185002 .019794 .530865
5 1 .009394 .627078 .514796
6 1 .501561 .448864 .989106
7 1 .490488 .445220 .006223
ITEM: TIMESTEP
150
ITEM: NUMBER OF ATOMS
7
ITEM: BOX BOUNDS ss ss ss
-3.0589 3.2314
-2.5527 3.4349
-2.1696 1.9274
ITEM: ATOMS id type xs ys zs
1 1 .503531 .989666 .480563
2 1 .988900 .608574 .520014
3 1 .790225 .006005 .470278
4 1 .184377 .017997 .533351
5 1 .010815 .626312 .520407
6 1 .501918 .448097 .984754
7 1 .491377 .446368 .014984
ITEM: TIMESTEP
200
ITEM: NUMBER OF ATOMS
7
ITEM: BOX BOUNDS ss ss ss
-3.0589 3.2314
-2.5550 3.4349
-2.1601 1.9194
ITEM: ATOMS id type xs ys zs
1 1 .502917 .990495 .480086
2 1 .988153 .608721 .522830
3 1 .790889 .005290 .469612
4 1 .186035 .018665 .532010
5 1 .012575 .625631 .517871
6 1 .502708 .447610 .988215
7 1 .493763 .443841 .013835
ITEM: TIMESTEP
250
ITEM: NUMBER OF ATOMS
7
ITEM: BOX BOUNDS ss ss ss
-3.0589 3.2314
-2.5665 3.4349
-2.1601 1.9204
ITEM: ATOMS id type xs ys zs
1 1 .504790 .990122 .473699
2 1 .992635 .605980 .508006
3 1 .787939 .004952 .475154
4 1 .188818 .021146 .536922
5 1 .010381 .623902 .521298
6 1 .507687 .451576 .989268
7 1 .492815 .444877 .018582
ITEM: TIMESTEP
300
ITEM: NUMBER OF ATOMS
7
ITEM: BOX BOUNDS ss ss ss
-3.0589 3.2314
-2.5692 3.4349
-2.1646 1.9306
ITEM: ATOMS id type xs ys zs
1 1 .508359 .984310 .483902
2 1 .988071 .611322 .511813
3 1 .790477 .011459 .466718
4 1 .184799 .018525 .526318
5 1 .009855 .627148 .521086
6 1 .499058 .451623 .985078
7 1 .483546 .447056 .018037
ITEM: TIMESTEP
350
ITEM: NUMBER OF ATOMS
7
ITEM: BOX BOUNDS ss ss ss
-3.0589 3.2314
-2.5749 3.4349
-2.1595 1.9337
ITEM: ATOMS id type xs ys zs
1 1 .503072 .988441 .473317
2 1 .988482 .610121 .507276
3 1 .788414 .008693 .464905
4 1 .182993 .022177 .524400
5 1 .010455 .626987 .519428
6 1 .504233 .450680 .980583
7 1 .487211 .452888 .013967
ITEM: TIMESTEP
400
ITEM: NUMBER OF ATOMS
7
ITEM: BOX BOUNDS ss ss ss
-3.0589 3.2314
-2.5796 3.4349
-2.1569 1.9190
ITEM: ATOMS id type xs ys zs
1 1 .505631 .983624 .473557
2 1 .991178 .608525 .514129
3 1 .788172 .012411 .467682
4 1 .182734 .026447 .528569
5 1 .006483 .632923 .520617
6 1 .500349 .453218 .987681
7 1 .485054 .448593 .012722
ITEM: TIMESTEP
1
ITEM: NUMBER OF ATOMS
7
ITEM: BOX BOUNDS ss ss ss
-3.0589 3.2314
-2.5663 3.4297
-2.1480 1.9273
ITEM: ATOMS id type xs ys zs
1 1 .505283 .986723 .480833
2 1 .990393 .610408 .512462
3 1 .790304 .009907 .469966
4 1 .182815 .020758 .526598
5 1 .009846 .625446 .517875
6 1 .503567 .450781 .986770
7 1 .489735 .446930 .008774
ITEM: TIMESTEP
50
ITEM: NUMBER OF ATOMS
7
ITEM: BOX BOUNDS ss ss ss
-3.0589 3.2314
-2.5663 3.4297
-2.1480 1.9273
ITEM: ATOMS id type xs ys zs
1 1 .505800 .985469 .479749
2 1 .989011 .611397 .513468
3 1 .790345 .009736 .469366
4 1 .182423 .022154 .526715
5 1 .011490 .625126 .517333
6 1 .504311 .451045 .987239
7 1 .488763 .444805 .007060
ITEM: TIMESTEP
100
ITEM: NUMBER OF ATOMS
7
ITEM: BOX BOUNDS ss ss ss
-3.0589 3.2314
-2.5663 3.4297
-2.1605 1.9273
ITEM: ATOMS id type xs ys zs
1 1 .504129 .985741 .479397
2 1 .991264 .609593 .514203
3 1 .790331 .008552 .471771
4 1 .184161 .019523 .530776
5 1 .011539 .625819 .523144
6 1 .503501 .450877 .987653
7 1 .490011 .443996 .010475
ITEM: TIMESTEP
150
ITEM: NUMBER OF ATOMS
7
ITEM: BOX BOUNDS ss ss ss
-3.0589 3.2314
-2.5663 3.4297
-2.1597 1.9314
ITEM: ATOMS id type xs ys zs
1 1 .504128 .985687 .478765