ITEM: TIMESTEP
1
ITEM: NUMBER OF ATOMS
7
ITEM: BOX BOUNDS ss ss ss
-2.9028 3.1756
-2.4795 3.4130
-1.9963 1.9971
ITEM: ATOMS id type xs ys zs
1 1 .502817 .999436 .564600
2 1 .999030 .616116 .551925
3 1 .800137 .000991 .456649
4 1 .172090 .004857 .425554
5 1 .000581 .625045 .513774
6 1 .486884 .411962 .999266
7 1 .500566 .471340 .000730
ITEM: TIMESTEP
50
ITEM: NUMBER OF ATOMS
7
ITEM: BOX BOUNDS ss ss ss
-2.9278 3.1952
-2.4972 3.4362
-2.0195 2.0202
ITEM: ATOMS id type xs ys zs
1 1 .503750 .996483 .564296
2 1 .995937 .615898 .551576
3 1 .799131 .004652 .456197
4 1 .173681 .007291 .428080
5 1 .005413 .625368 .511963
6 1 .490438 .413898 .993644
7 1 .499769 .471126 .006248
ITEM: TIMESTEP
100
ITEM: NUMBER OF ATOMS
7
ITEM: BOX BOUNDS ss ss ss
-2.9374 3.1999
-2.5090 3.4495
-2.0273 2.0354
ITEM: ATOMS id type xs ys zs
1 1 .504173 .992009 .565384
2 1 .995626 .611480 .552338
3 1 .797936 .006439 .457843
4 1 .174529 .008301 .426861
5 1 .007587 .622611 .509469
6 1 .488768 .410435 .988808
7 1 .503285 .471011 .007659
ITEM: TIMESTEP
150
ITEM: NUMBER OF ATOMS
7
ITEM: BOX BOUNDS ss ss ss
-2.9444 3.2066
-2.5159 3.4533
-2.0229 2.0303
ITEM: ATOMS id type xs ys zs
1 1 .505108 .991750 .562038
2 1 .992751 .613053 .547385
3 1 .796397 .004940 .460721
4 1 .178401 .008811 .422396
5 1 .008704 .619204 .511485
6 1 .489770 .413484 .992701
7 1 .503477 .472878 .010668
ITEM: TIMESTEP
200
ITEM: NUMBER OF ATOMS
7
ITEM: BOX BOUNDS ss ss ss
-2.9454 3.2111
-2.5177 3.4492
-2.0301 2.0346
ITEM: ATOMS id type xs ys zs
1 1 .503336 .991311 .561221
2 1 .996558 .611820 .552072
3 1 .798118 .004975 .459468
4 1 .177490 .012228 .419917
5 1 .005464 .624683 .515886
6 1 .486507 .412753 .988861
7 1 .504882 .472423 .014262
ITEM: TIMESTEP
250
ITEM: NUMBER OF ATOMS
7
ITEM: BOX BOUNDS ss ss ss
-2.9529 3.2137
-2.5251 3.4569
-2.0336 2.0339
ITEM: ATOMS id type xs ys zs
1 1 .504506 .990420 .560670
2 1 .994048 .611004 .553772
3 1 .800009 .008044 .451542
4 1 .179326 .015745 .425042
5 1 .004191 .622783 .512362
6 1 .489294 .410643 .984726
7 1 .503451 .477743 .008473
ITEM: TIMESTEP
300
ITEM: NUMBER OF ATOMS
7
ITEM: BOX BOUNDS ss ss ss
-2.9634 3.2142
-2.5251 3.4507
-2.0195 2.0391
ITEM: ATOMS id type xs ys zs
1 1 .505304 .990570 .559244
2 1 .994140 .609946 .551124
3 1 .799434 .007330 .451925
4 1 .179407 .015890 .423308
5 1 .006901 .623247 .509254
6 1 .488465 .411165 .984615
7 1 .505380 .476858 .007228
ITEM: TIMESTEP
350
ITEM: NUMBER OF ATOMS
7
ITEM: BOX BOUNDS ss ss ss
-2.9723 3.2204
-2.5352 3.4495
-2.0214 2.0309
ITEM: ATOMS id type xs ys zs
1 1 .505919 .991914 .561610
2 1 .994308 .610086 .552718
3 1 .796256 .008529 .457038
4 1 .179093 .016295 .427540
5 1 .009830 .626386 .512826
6 1 .491109 .419794 .990060
7 1 .506221 .477516 .016321
ITEM: TIMESTEP
400
ITEM: NUMBER OF ATOMS
7
ITEM: BOX BOUNDS ss ss ss
-2.9807 3.2256
-2.5367 3.4439
-2.0195 2.0286
ITEM: ATOMS id type xs ys zs
1 1 .506895 .993787 .561320
2 1 .990999 .611091 .550038
3 1 .794279 .009711 .450203
4 1 .180083 .015878 .424891
5 1 .008914 .624436 .511758
6 1 .487682 .419111 .989098
7 1 .504874 .479648 .014060
ITEM: TIMESTEP
1
ITEM: NUMBER OF ATOMS
7
ITEM: BOX BOUNDS ss ss ss
-2.9691 3.2142
-2.5114 3.4252
-1.9960 1.9969
ITEM: ATOMS id type xs ys zs
1 1 .505254 .997114 .564589
2 1 .993156 .617273 .552585
3 1 .796846 .006273 .457239
4 1 .180023 .010195 .424909
5 1 .011556 .625507 .513836
6 1 .489418 .413988 .999506
7 1 .503026 .473116 .001136
ITEM: TIMESTEP
50
ITEM: NUMBER OF ATOMS
7
ITEM: BOX BOUNDS ss ss ss
-2.9691 3.2142
-2.5114 3.4342
-2.0199 2.0212
ITEM: ATOMS id type xs ys zs
1 1 .505525 .995687 .564206
2 1 .992465 .615723 .549832
3 1 .797459 .007327 .457538
4 1 .179440 .009279 .423969
5 1 .010296 .626415 .513200
6 1 .489383 .413382 .996166
7 1 .501718 .472402 .008176
ITEM: TIMESTEP
100
ITEM: NUMBER OF ATOMS
7
ITEM: BOX BOUNDS ss ss ss
-2.9691 3.2142
-2.5114 3.4410
-2.0352 2.0297
ITEM: ATOMS id type xs ys zs
1 1 .507565 .994946 .564499
2 1 .992926 .617397 .551026
3 1 .795089 .008878 .460937
4 1 .182588 .010546 .423775
5 1 .010988 .623800 .516504
6 1 .489742 .413146 .992439
7 1 .503685 .472008 .014016
ITEM: TIMESTEP
150
ITEM: NUMBER OF ATOMS
7
ITEM: BOX BOUNDS ss ss ss
-2.9691 3.2142
-2.5114 3.4462
-2.0412 2.0342
ITEM: ATOMS id type xs ys zs
1 1 .507096 .996064 .558872
2 1 .993505 .613433 .553391
3 1 .798597 .003939 .457867
4 1 .181904 .010005 .430993
5 1 .009168 .619926 .515051
6 1 .492381 .411953 .990904
7 1 .504734 .472577 .014580
ITEM: TIMESTEP
200
ITEM: NUMBER OF ATOMS
7
ITEM: BOX BOUNDS ss ss ss
-2.9691 3.2142
-2.5175 3.4475
-2.0191 2.0396
ITEM: ATOMS id type xs ys zs
1 1 .505375 .995628 .555341
2 1 .993284 .613841 .548290
3 1 .799978 .007262 .453420
4 1 .179710 .012297 .421008
5 1 .009179 .623309 .509408
6 1 .486474 .413312 .985999
7 1 .506455 .473517 .014849
ITEM: TIMESTEP
250
ITEM: NUMBER OF ATOMS
7
ITEM: BOX BOUNDS ss ss ss
-2.9691 3.2144
-2.5187 3.4530
-2.0169 2.0354
ITEM: ATOMS id type xs ys zs
1 1 .504707 .994456 .559909
2 1 .994300 .612632 .545797
3 1 .799509 .007160 .451393
4 1 .178288 .012493 .421243
5 1 .007252 .622096 .509242
6 1 .487433 .414712 .988087
7 1 .509065 .472410 .015149
ITEM: TIMESTEP
300
ITEM: NUMBER OF ATOMS
7
ITEM: BOX BOUNDS ss ss ss
-2.9694 3.2204
-2.5220 3.4572
-2.0132 2.0220
ITEM: ATOMS id type xs ys zs
1 1 .506069 .990599 .557436
2 1 .992033 .609028 .543476
3 1 .797437 .007161 .452282
4 1 .178315 .016880 .420486
5 1 .007502 .624549 .511118
6 1 .489117 .415426 .989067
7 1 .505764 .478377 .014506
ITEM: TIMESTEP
350
ITEM: NUMBER OF ATOMS
7
ITEM: BOX BOUNDS ss ss ss
-2.9804 3.2213
-2.5251 3.4467
-2.0225 2.0318
ITEM: ATOMS id type xs ys zs
1 1 .506181 .994391 .556681
2 1 .992009 .609696 .544159
3 1 .797285 .008854 .450626
4 1 .178298 .018258 .421632
5 1 .011077 .626808 .508709
6 1 .491008 .415858 .987925
7 1 .508196 .479216 .015446
ITEM: TIMESTEP
400
ITEM: NUMBER OF ATOMS
7
ITEM: BOX BOUNDS ss ss ss
-2.9945 3.2203
-2.5300 3.4540
-2.0228 2.0269
ITEM: ATOMS id type xs ys zs
1 1 .501109 .989144 .568015
2 1 .991322 .609115 .548707
3 1 .799636 .007053 .453145
4 1 .186249 .020666 .426353
5 1 .007321 .627032 .514479
6 1 .490934 .416544 .986188
7 1 .508219 .477401 .013396
ITEM: TIMESTEP
1
ITEM: NUMBER OF ATOMS
7
ITEM: BOX BOUNDS ss ss ss
-2.9794 3.2142
-2.5114 3.4321
-1.9963 2.0076
ITEM: ATOMS id type xs ys zs
1 1 .506006 .996331 .562987
2 1 .993107 .616687 .551050
3 1 .796875 .006261 .455871
4 1 .181572 .010475 .424194
5 1 .013142 .624867 .512567
6 1 .490325 .413556 .996512
7 1 .503594 .472368 .001007
ITEM: TIMESTEP
50
ITEM: NUMBER OF ATOMS
7
ITEM: BOX BOUNDS ss ss ss
-2.9794 3.2142
-2.5114 3.4380
-2.0219 2.0190
ITEM: ATOMS id type xs ys zs
1 1 .505372 .999015 .563464
2 1 .992061 .616874 .549211
3 1 .797145 .005780 .456872
4 1 .181925 .007405 .424667
5 1 .014461 .626368 .512952
6 1 .489271 .410765 .995649
7 1 .504293 .473030 .006256
ITEM: TIMESTEP
100
ITEM: NUMBER OF ATOMS
7
ITEM: BOX BOUNDS ss ss ss
-2.9794 3.2142
-2.5169 3.4435
-2.0279 2.0352
ITEM: ATOMS id type xs ys zs
1 1 .504212 .993249 .562685
2 1 .989972 .613454 .550458
3 1 .796407 .007583 .457447
4 1 .182440 .008518 .423612
5 1 .012449 .624908 .512613
6 1 .491297 .411686 .992635
7 1 .502372 .474728 .004947
ITEM: TIMESTEP
150
ITEM: NUMBER OF ATOMS
7
ITEM: BOX BOUNDS ss ss ss
-2.9794 3.2142
-2.5171 3.4471
-2.0357 2.0348
ITEM: ATOMS id type xs ys zs
1 1 .505787 .995976 .563069
2 1 .992578 .613905 .558995
3 1 .799258 .006580 .454291
4 1 .177759 .011216 .427650
5 1 .011677 .624519 .514333
6 1 .491252 .415431 .993131
7 1 .505499 .472070 .012393
ITEM: TIMESTEP
200
ITEM: NUMBER OF ATOMS
7
ITEM: BOX BOUNDS ss ss ss
-2.9794 3.2142
-2.5228 3.4458
-2.0300 2.0392
ITEM: ATOMS id type xs ys zs
1 1 .506771 .995593 .561890
2 1 .990840 .614706 .543690
3 1 .797880 .009007 .455900
4 1 .181770 .011698 .418133
5 1 .010124 .625971 .509951
6 1 .490131 .413326 .987766
7 1 .504127 .475186 .012975
ITEM: TIMESTEP
250
ITEM: NUMBER OF ATOMS
7
ITEM: BOX BOUNDS ss ss ss
-2.9794 3.2142
-2.5196 3.4482
-2.0185 2.0334
ITEM: ATOMS id type xs ys zs
1 1 .506613 .990521 .569867
2 1 .993412 .614701 .548999
3 1 .800711 .003180 .451108
4 1 .178278 .013432 .424690
5 1 .007532 .627333 .505017
6 1 .487324 .415177 .980898
7 1 .502938 .473510 .012912
ITEM: TIMESTEP
300
ITEM: NUMBER OF ATOMS
7
ITEM: BOX BOUNDS ss ss ss
-2.9691 3.2143
-2.5124 3.4517
-2.0230 2.0311
ITEM: ATOMS id type xs ys zs
1 1 .499969 .994349 .561403
2 1 .995101 .613353 .547278
3 1 .800656 .005422 .451894
4 1 .176462 .013682 .428103
5 1 .005825 .623770 .508812
6 1 .492538 .415381 .980167
7 1 .506921 .472112 .015463
ITEM: TIMESTEP
350
ITEM: NUMBER OF ATOMS
7
ITEM: BOX BOUNDS ss ss ss
-2.9771 3.2195
-2.5247 3.4444
-2.0246 2.0320
ITEM: ATOMS id type xs ys zs
1 1 .499146 .993206 .563364
2 1 .996088 .612709 .544118
3 1 .799305 .003881 .450552
4 1 .181373 .015352 .428408
5 1 .005026 .623717 .506390
6 1 .491456 .416419 .982832
7 1 .507914 .472936 .020603
ITEM: TIMESTEP
400
ITEM: NUMBER OF ATOMS
7
ITEM: BOX BOUNDS ss ss ss
-2.9845 3.2252
-2.5292 3.4503
-2.0200 2.0074
ITEM: ATOMS id type xs ys zs
1 1 .500863 .991243 .566413
2 1 .993881 .613165 .549945
3 1 .799320 .003289 .451331
4 1 .182026 .016005 .431370
5 1 .006299 .624906 .508153
6 1 .490449 .413616 .993057
7 1 .508312 .472438 .021010
ITEM: TIMESTEP
1
ITEM: NUMBER OF ATOMS
7
ITEM: BOX BOUNDS ss ss ss
-2.9789 3.2223
-2.5098 3.4198
-1.9959 2.0004
ITEM: ATOMS id type xs ys zs
1 1 .505310 .998398 .564500
2 1 .991806 .617937 .551305
3 1 .796013 .005749 .456910
4 1 .181224 .009884 .424982
5 1 .013082 .626199 .512890
6 1 .489725 .414369 .998530
7 1 .502717 .473931 .000698
ITEM: TIMESTEP
50
ITEM: NUMBER OF ATOMS
7
ITEM: BOX BOUNDS ss ss ss
-2.9789 3.2223
-2.5098 3.4431
-2.0256 2.0240
ITEM: ATOMS id type xs ys zs
1 1 .505747 .995893 .566959
2 1 .991863 .615661 .552144
3 1 .795260 .006292 .455898
4 1 .181569 .008867 .428712
5 1 .013548 .626138 .513382
6 1 .491295 .412941 .995195
7 1 .503290 .472072 .007487
ITEM: TIMESTEP
100
ITEM: NUMBER OF ATOMS
7
ITEM: BOX BOUNDS ss ss ss
-2.9789 3.2223
-2.5098 3.4453
-2.0318 2.0310
ITEM: ATOMS id type xs ys zs
1 1 .505182 .995270 .564991
2 1 .989659 .616329 .549280
3 1 .796270 .007189 .458552
4 1 .181924 .007775 .430384
5 1 .012260 .621461 .514064
6 1 .490058 .412976 .989462
7 1 .503058 .473721 .008799
ITEM: TIMESTEP
150
ITEM: NUMBER OF ATOMS
7
ITEM: BOX BOUNDS ss ss ss
-2.9789 3.2223
-2.5265 3.4471
-2.0254 2.0378
ITEM: ATOMS id type xs ys zs
1 1 .505817 .994860 .563566
2 1 .989051 .616828 .549465
3 1 .798961 .010463 .460344
4 1 .181642 .009631 .429453
5 1 .011734 .621228 .513474
6 1 .489194 .414795 .986201
7 1 .502396 .477114 .008257
ITEM: TIMESTEP
200
ITEM: NUMBER OF ATOMS
7
ITEM: BOX BOUNDS ss ss ss
-2.9789 3.2223
-2.5266 3.4548
-2.0349 2.0434
ITEM: ATOMS id type xs ys zs
1 1 .505000 .990710 .567685
2 1 .990744 .615037 .546592
3 1 .796364 .007495 .454549
4 1 .183167 .014581 .426626
5 1 .012628 .621920 .510581
6 1 .490762 .415082 .989143
7 1 .504288 .473048 .007591
ITEM: TIMESTEP
250
ITEM: NUMBER OF ATOMS
7
ITEM: BOX BOUNDS ss ss ss
-2.9789 3.2223
-2.5358 3.4576
-2.0208 2.0385
ITEM: ATOMS id type xs ys zs
1 1 .505251 .987345 .564080
2 1 .991757 .613580 .545862
3 1 .796956 .004367 .448402
4 1 .179987 .013022 .424960
5 1 .009475 .624739 .515830
6 1 .489635 .412694 .979732
7 1 .505442 .472866 .014947
ITEM: TIMESTEP
300
ITEM: NUMBER OF ATOMS
7
ITEM: BOX BOUNDS ss ss ss
-2.9789 3.2223
-2.5318 3.4538
-2.0221 2.0398
ITEM: ATOMS id type xs ys zs
1 1 .504579 .987204 .564458
2 1 .989965 .615352 .546562
3 1 .796891 .001546 .448201
4 1 .181590 .011041 .428113
5 1 .010854 .626481 .515872
6 1 .490254 .414032 .980573
7 1 .504488 .470647 .014421
ITEM: TIMESTEP
350
ITEM: NUMBER OF ATOMS
7
ITEM: BOX BOUNDS ss ss ss
-2.9789 3.2223
-2.5405 3.4484
-2.0245 2.0342
ITEM: ATOMS id type xs ys zs
1 1 .502858 .988744 .570146
2 1 .989856 .613986 .545344
3 1 .797546 .006450 .455236
4 1 .182980 .013396 .427223
5 1 .008935 .625676 .521106
6 1 .488605 .413666 .991933
7 1 .503350 .475688 .022236
ITEM: TIMESTEP
400
ITEM: NUMBER OF ATOMS
7
ITEM: BOX BOUNDS ss ss ss
-2.9789 3.2288
-2.5581 3.4545
-2.0036 2.0306
ITEM: ATOMS id type xs ys zs
1 1 .506583 .991245 .571090
2 1 .990702 .613004 .537069
3 1 .793756 .009869 .449593
4 1 .179640 .016358 .421406
5 1 .008135 .627830 .510993
6 1 .490097 .415926 .984937
7 1 .503240 .475093 .010511
ITEM: TIMESTEP
1
ITEM: NUMBER OF ATOMS
7
ITEM: BOX BOUNDS ss ss ss
-2.9789 3.2223
-2.5179 3.4198
-1.9964 2.0004
ITEM: ATOMS id type xs ys zs
1 1 .505238 .998149 .564244
2 1 .991620 .618322 .552032
3 1 .796091 .007310 .456924
4 1 .181142 .011340 .425141
5 1 .012933 .627002 .513489
6 1 .489758 .415151 .998206
7 1 .502874 .474401 .001028
ITEM: TIMESTEP
50
ITEM: NUMBER OF ATOMS
7
ITEM: BOX BOUNDS ss ss ss
-2.9789 3.2223
-2.5179 3.4406
-2.0218 2.0220
ITEM: ATOMS id type xs ys zs
1 1 .505214 .994607 .564723
2 1 .989839 .615987 .557618
3 1 .796741 .009512 .459260
4 1 .180345 .010549 .425673
5 1 .012825 .623810 .513357
6 1 .489554 .414109 .991760
7 1 .501341 .472286 .003662
ITEM: TIMESTEP
100
ITEM: NUMBER OF ATOMS
7
ITEM: BOX BOUNDS ss ss ss
-2.9789 3.2223
-2.5179 3.4464
-2.0286 2.0344
ITEM: ATOMS id type xs ys zs
1 1 .505919 .994094 .559448
2 1 .989174 .614964 .556385
3 1 .796690 .009994 .456531
4 1 .179635 .012326 .426955
5 1 .014893 .621802 .514640
6 1 .488789 .412759 .989006
7 1 .500289 .473612 .004401
ITEM: TIMESTEP
150
ITEM: NUMBER OF ATOMS
7
ITEM: BOX BOUNDS ss ss ss
-2.9789 3.2223
-2.5203 3.4556
-2.0354 2.0407
ITEM: ATOMS id type xs ys zs
1 1 .503865 .990456 .563639
2 1 .992265 .615130 .553169
3 1 .797383 .005856 .456933
4 1 .179581 .010633 .425657
5 1 .012077 .621437 .511600
6 1 .490418 .412275 .985471
7 1 .502880 .473247 .013674
ITEM: TIMESTEP
200
ITEM: NUMBER OF ATOMS
7
ITEM: BOX BOUNDS ss ss ss
-2.9789 3.2223
-2.5179 3.4566
-2.0308 2.0399
ITEM: ATOMS id type xs ys zs
1 1 .505023 .990672 .563457
2 1 .990443 .614568 .553238
3 1 .797406 .005530 .457000
4 1 .177290 .008423 .424133
5 1 .013304 .618995 .510923
6 1 .490895 .409835 .985252
7 1 .504724 .470607 .010014
ITEM: TIMESTEP
250
ITEM: NUMBER OF ATOMS
7
ITEM: BOX BOUNDS ss ss ss
-2.9789 3.2223
-2.5275 3.4544
-2.0303 2.0383
ITEM: ATOMS id type xs ys zs
1 1 .508146 .991479 .563507
2 1 .989548 .612106 .544888
3 1 .794208 .009238 .457191
4 1 .183234 .011927 .429379
5 1 .011852 .622885 .513729
6 1 .493368 .414724 .988823
7 1 .503253 .475402 .011227
ITEM: TIMESTEP
300
ITEM: NUMBER OF ATOMS
7
ITEM: BOX BOUNDS ss ss ss
-2.9789 3.2223
-2.5364 3.4592
-2.0274 2.0534
ITEM: ATOMS id type xs ys zs
1 1 .505408 .990377 .564521
2 1 .992291 .615899 .546955
3 1 .794198 .012898 .456192
4 1 .178660 .010755 .431403
5 1 .011552 .622960 .513133
6 1 .489452 .417325 .989108
7 1 .503618 .474410 .017097
ITEM: TIMESTEP
350
ITEM: NUMBER OF ATOMS
7
ITEM: BOX BOUNDS ss ss ss
-2.9789 3.2223
-2.5363 3.4679
-2.0203 2.0477
ITEM: ATOMS id type xs ys zs
1 1 .504053 .992185 .556679
2 1 .986834 .614905 .547724
3 1 .800758 .009452 .456724
4 1 .179154 .017916 .415426
5 1 .012475 .625091 .518241
6 1 .487778 .414921 .982226
7 1 .504915 .473178 .018180
ITEM: TIMESTEP
400
ITEM: NUMBER OF ATOMS
7
ITEM: BOX BOUNDS ss ss ss
-2.9789 3.2223
-2.5364 3.4617
-2.0214 2.0390
ITEM: ATOMS id type xs ys zs
1 1 .506284 .993066 .557303
2 1 .993262 .614170 .544866
3 1 .798749 .012994 .455292
4 1 .178850 .017700 .423008
5 1 .012580 .624512 .508070
6 1 .488429 .418202 .990171
7 1 .503999 .479678 .014572
ITEM: TIMESTEP
1
ITEM: NUMBER OF ATOMS
7
ITEM: BOX BOUNDS ss ss ss
-2.9789 3.2223
-2.5184 3.4452
-1.9961 2.0078
ITEM: ATOMS id type xs ys zs
1 1 .505396 .994126 .563520
2 1 .991697 .615634 .551458
3 1 .796104 .007199 .455378
4 1 .181184 .011385 .424280
5 1 .012848 .624160 .512344
6 1 .489790 .413600 .996069
7 1 .502856 .472224 .001404
ITEM: TIMESTEP
50
ITEM: NUMBER OF ATOMS
7
ITEM: BOX BOUNDS ss ss ss
-2.9789 3.2223
-2.5184 3.4452
-2.0230 2.0256
ITEM: ATOMS id type xs ys zs
1 1 .503383 .993689 .563098
2 1 .990800 .615978 .557024
3 1 .796710 .007345 .457743
4 1 .180611 .011443 .427443
5 1 .013470 .624782 .514675
6 1 .491701 .413151 .987325
7 1 .503894 .470001 .009083
ITEM: TIMESTEP
100
ITEM: NUMBER OF ATOMS
7
ITEM: BOX BOUNDS ss ss ss
-2.9789 3.2223
-2.5184 3.4489
-2.0377 2.0386
ITEM: ATOMS id type xs ys zs
1 1 .506574 .992070 .563635
2 1 .990107 .615855 .555695
3 1 .796820 .012077 .455501
4 1 .181633 .011695 .427895
5 1 .015561 .619467 .511586
6 1 .487580 .415483 .990097
7 1 .504944 .468838 .009385
ITEM: TIMESTEP
150
ITEM: NUMBER OF ATOMS
7
ITEM: BOX BOUNDS ss ss ss
-2.9789 3.2223
-2.5184 3.4541
-2.0392 2.0365
ITEM: ATOMS id type xs ys zs
1 1 .504079 .990240 .564153
2 1 .991417 .616025 .554024
3 1 .795404 .006798 .454592
4 1 .180577 .010245 .423020
5 1 .014533 .621553 .517862
6 1 .487800 .410153 .984824
7 1 .501039 .473881 .009539
ITEM: TIMESTEP
200
ITEM: NUMBER OF ATOMS
7
ITEM: BOX BOUNDS ss ss ss
-2.9789 3.2223
-2.5211 3.4470
-2.0351 2.0420
ITEM: ATOMS id type xs ys zs
1 1 .504050 .993920 .556338
2 1 .988108 .614507 .544674
3 1 .795441 .005987 .450559
4 1 .182781 .012082 .423179
5 1 .009926 .623148 .518140
6 1 .488881 .416205 .986506
7 1 .501762 .471643 .014064
ITEM: TIMESTEP
250
ITEM: NUMBER OF ATOMS
7
ITEM: BOX BOUNDS ss ss ss
-2.9789 3.2223
-2.5267 3.4571
-2.0391 2.0395
ITEM: ATOMS id type xs ys zs
1 1 .504937 .992206 .553591
2 1 .989287 .613629 .543744
3 1 .793741 .006419 .450386
4 1 .182784 .011260 .422287
5 1 .011185 .623553 .521596
6 1 .488799 .414596 .989124
7 1 .501406 .470373 .013395
ITEM: TIMESTEP
300
ITEM: NUMBER OF ATOMS
7
ITEM: BOX BOUNDS ss ss ss
-2.9789 3.2223
-2.5262 3.4613
-2.0357 2.0421
ITEM: ATOMS id type xs ys zs
1 1 .504682 .987735 .561648
2 1 .985994 .612032 .544065
3 1 .797664 .007930 .452413
4 1 .180455 .013751 .425384
5 1 .008877 .623392 .510722
6 1 .488815 .414142 .986395
7 1 .501908 .468985 .014891
ITEM: TIMESTEP
350
ITEM: NUMBER OF ATOMS
7
ITEM: BOX BOUNDS ss ss ss
-2.9789 3.2223
-2.5255 3.4635
-2.0249 2.0467
ITEM: ATOMS id type xs ys zs
1 1 .506844 .985415 .557216
2 1 .988913 .609354 .549428
3 1 .795702 .007512 .460210
4 1 .184457 .011584 .422353
5 1 .004830 .618710 .510646
6 1 .490539 .418639 .991529
7 1 .506128 .470619 .014105
ITEM: TIMESTEP
400
ITEM: NUMBER OF ATOMS
7
ITEM: BOX BOUNDS ss ss ss
-2.9689 3.2110
-2.5204 3.4666
-2.0270 2.0327
ITEM: ATOMS id type xs ys zs
1 1 .501246 .993523 .555083
2 1 .991582 .612661 .541718
3 1 .800580 .007349 .454333
4 1 .183109 .013083 .420959
5 1 .006774 .625008 .527652
6 1 .488136 .411022 .983325
7 1 .502416 .476656 .017593
ITEM: TIMESTEP
1
ITEM: NUMBER OF ATOMS
7
ITEM: BOX BOUNDS ss ss ss
-2.9654 3.1937
-2.4994 3.4312
-1.9960 2.0221
ITEM: ATOMS id type xs ys zs
1 1 .506778 .996499 .561193
2 1 .996164 .615814 .548788
3 1 .799555 .004101 .454287
4 1 .180063 .008181 .422586
5 1 .011019 .624256 .510505
6 1 .491001 .412464 .992249
7 1 .504120 .471906 .001048
ITEM: TIMESTEP
50
ITEM: NUMBER OF ATOMS
7
ITEM: BOX BOUNDS ss ss ss
-2.9654 3.1949
-2.5001 3.4370
-2.0247 2.0241
ITEM: ATOMS id type xs ys zs
1 1 .505289 .994072 .562549
2 1 .996841 .616619 .552766
3 1 .800495 .003213 .456464
4 1 .181399 .007660 .422441
5 1 .012474 .624005 .515647
6 1 .490505 .410562 .992778
7 1 .504640 .472013 .010427
ITEM: TIMESTEP
100
ITEM: NUMBER OF ATOMS
7
ITEM: BOX BOUNDS ss ss ss
-2.9654 3.2000
-2.5067 3.4547
-2.0395 2.0348
ITEM: ATOMS id type xs ys zs
1 1 .507523 .994746 .561532
2 1 .992501 .614979 .552563
3 1 .797342 .007504 .458759
4 1 .180244 .008519 .427531
5 1 .011246 .623725 .516351
6 1 .488340 .410536 .993863
7 1 .504495 .468671 .013464
ITEM: TIMESTEP
150
ITEM: NUMBER OF ATOMS
7
ITEM: BOX BOUNDS ss ss ss
-2.9654 3.1996
-2.5101 3.4601
-2.0312 2.0445
ITEM: ATOMS id type xs ys zs
1 1 .506284 .993280 .557827
2 1 .993685 .614872 .548596
3 1 .799232 .010270 .456429
4 1 .178063 .009737 .425641
5 1 .012729 .618092 .515857
6 1 .492243 .414891 .989099
7 1 .503386 .471067 .013583
ITEM: TIMESTEP
200
ITEM: NUMBER OF ATOMS
7
ITEM: BOX BOUNDS ss ss ss
-2.9654 3.2041
-2.5129 3.4555
-2.0326 2.0522
ITEM: ATOMS id type xs ys zs
1 1 .508938 .989026 .556348
2 1 .994966 .613784 .544668
3 1 .796867 .007718 .459002
4 1 .178978 .007586 .419198
5 1 .009256 .623578 .505166
6 1 .491320 .412895 .988618
7 1 .504078 .470556 .010183
ITEM: TIMESTEP
250
ITEM: NUMBER OF ATOMS
7
ITEM: BOX BOUNDS ss ss ss
-2.9654 3.1996
-2.5115 3.4658
-2.0295 2.0406
ITEM: ATOMS id type xs ys zs
1 1 .506828 .991196 .557210
2 1 .991438 .610718 .551992
3 1 .799192 .006677 .458104
4 1 .177752 .011569 .429864
5 1 .009542 .623158 .510950
6 1 .490603 .411679 .988256
7 1 .505771 .470278 .010119
ITEM: TIMESTEP
300
ITEM: NUMBER OF ATOMS
7
ITEM: BOX BOUNDS ss ss ss
-2.9654 3.2026
-2.5140 3.4661
-2.0181 2.0453
ITEM: ATOMS id type xs ys zs
1 1 .507561 .991243 .561865
2 1 .993703 .608881 .545870
3 1 .801896 .008911 .457814
4 1 .178853 .008522 .425407
5 1 .008184 .621679 .508797
6 1 .487805 .413215 .988935
7 1 .501849 .471658 .005731
ITEM: TIMESTEP
350
ITEM: NUMBER OF ATOMS
7
ITEM: BOX BOUNDS ss ss ss
-2.9654 3.2084
-2.5181 3.4663
-2.0107 2.0394
ITEM: ATOMS id type xs ys zs
1 1 .506772 .993403 .557365
2 1 .995623 .614349 .540445
3 1 .798403 .005879 .459468
4 1 .178850 .015476 .430913
5 1 .011746 .623868 .510098
6 1 .493158 .414726 .989144
7 1 .507419 .470430 .010729
ITEM: TIMESTEP
400
ITEM: NUMBER OF ATOMS
7
ITEM: BOX BOUNDS ss ss ss
-2.9654 3.2134
-2.5143 3.4521
-2.0232 2.0465
ITEM: ATOMS id type xs ys zs
1 1 .507673 .994140 .551309
2 1 .991954 .614643 .546554
3 1 .799015 .008435 .455506
4 1 .179092 .013875 .433101
5 1 .005681 .627718 .509914
6 1 .486545 .415875 .985108
7 1 .505227 .471544 .017969
ITEM: TIMESTEP
1
ITEM: NUMBER OF ATOMS
7
ITEM: BOX BOUNDS ss ss ss
-2.9654 3.2035
-2.5022 3.4382
-1.9962 2.0221
ITEM: ATOMS id type xs ys zs
1 1 .505677 .994902 .561172
2 1 .994993 .615642 .549270
3 1 .798002 .004678 .454456
4 1 .179557 .008468 .422760
5 1 .010830 .624026 .510601
6 1 .490268 .412157 .992822
7 1 .503142 .471506 .001357
ITEM: TIMESTEP
50
ITEM: NUMBER OF ATOMS
7
ITEM: BOX BOUNDS ss ss ss
-2.9654 3.2035
-2.5022 3.4428
-2.0248 2.0252
ITEM: ATOMS id type xs ys zs
1 1 .503981 .993739 .563430
2 1 .995068 .614758 .548516
3 1 .797638 .005075 .457437
4 1 .178587 .007585 .425275
5 1 .009094 .625723 .516772
6 1 .490689 .410400 .993077
7 1 .501842 .472337 .007218
ITEM: TIMESTEP
100
ITEM: NUMBER OF ATOMS
7
ITEM: BOX BOUNDS ss ss ss
-2.9654 3.2037
-2.5075 3.4486
-2.0344 2.0329
ITEM: ATOMS id type xs ys zs
1 1 .504739 .993329 .565931
2 1 .992838 .614921 .554499
3 1 .796203 .006745 .456393
4 1 .180392 .004637 .422733
5 1 .011965 .624438 .510781
6 1 .489534 .412085 .993062
7 1 .503100 .468252 .007584
ITEM: TIMESTEP
150
ITEM: NUMBER OF ATOMS
7
ITEM: BOX BOUNDS ss ss ss
-2.9654 3.2038
-2.5225 3.4517
-2.0348 2.0454
ITEM: ATOMS id type xs ys zs
1 1 .505143 .994417 .558987
2 1 .991249 .615057 .551682
3 1 .797724 .006223 .454300
4 1 .180521 .011722 .427360
5 1 .012152 .623357 .513744
6 1 .489522 .411779 .988069
7 1 .506448 .469621 .008435
ITEM: TIMESTEP
200
ITEM: NUMBER OF ATOMS
7
ITEM: BOX BOUNDS ss ss ss
-2.9654 3.2060
-2.5232 3.4542
-2.0427 2.0492
ITEM: ATOMS id type xs ys zs
1 1 .502102 .991459 .561886
2 1 .988920 .613693 .547355
3 1 .799719 .006989 .454712
4 1 .182102 .011943 .423402
5 1 .009640 .625595 .508595
6 1 .490826 .412764 .992041
7 1 .504398 .472856 .013738
ITEM: TIMESTEP
250
ITEM: NUMBER OF ATOMS
7
ITEM: BOX BOUNDS ss ss ss
-2.9654 3.2136
-2.5336 3.4680
-2.0404 2.0550
ITEM: ATOMS id type xs ys zs
1 1 .501937 .990047 .561070
2 1 .987101 .612450 .550828
3 1 .798954 .009695 .451116
4 1 .183733 .013894 .422480
5 1 .010593 .625474 .511476
6 1 .492190 .413579 .995177
7 1 .503408 .471384 .012666
ITEM: TIMESTEP
300
ITEM: NUMBER OF ATOMS
7
ITEM: BOX BOUNDS ss ss ss
-2.9662 3.2035
-2.5238 3.4630
-2.0464 2.0739
ITEM: ATOMS id type xs ys zs
1 1 .502273 .991025 .545888
2 1 .988848 .611043 .549770
3 1 .798578 .009693 .453402
4 1 .176020 .014936 .426756
5 1 .010556 .620569 .511518
6 1 .488171 .412870 .980425
7 1 .504786 .475831 .015219
ITEM: TIMESTEP
350
ITEM: NUMBER OF ATOMS
7
ITEM: BOX BOUNDS ss ss ss
-2.9654 3.2035
-2.5337 3.4665
-2.0389 2.0565
ITEM: ATOMS id type xs ys zs
1 1 .504398 .990855 .544538
2 1 .988866 .608811 .545214
3 1 .793815 .007858 .454730
4 1 .178188 .011519 .417728
5 1 .009329 .620410 .523397
6 1 .488293 .412624 .984127
7 1 .502037 .473034 .009775
ITEM: TIMESTEP
400
ITEM: NUMBER OF ATOMS
7
ITEM: BOX BOUNDS ss ss ss
-2.9654 3.2089
-2.5543 3.4606
-2.0453 2.0577
ITEM: ATOMS id type xs ys zs
1 1 .503971 .990579 .560749
2 1 .989339 .616710 .549210
3 1 .801144 .012465 .462938
4 1 .180454 .018185 .420501
5 1 .008279 .624452 .520610
6 1 .490201 .421262 .989362
7 1 .504663 .472752 .019048
ITEM: TIMESTEP
1
ITEM: NUMBER OF ATOMS
7
ITEM: BOX BOUNDS ss ss ss
-2.9654 3.1937
-2.5322 3.4438
-2.0025 2.0221
ITEM: ATOMS id type xs ys zs
1 1 .506423 .994380 .561832
2 1 .996238 .616513 .549364
3 1 .799603 .009604 .454988
4 1 .180190 .013670 .423963
5 1 .010512 .625462 .511709
6 1 .490679 .415112 .992676
7 1 .504078 .473510 .002118
ITEM: TIMESTEP
50
ITEM: NUMBER OF ATOMS
7
ITEM: BOX BOUNDS ss ss ss
-2.9654 3.1963
-2.5322 3.4438
-2.0276 2.0243
ITEM: ATOMS id type xs ys zs
1 1 .506824 .996354 .566844
2 1 .995248 .618076 .555702
3 1 .799801 .008994 .458057
4 1 .181280 .015362 .426666
5 1 .010490 .623928 .512401
6 1 .491135 .416372 .993046
7 1 .504328 .472670 .009898
ITEM: TIMESTEP
100
ITEM: NUMBER OF ATOMS
7
ITEM: BOX BOUNDS ss ss ss
-2.9654 3.2037
-2.5322 3.4463
-2.0326 2.0334
ITEM: ATOMS id type xs ys zs
1 1 .508821 .997090 .568012
2 1 .990468 .619022 .557015
3 1 .800349 .008612 .456418
4 1 .182079 .015213 .425951
5 1 .009713 .624348 .513433
6 1 .489181 .417315 .988816
7 1 .503410 .471648 .009254
ITEM: TIMESTEP
150
ITEM: NUMBER OF ATOMS
7
ITEM: BOX BOUNDS ss ss ss
-2.9654 3.2031
-2.5322 3.4604
-2.0329 2.0409
ITEM: ATOMS id type xs ys zs
1 1 .506161 .994724 .565525
2 1 .992623 .617049 .550887
3 1 .794707 .013757 .455344
4 1 .182074 .013638 .427539
5 1 .009262 .622231 .509123
6 1 .491133 .413864 .987910
7 1 .501666 .474715 .012342
ITEM: TIMESTEP
200
ITEM: NUMBER OF ATOMS
7
ITEM: BOX BOUNDS ss ss ss
-2.9654 3.2011
-2.5322 3.4567
-2.0422 2.0402
ITEM: ATOMS id type xs ys zs
1 1 .508975 .991747 .562621
2 1 .995671 .612767 .553337
3 1 .800261 .008594 .458461
4 1 .181194 .016712 .426680
5 1 .009651 .622324 .519688
6 1 .495282 .410534 .989926
7 1 .504249 .475069 .016102
ITEM: TIMESTEP
250
ITEM: NUMBER OF ATOMS
7
ITEM: BOX BOUNDS ss ss ss
-2.9654 3.2128
-2.5326 3.4588
-2.0463 2.0483
ITEM: ATOMS id type xs ys zs
1 1 .503967 .991069 .562298
2 1 .988996 .612192 .553810
3 1 .798928 .007124 .456826
4 1 .182539 .015149 .426822
5 1 .010372 .624855 .518390
6 1 .490931 .412171 .986589
7 1 .503525 .468789 .018949
ITEM: TIMESTEP
300
ITEM: NUMBER OF ATOMS
7
ITEM: BOX BOUNDS ss ss ss
-2.9654 3.2029
-2.5322 3.4518
-2.0501 2.0500
ITEM: ATOMS id type xs ys zs
1 1 .501864 .992933 .562213
2 1 .992292 .613387 .559754
3 1 .797355 .005151 .458753
4 1 .174678 .018048 .426815
5 1 .008284 .622822 .518606
6 1 .491651 .413553 .983788
7 1 .505587 .475256 .018276
ITEM: TIMESTEP
350
ITEM: NUMBER OF ATOMS
7
ITEM: BOX BOUNDS ss ss ss
-2.9654 3.2103
-2.5322 3.4536
-2.0451 2.0562
ITEM: ATOMS id type xs ys zs
1 1 .508355 .989477 .563768
2 1 .994812 .608321 .544807
3 1 .799026 .008302 .452493
4 1 .183922 .013491 .425495
5 1 .012879 .624093 .512539
6 1 .487145 .412842 .989022
7 1 .508366 .478861 .016014
ITEM: TIMESTEP
400
ITEM: NUMBER OF ATOMS
7
ITEM: BOX BOUNDS ss ss ss
-2.9654 3.2132
-2.5322 3.4494
-2.0410 2.0568
ITEM: ATOMS id type xs ys zs
1 1 .508739 .991232 .555443
2 1 .994528 .607393 .550070
3 1 .800680 .007835 .450050
4 1 .183867 .014884 .428993
5 1 .012369 .625805 .516364
6 1 .489435 .413225 .991086
7 1 .510490 .474321 .010571
ITEM: TIMESTEP
1
ITEM: NUMBER OF ATOMS
7
ITEM: BOX BOUNDS ss ss ss
-2.9654 3.2008
-2.5045 3.4312
-2.0277 2.0326
ITEM: ATOMS id type xs ys zs
1 1 .506000 .996374 .563308
2 1 .995142 .616239 .551174
3 1 .798737 .005167 .456784
4 1 .179948 .008861 .426081
5 1 .010756 .624609 .512852
6 1 .490476 .413292 .989988
7 1 .503320 .472239 .008466
ITEM: TIMESTEP
50
ITEM: NUMBER OF ATOMS
7
ITEM: BOX BOUNDS ss ss ss
-2.9654 3.2008
-2.5045 3.4394
-2.0277 2.0326
ITEM: ATOMS id type xs ys zs
1 1 .508148 .995157 .563030
2 1 .995098 .617001 .552144
3 1 .798403 .004493 .454996
4 1 .177802 .008787 .424463
5 1 .011266 .623211 .513278
6 1 .487930 .410320 .992969
7 1 .503465 .470800 .009369
ITEM: TIMESTEP
100
ITEM: NUMBER OF ATOMS
7
ITEM: BOX BOUNDS ss ss ss
-2.9654 3.2008
-2.5136 3.4485
-2.0409 2.0367
ITEM: ATOMS id type xs ys zs
1 1 .507364 .994184 .560745
2 1 .995284 .613921 .552569
3 1 .797434 .008386 .455074
4 1 .179304 .011196 .422889
5 1 .010761 .623821 .513529
6 1 .487652 .409958 .992463
7 1 .506060 .469587 .010523
ITEM: TIMESTEP
150
ITEM: NUMBER OF ATOMS
7
ITEM: BOX BOUNDS ss ss ss
-2.9654 3.2008
-2.5125 3.4501
-2.0398 2.0552
ITEM: ATOMS id type xs ys zs
1 1 .504871 .994157 .556169
2 1 .993737 .612711 .544660
3 1 .799265 .006386 .455051
4 1 .179546 .011438 .425068
5 1 .013483 .624777 .512840
6 1 .490124 .412349 .975968
7 1 .506852 .471004 .014087
ITEM: TIMESTEP
200
ITEM: NUMBER OF ATOMS
7
ITEM: BOX BOUNDS ss ss ss
-2.9654 3.2008
-2.5260 3.4575
-2.0425 2.0480
ITEM: ATOMS id type xs ys zs
1 1 .504281 .992543 .559249
2 1 .993391 .616675 .545451
3 1 .799687 .009191 .451543
4 1 .177227 .011378 .427819
5 1 .009848 .626613 .517046
6 1 .490835 .412445 .982004
7 1 .508966 .468201 .014286
ITEM: TIMESTEP
250
ITEM: NUMBER OF ATOMS
7
ITEM: BOX BOUNDS ss ss ss
-2.9654 3.2055
-2.5214 3.4518
-2.0395 2.0404
ITEM: ATOMS id type xs ys zs
1 1 .507189 .992626 .557910
2 1 .994291 .608870 .547172
3 1 .799994 .008437 .458270
4 1 .177990 .013835 .428057
5 1 .009906 .625212 .514406
6 1 .487909 .412542 .977420
7 1 .503481 .471322 .008319
ITEM: TIMESTEP
300
ITEM: NUMBER OF ATOMS
7
ITEM: BOX BOUNDS ss ss ss
-2.9654 3.2080
-2.5280 3.4511
-2.0420 2.0373
ITEM: ATOMS id type xs ys zs
1 1 .505859 .989532 .558908
2 1 .990802 .614770 .552711
3 1 .795947 .007619 .460842
4 1 .178256 .012867 .427357
5 1 .010568 .626233 .517617
6 1 .486533 .413088 .980588
7 1 .504925 .473637 .014401
ITEM: TIMESTEP
350
ITEM: NUMBER OF ATOMS
7
ITEM: BOX BOUNDS ss ss ss
-2.9654 3.2145
-2.5305 3.4540
-2.0428 2.0346
ITEM: ATOMS id type xs ys zs
1 1 .512434 .994661 .555483