ITEM: TIMESTEP
1
ITEM: NUMBER OF ATOMS
7
ITEM: BOX BOUNDS ss ss ss
-2.9028 3.1756
-2.4795 3.4130
-1.9963 1.9971
ITEM: ATOMS id type xs ys zs
1 1 .503030 .999383 .564879
2 1 .999264 .616456 .552406
3 1 .799818 .000741 .457023
4 1 .172153 .004825 .425194
5 1 .000687 .624987 .513805
6 1 .487055 .411816 .998982
7 1 .500516 .471420 .001041
ITEM: TIMESTEP
50
ITEM: NUMBER OF ATOMS
7
ITEM: BOX BOUNDS ss ss ss
-2.9278 3.1952
-2.4972 3.4362
-2.0195 2.0202
ITEM: ATOMS id type xs ys zs
1 1 .503589 .995452 .563960
2 1 .995659 .615228 .551919
3 1 .798006 .003904 .457477
4 1 .174849 .007666 .425993
5 1 .004910 .623641 .513880
6 1 .487733 .411849 .993426
7 1 .501156 .471110 .006646
ITEM: TIMESTEP
100
ITEM: NUMBER OF ATOMS
7
ITEM: BOX BOUNDS ss ss ss
-2.9374 3.1999
-2.5090 3.4495
-2.0273 2.0354
ITEM: ATOMS id type xs ys zs
1 1 .504122 .992961 .562427
2 1 .994333 .614054 .550496
3 1 .798012 .006058 .456363
4 1 .176024 .009846 .425521
5 1 .006010 .622945 .513127
6 1 .488221 .412407 .989545
7 1 .502337 .471570 .009434
ITEM: TIMESTEP
150
ITEM: NUMBER OF ATOMS
7
ITEM: BOX BOUNDS ss ss ss
-2.9444 3.2066
-2.5159 3.4533
-2.0229 2.0303
ITEM: ATOMS id type xs ys zs
1 1 .504036 .992009 .562426
2 1 .993279 .613523 .550126
3 1 .797646 .007141 .455928
4 1 .177120 .011343 .425524
5 1 .006323 .622815 .513650
6 1 .488235 .413148 .990354
7 1 .503131 .472436 .009358
ITEM: TIMESTEP
200
ITEM: NUMBER OF ATOMS
7
ITEM: BOX BOUNDS ss ss ss
-2.9454 3.2111
-2.5177 3.4492
-2.0301 2.0346
ITEM: ATOMS id type xs ys zs
1 1 .503186 .992362 .561943
2 1 .992779 .613426 .550604
3 1 .797484 .007201 .455738
4 1 .177390 .011883 .426609
5 1 .005534 .622973 .514065
6 1 .488027 .413828 .988904
7 1 .503340 .473395 .012385
ITEM: TIMESTEP
250
ITEM: NUMBER OF ATOMS
7
ITEM: BOX BOUNDS ss ss ss
-2.9529 3.2137
-2.5251 3.4569
-2.0336 2.0339
ITEM: ATOMS id type xs ys zs
1 1 .503157 .990270 .561555
2 1 .993042 .612104 .552085
3 1 .797966 .008164 .455026
4 1 .178818 .013873 .427159
5 1 .005553 .622518 .514470
6 1 .488356 .414587 .988631
7 1 .504145 .473949 .014041
ITEM: TIMESTEP
300
ITEM: NUMBER OF ATOMS
7
ITEM: BOX BOUNDS ss ss ss
-2.9634 3.2142
-2.5251 3.4507
-2.0195 2.0391
ITEM: ATOMS id type xs ys zs
1 1 .503873 .990496 .558961
2 1 .993640 .611586 .549426
3 1 .798175 .007978 .451957
4 1 .180585 .014799 .423875
5 1 .006149 .623339 .512170
6 1 .488904 .415568 .986771
7 1 .505518 .475017 .010993
ITEM: TIMESTEP
350
ITEM: NUMBER OF ATOMS
7
ITEM: BOX BOUNDS ss ss ss
-2.9723 3.2204
-2.5352 3.4495
-2.0214 2.0309
ITEM: ATOMS id type xs ys zs
1 1 .504020 .990418 .560333
2 1 .993239 .611562 .550232
3 1 .797576 .009355 .453105
4 1 .181783 .016892 .424245
5 1 .006822 .624056 .513150
6 1 .488984 .416930 .988206
7 1 .506041 .476644 .012492
ITEM: TIMESTEP
400
ITEM: NUMBER OF ATOMS
7
ITEM: BOX BOUNDS ss ss ss
-2.9807 3.2256
-2.5367 3.4439
-2.0195 2.0286
ITEM: ATOMS id type xs ys zs
1 1 .504194 .991315 .560686
2 1 .992931 .611906 .549916
3 1 .797243 .009383 .452732
4 1 .183013 .017236 .423864
5 1 .007446 .624651 .512680
6 1 .489205 .417719 .988081
7 1 .506343 .477698 .012967
ITEM: TIMESTEP
1
ITEM: NUMBER OF ATOMS
7
ITEM: BOX BOUNDS ss ss ss
-2.9691 3.2142
-2.5114 3.4252
-1.9960 1.9969
ITEM: ATOMS id type xs ys zs
1 1 .505214 .997320 .564884
2 1 .993024 .617243 .552404
3 1 .796961 .006105 .457007
4 1 .179959 .010158 .425175
5 1 .011404 .625712 .513796
6 1 .489510 .414123 .999036
7 1 .502744 .473286 .000965
ITEM: TIMESTEP
50
ITEM: NUMBER OF ATOMS
7
ITEM: BOX BOUNDS ss ss ss
-2.9691 3.2142
-2.5114 3.4342
-2.0199 2.0212
ITEM: ATOMS id type xs ys zs
1 1 .505371 .995851 .563879
2 1 .992618 .616438 .551887
3 1 .796838 .006329 .457466
4 1 .179845 .010029 .425911
5 1 .011665 .624810 .513757
6 1 .489672 .413340 .993309
7 1 .502865 .472480 .006530
ITEM: TIMESTEP
100
ITEM: NUMBER OF ATOMS
7
ITEM: BOX BOUNDS ss ss ss
-2.9691 3.2142
-2.5114 3.4410
-2.0352 2.0297
ITEM: ATOMS id type xs ys zs
1 1 .505527 .994434 .563938
2 1 .992115 .615246 .552157
3 1 .797008 .006606 .458505
4 1 .179865 .010095 .427291
5 1 .011149 .624048 .514702
6 1 .489754 .413134 .991164
7 1 .503576 .472314 .011333
ITEM: TIMESTEP
150
ITEM: NUMBER OF ATOMS
7
ITEM: BOX BOUNDS ss ss ss
-2.9691 3.2142
-2.5114 3.4462
-2.0412 2.0342
ITEM: ATOMS id type xs ys zs
1 1 .505641 .993524 .562979
2 1 .992121 .613918 .552021
3 1 .797711 .006486 .459069
4 1 .179860 .010896 .426301
5 1 .009992 .623625 .515134
6 1 .489415 .413309 .988830
7 1 .504258 .472255 .014825
ITEM: TIMESTEP
200
ITEM: NUMBER OF ATOMS
7
ITEM: BOX BOUNDS ss ss ss
-2.9691 3.2142
-2.5175 3.4475
-2.0191 2.0396
ITEM: ATOMS id type xs ys zs
1 1 .505928 .993694 .558610
2 1 .992389 .613454 .548519
3 1 .798011 .006914 .454421
4 1 .179746 .013415 .420108
5 1 .008910 .625372 .511617
6 1 .488828 .414419 .985242
7 1 .504930 .473472 .011218
ITEM: TIMESTEP
250
ITEM: NUMBER OF ATOMS
7
ITEM: BOX BOUNDS ss ss ss
-2.9691 3.2144
-2.5187 3.4530
-2.0169 2.0354
ITEM: ATOMS id type xs ys zs
1 1 .505550 .992166 .559218
2 1 .992665 .612212 .548273
3 1 .798021 .007043 .453597
4 1 .180014 .014173 .420047
5 1 .007665 .625684 .511664
6 1 .488142 .414364 .984975
7 1 .504902 .474346 .011137
ITEM: TIMESTEP
300
ITEM: NUMBER OF ATOMS
7
ITEM: BOX BOUNDS ss ss ss
-2.9694 3.2204
-2.5220 3.4572
-2.0132 2.0220
ITEM: ATOMS id type xs ys zs
1 1 .504596 .990885 .561176
2 1 .991778 .611546 .549496
3 1 .797393 .007494 .454215
4 1 .180046 .015094 .421502
5 1 .006652 .625549 .512529
6 1 .487349 .414624 .987886
7 1 .504410 .474996 .010246
ITEM: TIMESTEP
350
ITEM: NUMBER OF ATOMS
7
ITEM: BOX BOUNDS ss ss ss
-2.9804 3.2213
-2.5251 3.4467
-2.0225 2.0318
ITEM: ATOMS id type xs ys zs
1 1 .505017 .992352 .560949
2 1 .991991 .612460 .549365
3 1 .797618 .007830 .454124
4 1 .181487 .015997 .422238
5 1 .007484 .626543 .511774
6 1 .488047 .416036 .985303
7 1 .505434 .476502 .012847
ITEM: TIMESTEP
400
ITEM: NUMBER OF ATOMS
7
ITEM: BOX BOUNDS ss ss ss
-2.9945 3.2203
-2.5300 3.4540
-2.0228 2.0269
ITEM: ATOMS id type xs ys zs
1 1 .505900 .990911 .561644
2 1 .992566 .611504 .550258
3 1 .798224 .008471 .454454
4 1 .183541 .016986 .423045
5 1 .008931 .625831 .512141
6 1 .489049 .416411 .986380
7 1 .506905 .476599 .013610
ITEM: TIMESTEP
1
ITEM: NUMBER OF ATOMS
7
ITEM: BOX BOUNDS ss ss ss
-2.9794 3.2142
-2.5114 3.4321
-1.9963 2.0076
ITEM: ATOMS id type xs ys zs
1 1 .506035 .996164 .563407
2 1 .993035 .616532 .550967
3 1 .797299 .006100 .455832
4 1 .181321 .010147 .424082
5 1 .013051 .624985 .512467
6 1 .490360 .413643 .996373
7 1 .503571 .472734 .001036
ITEM: TIMESTEP
50
ITEM: NUMBER OF ATOMS
7
ITEM: BOX BOUNDS ss ss ss
-2.9794 3.2142
-2.5114 3.4380
-2.0219 2.0190
ITEM: ATOMS id type xs ys zs
1 1 .506172 .995276 .564389
2 1 .992587 .616105 .552508
3 1 .797136 .006290 .458066
4 1 .181181 .009969 .426346
5 1 .013435 .624382 .514327
6 1 .490513 .413030 .993924
7 1 .503651 .472096 .006890
ITEM: TIMESTEP
100
ITEM: NUMBER OF ATOMS
7
ITEM: BOX BOUNDS ss ss ss
-2.9794 3.2142
-2.5169 3.4435
-2.0279 2.0352
ITEM: ATOMS id type xs ys zs
1 1 .506282 .994046 .562556
2 1 .992012 .615406 .550616
3 1 .797253 .007397 .456997
4 1 .181164 .010787 .425376
5 1 .013123 .623987 .512992
6 1 .490545 .413261 .990147
7 1 .504306 .472472 .009012
ITEM: TIMESTEP
150
ITEM: NUMBER OF ATOMS
7
ITEM: BOX BOUNDS ss ss ss
-2.9794 3.2142
-2.5171 3.4471
-2.0357 2.0348
ITEM: ATOMS id type xs ys zs
1 1 .506176 .992971 .563394
2 1 .992171 .614417 .551024
3 1 .797545 .007613 .457949
4 1 .181295 .011074 .426794
5 1 .012401 .623589 .513381
6 1 .490255 .413272 .990308
7 1 .505003 .473065 .012307
ITEM: TIMESTEP
200
ITEM: NUMBER OF ATOMS
7
ITEM: BOX BOUNDS ss ss ss
-2.9794 3.2142
-2.5228 3.4458
-2.0300 2.0392
ITEM: ATOMS id type xs ys zs
1 1 .505682 .993277 .563511
2 1 .992593 .614586 .550265
3 1 .798515 .008605 .456447
4 1 .181094 .012426 .426897
5 1 .011015 .624606 .511111
6 1 .489985 .415009 .987618
7 1 .505455 .474332 .013192
ITEM: TIMESTEP
250
ITEM: NUMBER OF ATOMS
7
ITEM: BOX BOUNDS ss ss ss
-2.9794 3.2142
-2.5196 3.4482
-2.0185 2.0334
ITEM: ATOMS id type xs ys zs
1 1 .504805 .993079 .563998
2 1 .993036 .614261 .549116
3 1 .800006 .007732 .455036
4 1 .180398 .012690 .427497
5 1 .009678 .624419 .509455
6 1 .490313 .415320 .986610
7 1 .506027 .474101 .012894
ITEM: TIMESTEP
300
ITEM: NUMBER OF ATOMS
7
ITEM: BOX BOUNDS ss ss ss
-2.9691 3.2143
-2.5124 3.4517
-2.0230 2.0311
ITEM: ATOMS id type xs ys zs
1 1 .502774 .992449 .563369
2 1 .993815 .613358 .548401
3 1 .799856 .005856 .454231
4 1 .179064 .012538 .428595
5 1 .006366 .623461 .508904
6 1 .489428 .414619 .984465
7 1 .505430 .473686 .014586
ITEM: TIMESTEP
350
ITEM: NUMBER OF ATOMS
7
ITEM: BOX BOUNDS ss ss ss
-2.9771 3.2195
-2.5247 3.4444
-2.0246 2.0320
ITEM: ATOMS id type xs ys zs
1 1 .502247 .993340 .562425
2 1 .993841 .614704 .548010
3 1 .798926 .007495 .453032
4 1 .180125 .014963 .428320
5 1 .006324 .624736 .508378
6 1 .489692 .416723 .982449
7 1 .505916 .475981 .015233
ITEM: TIMESTEP
400
ITEM: NUMBER OF ATOMS
7
ITEM: BOX BOUNDS ss ss ss
-2.9845 3.2252
-2.5292 3.4503
-2.0200 2.0074
ITEM: ATOMS id type xs ys zs
1 1 .502235 .992034 .564969
2 1 .993199 .614063 .550433
3 1 .798679 .007814 .454613
4 1 .181243 .015986 .430258
5 1 .006447 .624317 .510887
6 1 .489931 .417009 .987819
7 1 .506208 .476180 .015044
ITEM: TIMESTEP
1
ITEM: NUMBER OF ATOMS
7
ITEM: BOX BOUNDS ss ss ss
-2.9789 3.2223
-2.5098 3.4198
-1.9959 2.0004
ITEM: ATOMS id type xs ys zs
1 1 .505338 .998239 .564366
2 1 .991745 .617716 .551908
3 1 .796244 .005848 .456585
4 1 .181012 .009907 .424777
5 1 .012946 .626186 .513329
6 1 .489676 .414345 .998164
7 1 .502871 .473580 .000918
ITEM: TIMESTEP
50
ITEM: NUMBER OF ATOMS
7
ITEM: BOX BOUNDS ss ss ss
-2.9789 3.2223
-2.5098 3.4431
-2.0256 2.0240
ITEM: ATOMS id type xs ys zs
1 1 .505494 .994476 .564097
2 1 .991296 .615595 .552301
3 1 .796047 .006073 .457900
4 1 .180828 .009687 .426308
5 1 .013434 .623743 .514173
6 1 .489847 .412438 .992788
7 1 .502854 .471494 .007584
ITEM: TIMESTEP
100
ITEM: NUMBER OF ATOMS
7
ITEM: BOX BOUNDS ss ss ss
-2.9789 3.2223
-2.5098 3.4453
-2.0318 2.0310
ITEM: ATOMS id type xs ys zs
1 1 .505646 .993876 .564165
2 1 .990787 .614759 .551284
3 1 .796149 .006142 .456765
4 1 .180744 .009674 .426760
5 1 .013056 .623263 .514722
6 1 .489989 .412476 .991089
7 1 .503942 .471822 .009835
ITEM: TIMESTEP
150
ITEM: NUMBER OF ATOMS
7
ITEM: BOX BOUNDS ss ss ss
-2.9789 3.2223
-2.5265 3.4471
-2.0254 2.0378
ITEM: ATOMS id type xs ys zs
1 1 .505965 .993509 .563759
2 1 .990691 .614099 .547855
3 1 .796549 .008379 .453265
4 1 .180950 .012870 .426139
5 1 .012778 .623859 .514559
6 1 .490431 .414055 .989043
7 1 .505570 .474236 .010713
ITEM: TIMESTEP
200
ITEM: NUMBER OF ATOMS
7
ITEM: BOX BOUNDS ss ss ss
-2.9789 3.2223
-2.5266 3.4548
-2.0349 2.0434
ITEM: ATOMS id type xs ys zs
1 1 .506028 .992166 .563933
2 1 .990605 .612721 .547866
3 1 .797067 .007736 .453836
4 1 .181294 .013119 .426634
5 1 .012339 .623589 .515596
6 1 .490508 .413443 .987077
7 1 .505643 .473900 .014205
ITEM: TIMESTEP
250
ITEM: NUMBER OF ATOMS
7
ITEM: BOX BOUNDS ss ss ss
-2.9789 3.2223
-2.5358 3.4576
-2.0208 2.0385
ITEM: ATOMS id type xs ys zs
1 1 .506148 .990816 .563305
2 1 .991339 .612546 .546415
3 1 .797840 .008512 .452290
4 1 .181488 .014433 .424702
5 1 .010882 .624637 .515592
6 1 .490132 .413946 .986202
7 1 .505045 .474290 .012309
ITEM: TIMESTEP
300
ITEM: NUMBER OF ATOMS
7
ITEM: BOX BOUNDS ss ss ss
-2.9789 3.2223
-2.5318 3.4538
-2.0221 2.0398
ITEM: ATOMS id type xs ys zs
1 1 .506414 .990607 .564131
2 1 .991907 .611883 .545018
3 1 .798485 .007216 .451950
4 1 .181667 .013642 .424255
5 1 .009804 .625614 .516356
6 1 .489859 .413209 .984372
7 1 .504862 .474114 .013949
ITEM: TIMESTEP
350
ITEM: NUMBER OF ATOMS
7
ITEM: BOX BOUNDS ss ss ss
-2.9789 3.2223
-2.5405 3.4484
-2.0245 2.0342
ITEM: ATOMS id type xs ys zs
1 1 .506774 .991226 .565605
2 1 .992622 .612429 .545494
3 1 .798907 .008459 .452618
4 1 .181692 .015348 .424702
5 1 .009078 .627135 .517819
6 1 .489700 .414437 .984694
7 1 .504673 .475804 .015453
ITEM: TIMESTEP
400
ITEM: NUMBER OF ATOMS
7
ITEM: BOX BOUNDS ss ss ss
-2.9789 3.2288
-2.5581 3.4545
-2.0036 2.0306
ITEM: ATOMS id type xs ys zs
1 1 .507080 .990065 .563574
2 1 .993085 .611917 .545017
3 1 .798367 .011303 .450134
4 1 .181680 .018498 .421467
5 1 .008278 .627556 .516361
6 1 .489400 .416668 .984416
7 1 .503923 .477617 .011125
ITEM: TIMESTEP
1
ITEM: NUMBER OF ATOMS
7
ITEM: BOX BOUNDS ss ss ss
-2.9789 3.2223
-2.5179 3.4198
-1.9964 2.0004
ITEM: ATOMS id type xs ys zs
1 1 .505335 .998242 .564426
2 1 .991744 .618236 .551968
3 1 .796243 .007203 .456658
4 1 .181013 .011256 .424852
5 1 .012949 .626696 .513394
6 1 .489680 .415146 .998169
7 1 .502870 .474297 .001047
ITEM: TIMESTEP
50
ITEM: NUMBER OF ATOMS
7
ITEM: BOX BOUNDS ss ss ss
-2.9789 3.2223
-2.5179 3.4406
-2.0218 2.0220
ITEM: ATOMS id type xs ys zs
1 1 .505508 .994897 .563888
2 1 .991300 .616399 .552205
3 1 .795994 .007420 .457731
4 1 .180812 .011021 .425996
5 1 .013536 .624569 .513963
6 1 .489782 .413424 .993385
7 1 .502840 .472348 .006587
ITEM: TIMESTEP
100
ITEM: NUMBER OF ATOMS
7
ITEM: BOX BOUNDS ss ss ss
-2.9789 3.2223
-2.5179 3.4464
-2.0286 2.0344
ITEM: ATOMS id type xs ys zs
1 1 .505619 .993579 .562323
2 1 .990628 .615354 .550848
3 1 .796006 .007790 .457094
4 1 .180694 .011154 .425652
5 1 .013397 .623795 .513376
6 1 .489965 .413211 .990562
7 1 .503533 .472076 .008928
ITEM: TIMESTEP
150
ITEM: NUMBER OF ATOMS
7
ITEM: BOX BOUNDS ss ss ss
-2.9789 3.2223
-2.5203 3.4556
-2.0354 2.0407
ITEM: ATOMS id type xs ys zs
1 1 .505191 .992228 .560980
2 1 .990364 .613377 .549852
3 1 .795950 .008051 .456993
4 1 .180554 .012060 .425714
5 1 .012978 .623002 .513844
6 1 .489807 .413356 .988519
7 1 .504450 .472006 .012253
ITEM: TIMESTEP
200
ITEM: NUMBER OF ATOMS
7
ITEM: BOX BOUNDS ss ss ss
-2.9789 3.2223
-2.5179 3.4566
-2.0308 2.0399
ITEM: ATOMS id type xs ys zs
1 1 .505107 .992357 .559432
2 1 .990200 .612344 .549582
3 1 .796317 .007111 .456380
4 1 .180649 .012319 .424805
5 1 .012501 .623043 .514058
6 1 .489839 .413274 .988215
7 1 .505053 .472185 .011993
ITEM: TIMESTEP
250
ITEM: NUMBER OF ATOMS
7
ITEM: BOX BOUNDS ss ss ss
-2.9789 3.2223
-2.5275 3.4544
-2.0303 2.0383
ITEM: ATOMS id type xs ys zs
1 1 .504838 .993283 .558504
2 1 .989653 .612910 .550505
3 1 .796859 .007991 .457168
4 1 .180699 .014379 .424556
5 1 .011624 .624541 .514446
6 1 .489292 .414408 .987744
7 1 .505134 .473851 .012694
ITEM: TIMESTEP
300
ITEM: NUMBER OF ATOMS
7
ITEM: BOX BOUNDS ss ss ss
-2.9789 3.2223
-2.5364 3.4592
-2.0274 2.0534
ITEM: ATOMS id type xs ys zs
1 1 .504608 .993023 .555391
2 1 .989490 .612809 .547896
3 1 .796959 .008921 .455509
4 1 .180493 .016107 .422487
5 1 .010813 .624993 .512707
6 1 .488687 .415033 .983521
7 1 .505305 .474902 .013134
ITEM: TIMESTEP
350
ITEM: NUMBER OF ATOMS
7
ITEM: BOX BOUNDS ss ss ss
-2.9789 3.2223
-2.5363 3.4679
-2.0203 2.0477
ITEM: ATOMS id type xs ys zs
1 1 .504302 .991832 .555782
2 1 .989938 .611503 .546531
3 1 .796760 .008697 .454827
4 1 .180617 .016401 .422595
5 1 .010002 .623944 .512517
6 1 .488643 .414993 .984437
7 1 .505318 .475022 .012588
ITEM: TIMESTEP
400
ITEM: NUMBER OF ATOMS
7
ITEM: BOX BOUNDS ss ss ss
-2.9789 3.2223
-2.5364 3.4617
-2.0214 2.0390
ITEM: ATOMS id type xs ys zs
1 1 .504003 .992708 .557683
2 1 .990303 .611772 .546421
3 1 .796386 .008530 .455309
4 1 .181029 .016805 .423794
5 1 .009045 .624477 .513679
6 1 .488951 .416243 .986260
7 1 .505033 .476180 .013314
ITEM: TIMESTEP
1
ITEM: NUMBER OF ATOMS
7
ITEM: BOX BOUNDS ss ss ss
-2.9789 3.2223
-2.5184 3.4452
-1.9961 2.0078
ITEM: ATOMS id type xs ys zs
1 1 .505338 .993979 .563354
2 1 .991746 .615628 .550923
3 1 .796241 .007254 .455776
4 1 .181013 .011284 .424030
5 1 .012949 .624049 .512410
6 1 .489677 .413418 .996332
7 1 .502870 .472310 .000969
ITEM: TIMESTEP
50
ITEM: NUMBER OF ATOMS
7
ITEM: BOX BOUNDS ss ss ss
-2.9789 3.2223
-2.5184 3.4452
-2.0230 2.0256
ITEM: ATOMS id type xs ys zs
1 1 .505506 .994175 .563545
2 1 .991275 .616051 .551856
3 1 .796009 .007482 .457436
4 1 .180790 .011060 .425711
5 1 .013608 .624049 .513720
6 1 .489842 .413043 .992534
7 1 .502814 .471977 .006723
ITEM: TIMESTEP
100
ITEM: NUMBER OF ATOMS
7
ITEM: BOX BOUNDS ss ss ss
-2.9789 3.2223
-2.5184 3.4489
-2.0377 2.0386
ITEM: ATOMS id type xs ys zs
1 1 .505618 .993353 .563127
2 1 .990429 .615263 .551377
3 1 .796000 .007747 .457738
4 1 .180659 .010979 .426193
5 1 .013484 .623579 .514169
6 1 .490085 .412847 .989440
7 1 .503485 .471847 .010668
ITEM: TIMESTEP
150
ITEM: NUMBER OF ATOMS
7
ITEM: BOX BOUNDS ss ss ss
-2.9789 3.2223
-2.5184 3.4541
-2.0392 2.0365
ITEM: ATOMS id type xs ys zs
1 1 .504867 .992102 .563158
2 1 .989941 .614079 .550922
3 1 .796338 .007719 .457998
4 1 .180776 .011137 .426466
5 1 .012550 .622711 .515264
6 1 .490020 .412849 .989544
7 1 .503792 .471981 .012139
ITEM: TIMESTEP
200
ITEM: NUMBER OF ATOMS
7
ITEM: BOX BOUNDS ss ss ss
-2.9789 3.2223
-2.5211 3.4470
-2.0351 2.0420
ITEM: ATOMS id type xs ys zs
1 1 .504252 .993401 .560566
2 1 .989423 .614382 .548821
3 1 .796576 .007810 .455751
4 1 .181279 .011561 .425346
5 1 .011530 .623573 .514790
6 1 .489763 .414039 .987605
7 1 .503375 .473069 .012082
ITEM: TIMESTEP
250
ITEM: NUMBER OF ATOMS
7
ITEM: BOX BOUNDS ss ss ss
-2.9789 3.2223
-2.5267 3.4571
-2.0391 2.0395
ITEM: ATOMS id type xs ys zs
1 1 .504266 .992068 .560645
2 1 .989186 .613191 .549713
3 1 .796749 .008613 .455679
4 1 .181600 .012667 .425807
5 1 .010716 .622802 .515802
6 1 .489602 .413946 .987831
7 1 .503236 .473175 .013888
ITEM: TIMESTEP
300
ITEM: NUMBER OF ATOMS
7
ITEM: BOX BOUNDS ss ss ss
-2.9789 3.2223
-2.5262 3.4613
-2.0357 2.0421
ITEM: ATOMS id type xs ys zs
1 1 .504300 .991306 .559711
2 1 .989474 .612698 .550311
3 1 .797029 .008623 .453926
4 1 .181373 .013000 .424202
5 1 .009853 .622103 .515097
6 1 .489310 .413582 .986405
7 1 .503156 .473616 .013948
ITEM: TIMESTEP
350
ITEM: NUMBER OF ATOMS
7
ITEM: BOX BOUNDS ss ss ss
-2.9789 3.2223
-2.5255 3.4635
-2.0249 2.0467
ITEM: ATOMS id type xs ys zs
1 1 .503835 .990503 .557936
2 1 .990373 .612716 .552280
3 1 .797681 .009335 .450009
4 1 .181338 .013398 .421708
5 1 .008938 .621478 .512396
6 1 .488800 .413395 .984219
7 1 .504179 .474715 .011748
ITEM: TIMESTEP
400
ITEM: NUMBER OF ATOMS
7
ITEM: BOX BOUNDS ss ss ss
-2.9689 3.2110
-2.5204 3.4666
-2.0270 2.0327
ITEM: ATOMS id type xs ys zs
1 1 .503414 .989555 .559722
2 1 .992606 .611407 .557600
3 1 .799322 .008526 .450946
4 1 .180787 .012877 .423008
5 1 .006790 .620623 .514016
6 1 .488651 .412671 .987726
7 1 .505359 .474848 .013329
ITEM: TIMESTEP
1
ITEM: NUMBER OF ATOMS
7
ITEM: BOX BOUNDS ss ss ss
-2.9654 3.1937
-2.4994 3.4312
-1.9960 2.0221
ITEM: ATOMS id type xs ys zs
1 1 .506603 .996314 .561338
2 1 .996334 .615855 .548952
3 1 .799496 .004093 .454155
4 1 .180058 .008145 .422510
5 1 .010851 .624321 .510576
6 1 .490839 .412517 .992783
7 1 .504117 .471738 .000949
ITEM: TIMESTEP
50
ITEM: NUMBER OF ATOMS
7
ITEM: BOX BOUNDS ss ss ss
-2.9654 3.1949
-2.5001 3.4370
-2.0247 2.0241
ITEM: ATOMS id type xs ys zs
1 1 .506668 .995573 .563892
2 1 .995654 .615766 .552259
3 1 .799065 .004473 .457891
4 1 .179801 .008040 .426084
5 1 .011597 .623784 .514115
6 1 .490916 .411785 .992996
7 1 .503873 .470995 .007068
ITEM: TIMESTEP
100
ITEM: NUMBER OF ATOMS
7
ITEM: BOX BOUNDS ss ss ss
-2.9654 3.2000
-2.5067 3.4547
-2.0395 2.0348
ITEM: ATOMS id type xs ys zs
1 1 .506509 .992648 .563446
2 1 .994088 .614166 .552150
3 1 .798504 .006049 .458507
4 1 .179333 .009119 .426721
5 1 .011451 .622321 .515030
6 1 .490554 .411364 .990637
7 1 .503933 .470382 .011404
ITEM: TIMESTEP
150
ITEM: NUMBER OF ATOMS
7
ITEM: BOX BOUNDS ss ss ss
-2.9654 3.1996
-2.5101 3.4601
-2.0312 2.0445
ITEM: ATOMS id type xs ys zs
1 1 .506782 .991900 .560888
2 1 .993719 .613595 .549462
3 1 .798676 .007054 .456801
4 1 .179063 .009979 .424717
5 1 .010946 .622051 .513070
6 1 .490284 .411765 .988233
7 1 .504249 .470866 .010869
ITEM: TIMESTEP
200
ITEM: NUMBER OF ATOMS
7
ITEM: BOX BOUNDS ss ss ss
-2.9654 3.2041
-2.5129 3.4555
-2.0326 2.0522
ITEM: ATOMS id type xs ys zs
1 1 .506846 .992806 .559080
2 1 .992786 .613528 .548807
3 1 .797768 .007182 .457687
4 1 .179148 .010811 .425877
5 1 .010668 .623177 .511961
6 1 .489471 .413402 .986126
7 1 .504396 .471644 .011922
ITEM: TIMESTEP
250
ITEM: NUMBER OF ATOMS
7
ITEM: BOX BOUNDS ss ss ss
-2.9654 3.1996
-2.5115 3.4658
-2.0295 2.0406
ITEM: ATOMS id type xs ys zs
1 1 .507282 .991509 .559676
2 1 .993396 .612226 .550037
3 1 .797945 .006507 .459932
4 1 .179551 .011028 .428461
5 1 .010370 .622535 .513005
6 1 .489422 .413752 .988871
7 1 .505398 .471076 .011905
ITEM: TIMESTEP
300
ITEM: NUMBER OF ATOMS
7
ITEM: BOX BOUNDS ss ss ss
-2.9654 3.2026
-2.5140 3.4661
-2.0181 2.0453
ITEM: ATOMS id type xs ys zs
1 1 .507100 .991110 .559336
2 1 .994304 .612805 .546615
3 1 .798000 .007088 .459831
4 1 .179808 .012490 .428247
5 1 .009562 .623448 .508661
6 1 .489056 .415501 .988020
7 1 .505955 .471319 .012658
ITEM: TIMESTEP
350
ITEM: NUMBER OF ATOMS
7
ITEM: BOX BOUNDS ss ss ss
-2.9654 3.2084
-2.5181 3.4663
-2.0107 2.0394
ITEM: ATOMS id type xs ys zs
1 1 .506450 .990725 .560015
2 1 .994307 .613041 .545346
3 1 .797550 .007973 .459815
4 1 .179559 .013134 .428958
5 1 .009239 .623984 .506974
6 1 .488687 .416585 .989619
7 1 .506421 .471656 .011831
ITEM: TIMESTEP
400
ITEM: NUMBER OF ATOMS
7
ITEM: BOX BOUNDS ss ss ss
-2.9654 3.2134
-2.5143 3.4521
-2.0232 2.0465
ITEM: ATOMS id type xs ys zs
1 1 .505830 .992938 .560246
2 1 .993849 .613740 .545445
3 1 .796930 .007245 .460314
4 1 .179562 .012560 .430167
5 1 .008829 .625092 .507348
6 1 .488453 .417603 .987539
7 1 .506260 .472973 .015030
ITEM: TIMESTEP
1
ITEM: NUMBER OF ATOMS
7
ITEM: BOX BOUNDS ss ss ss
-2.9654 3.2035
-2.5022 3.4382
-1.9962 2.0221
ITEM: ATOMS id type xs ys zs
1 1 .505800 .995133 .561363
2 1 .994752 .615309 .548971
3 1 .798227 .004561 .454176
4 1 .179775 .008608 .422538
5 1 .010835 .623762 .510603
6 1 .490056 .412307 .992785
7 1 .503318 .471429 .000998
ITEM: TIMESTEP
50
ITEM: NUMBER OF ATOMS
7
ITEM: BOX BOUNDS ss ss ss
-2.9654 3.2035
-2.5022 3.4428
-2.0248 2.0252
ITEM: ATOMS id type xs ys zs
1 1 .505966 .994618 .563728
2 1 .994268 .615345 .552194
3 1 .797915 .004825 .457807
4 1 .179522 .008336 .426010
5 1 .011658 .623346 .513993
6 1 .490242 .411560 .992759
7 1 .503180 .470681 .006928
ITEM: TIMESTEP
100
ITEM: NUMBER OF ATOMS
7
ITEM: BOX BOUNDS ss ss ss
-2.9654 3.2037
-2.5075 3.4486
-2.0344 2.0329
ITEM: ATOMS id type xs ys zs
1 1 .506175 .993548 .563310
2 1 .993410 .614833 .552174
3 1 .797903 .006015 .458061
4 1 .179317 .009148 .426574
5 1 .011742 .623019 .514562
6 1 .490427 .411700 .991207
7 1 .503780 .470672 .009309
ITEM: TIMESTEP
150
ITEM: NUMBER OF ATOMS
7
ITEM: BOX BOUNDS ss ss ss
-2.9654 3.2038
-2.5225 3.4517
-2.0348 2.0454
ITEM: ATOMS id type xs ys zs
1 1 .505565 .992834 .560720
2 1 .992314 .614681 .550281
3 1 .798076 .008615 .455902
4 1 .179275 .011856 .425848
5 1 .011375 .623467 .513713
6 1 .490345 .413014 .988465
7 1 .504138 .472002 .009874
ITEM: TIMESTEP
200
ITEM: NUMBER OF ATOMS
7
ITEM: BOX BOUNDS ss ss ss
-2.9654 3.2060
-2.5232 3.4542
-2.0427 2.0492
ITEM: ATOMS id type xs ys zs
1 1 .504769 .992432 .559978
2 1 .990923 .614024 .550418
3 1 .797604 .008421 .455681
4 1 .179265 .012117 .426766
5 1 .011064 .622791 .514420
6 1 .490080 .412770 .987832
7 1 .504059 .472299 .012022
ITEM: TIMESTEP
250
ITEM: NUMBER OF ATOMS
7
ITEM: BOX BOUNDS ss ss ss
-2.9654 3.2136
-2.5336 3.4680
-2.0404 2.0550
ITEM: ATOMS id type xs ys zs
1 1 .503638 .990527 .557059
2 1 .989207 .612828 .549023
3 1 .796255 .009868 .453359
4 1 .178939 .013846 .425768
5 1 .010467 .621361 .514407
6 1 .489363 .413262 .986293
7 1 .503430 .472368 .011463
ITEM: TIMESTEP
300
ITEM: NUMBER OF ATOMS
7
ITEM: BOX BOUNDS ss ss ss
-2.9662 3.2035
-2.5238 3.4630
-2.0464 2.0739
ITEM: ATOMS id type xs ys zs
1 1 .503861 .991563 .552413
2 1 .990468 .612064 .547460
3 1 .797377 .007807 .451939
4 1 .178787 .012457 .423573
5 1 .009652 .621156 .514612
6 1 .489887 .412824 .981291
7 1 .504117 .471552 .013499
ITEM: TIMESTEP
350
ITEM: NUMBER OF ATOMS
7
ITEM: BOX BOUNDS ss ss ss
-2.9654 3.2035
-2.5337 3.4665
-2.0389 2.0565
ITEM: ATOMS id type xs ys zs
1 1 .503171 .991088 .551892
2 1 .990142 .612085 .549041
3 1 .797440 .008638 .452986
4 1 .178462 .014134 .423448
5 1 .008702 .621392 .517279
6 1 .489758 .413336 .985070
7 1 .503898 .471801 .012483
ITEM: TIMESTEP
400
ITEM: NUMBER OF ATOMS
7
ITEM: BOX BOUNDS ss ss ss
-2.9654 3.2089
-2.5543 3.4606
-2.0453 2.0577
ITEM: ATOMS id type xs ys zs
1 1 .501535 .993238 .552279
2 1 .988747 .614180 .548222
3 1 .797465 .009979 .453982
4 1 .178814 .017837 .422502
5 1 .007807 .623390 .518241
6 1 .489548 .414690 .983077
7 1 .503494 .474411 .016534
ITEM: TIMESTEP
1
ITEM: NUMBER OF ATOMS
7
ITEM: BOX BOUNDS ss ss ss
-2.9654 3.1937
-2.5322 3.4438
-2.0025 2.0221
ITEM: ATOMS id type xs ys zs
1 1 .506604 .994242 .562042
2 1 .996334 .616671 .549671
3 1 .799497 .009556 .455019
4 1 .180059 .013578 .423433
5 1 .010853 .625078 .511363
6 1 .490836 .414878 .992795
7 1 .504117 .473649 .002540
ITEM: TIMESTEP
50
ITEM: NUMBER OF ATOMS
7
ITEM: BOX BOUNDS ss ss ss
-2.9654 3.1963
-2.5322 3.4438
-2.0276 2.0243
ITEM: ATOMS id type xs ys zs
1 1 .506556 .994517 .564196
2 1 .995449 .617234 .552639
3 1 .798824 .009814 .458290
4 1 .179690 .013262 .426488
5 1 .011718 .625129 .514473
6 1 .490775 .414428 .992993
7 1 .503692 .473262 .007573
ITEM: TIMESTEP
100
ITEM: NUMBER OF ATOMS
7
ITEM: BOX BOUNDS ss ss ss
-2.9654 3.2037
-2.5322 3.4463
-2.0326 2.0334
ITEM: ATOMS id type xs ys zs
1 1 .506021 .993893 .562712
2 1 .993379 .616820 .551973
3 1 .797933 .010122 .457736
4 1 .179205 .013077 .426140
5 1 .011778 .624772 .514529
6 1 .490431 .414183 .991020
7 1 .503759 .472958 .009002
ITEM: TIMESTEP
150
ITEM: NUMBER OF ATOMS
7
ITEM: BOX BOUNDS ss ss ss
-2.9654 3.2031
-2.5322 3.4604
-2.0329 2.0409
ITEM: ATOMS id type xs ys zs
1 1 .505839 .990943 .560985
2 1 .992849 .614728 .551328
3 1 .798329 .009964 .455655
4 1 .178792 .013328 .425159
5 1 .011447 .622932 .515114
6 1 .490867 .412916 .989102
7 1 .504566 .471998 .010545
ITEM: TIMESTEP
200
ITEM: NUMBER OF ATOMS
7
ITEM: BOX BOUNDS ss ss ss
-2.9654 3.2011
-2.5322 3.4567
-2.0422 2.0402
ITEM: ATOMS id type xs ys zs
1 1 .506314 .991060 .560415
2 1 .993269 .613794 .552652
3 1 .799066 .009695 .456155
4 1 .179522 .014504 .425949
5 1 .011346 .623170 .516832
6 1 .491260 .412923 .989875
7 1 .505168 .472582 .013145
ITEM: TIMESTEP
250
ITEM: NUMBER OF ATOMS
7
ITEM: BOX BOUNDS ss ss ss
-2.9654 3.2128
-2.5326 3.4588
-2.0463 2.0483
ITEM: ATOMS id type xs ys zs
1 1 .505892 .990199 .558640
2 1 .991413 .612592 .551754
3 1 .797960 .009636 .455475
4 1 .179550 .015482 .425364
5 1 .011454 .623285 .516348
6 1 .490422 .412372 .988643
7 1 .505012 .473263 .013923
ITEM: TIMESTEP
300
ITEM: NUMBER OF ATOMS
7
ITEM: BOX BOUNDS ss ss ss
-2.9654 3.2029
-2.5322 3.4518
-2.0501 2.0500
ITEM: ATOMS id type xs ys zs
1 1 .507586 .990433 .560305
2 1 .993730 .611372 .551692
3 1 .799354 .009327 .455813
4 1 .180465 .015789 .425771
5 1 .011739 .624159 .515196
6 1 .490641 .412702 .988285
7 1 .507085 .475257 .014336
ITEM: TIMESTEP
350
ITEM: NUMBER OF ATOMS
7
ITEM: BOX BOUNDS ss ss ss
-2.9654 3.2103
-2.5322 3.4536
-2.0451 2.0562
ITEM: ATOMS id type xs ys zs
1 1 .508098 .989446 .560854
2 1 .993372 .609297 .549008
3 1 .798332 .009430 .453798
4 1 .181246 .015455 .424967
5 1 .011803 .623464 .512273
6 1 .489531 .413016 .987316
7 1 .507241 .476125 .012159
ITEM: TIMESTEP
400
ITEM: NUMBER OF ATOMS
7
ITEM: BOX BOUNDS ss ss ss
-2.9654 3.2132
-2.5322 3.4494
-2.0410 2.0568
ITEM: ATOMS id type xs ys zs
1 1 .508275 .990061 .560446
2 1 .993192 .609040 .547887
3 1 .798037 .009803 .452775
4 1 .181845 .015511 .424528
5 1 .011507 .623864 .511664
6 1 .489138 .413420 .987720
7 1 .506922 .476832 .011229
ITEM: TIMESTEP
1
ITEM: NUMBER OF ATOMS
7
ITEM: BOX BOUNDS ss ss ss
-2.9654 3.2008
-2.5045 3.4312
-2.0277 2.0326
ITEM: ATOMS id type xs ys zs
1 1 .506021 .996321 .563314
2 1 .995188 .616188 .551050
3 1 .798573 .004953 .457235
4 1 .179850 .008997 .425922
5 1 .010840 .624645 .513075
6 1 .490267 .413025 .990270
7 1 .503537 .472194 .008744
ITEM: TIMESTEP
50
ITEM: NUMBER OF ATOMS
7
ITEM: BOX BOUNDS ss ss ss
-2.9654 3.2008
-2.5045 3.4394
-2.0277 2.0326
ITEM: ATOMS id type xs ys zs
1 1 .506202 .995213 .563066
2 1 .994710 .615946 .551551
3 1 .798241 .005234 .457375
4 1 .179563 .008709 .425565
5 1 .011747 .623809 .513455
6 1 .490436 .411960 .991046
7 1 .503321 .471100 .007500
ITEM: TIMESTEP
100
ITEM: NUMBER OF ATOMS
7
ITEM: BOX BOUNDS ss ss ss
-2.9654 3.2008
-2.5136 3.4485
-2.0409 2.0367
ITEM: ATOMS id type xs ys zs
1 1 .506510 .993583 .563419
2 1 .993775 .615444 .551826
3 1 .798074 .006962 .458612
4 1 .179110 .010348 .427029
5 1 .011887 .623312 .514962
6 1 .490715 .412164 .989946
7 1 .503934 .471299 .010682
ITEM: TIMESTEP
150
ITEM: NUMBER OF ATOMS
7
ITEM: BOX BOUNDS ss ss ss
-2.9654 3.2008
-2.5125 3.4501
-2.0398 2.0552
ITEM: ATOMS id type xs ys zs
1 1 .506939 .993082 .558995
2 1 .993561 .614580 .546722
3 1 .798555 .006354 .455608
4 1 .178120 .010934 .425004
5 1 .011313 .623611 .512413
6 1 .490625 .412003 .982027
7 1 .505200 .471225 .011151
ITEM: TIMESTEP
200
ITEM: NUMBER OF ATOMS
7
ITEM: BOX BOUNDS ss ss ss
-2.9654 3.2008
-2.5260 3.4575
-2.0425 2.0480
ITEM: ATOMS id type xs ys zs
1 1 .507243 .991474 .558734
2 1 .993735 .614341 .547270
3 1 .799651 .008117 .456220
4 1 .177807 .013535 .426269
5 1 .010920 .624118 .513574
6 1 .490620 .412591 .982424
7 1 .505909 .471208 .012573
ITEM: TIMESTEP
250
ITEM: NUMBER OF ATOMS
7
ITEM: BOX BOUNDS ss ss ss
-2.9654 3.2055
-2.5214 3.4518
-2.0395 2.0404
ITEM: ATOMS id type xs ys zs
1 1 .506913 .992150 .558716
2 1 .992930 .614008 .547700
3 1 .799842 .007275 .456100
4 1 .178042 .012933 .427400
5 1 .010567 .624761 .513811
6 1 .490119 .412712 .983943
7 1 .505417 .471148 .012166
ITEM: TIMESTEP
300
ITEM: NUMBER OF ATOMS
7
ITEM: BOX BOUNDS ss ss ss
-2.9654 3.2080
-2.5280 3.4511
-2.0420 2.0373
ITEM: ATOMS id type xs ys zs
1 1 .506736 .992251 .559250
2 1 .992452 .614027 .547927
3 1 .799811 .008425 .456215
4 1 .178289 .014136 .428183
5 1 .010479 .625558 .514049
6 1 .489887 .413261 .985395
7 1 .505106 .471867 .012379
ITEM: TIMESTEP
350
ITEM: NUMBER OF ATOMS
7
ITEM: BOX BOUNDS ss ss ss
-2.9654 3.2145
-2.5305 3.4540
-2.0428 2.0346
ITEM: ATOMS id type xs ys zs
1 1 .506745 .991881 .559730