ITEM: TIMESTEP
1
ITEM: NUMBER OF ATOMS
7
ITEM: BOX BOUNDS ss ss ss
-2.9028 3.1756
-2.4795 3.4130
-1.9963 1.9971
ITEM: ATOMS id type xs ys zs
1 1 .503026 .999324 .564904
2 1 .999272 .616344 .552331
3 1 .799867 .000729 .456995
4 1 .172187 .004863 .425224
5 1 .000527 .624980 .513750
6 1 .487056 .411892 .998851
7 1 .500586 .471492 .001247
ITEM: TIMESTEP
50
ITEM: NUMBER OF ATOMS
7
ITEM: BOX BOUNDS ss ss ss
-2.9278 3.1952
-2.4972 3.4362
-2.0195 2.0202
ITEM: ATOMS id type xs ys zs
1 1 .502454 .995951 .563840
2 1 .995958 .615001 .548474
3 1 .798355 .003826 .456602
4 1 .175856 .007959 .426993
5 1 .003671 .622696 .513920
6 1 .487247 .413019 .991185
7 1 .502103 .472224 .010631
ITEM: TIMESTEP
100
ITEM: NUMBER OF ATOMS
7
ITEM: BOX BOUNDS ss ss ss
-2.9374 3.1999
-2.5090 3.4495
-2.0273 2.0354
ITEM: ATOMS id type xs ys zs
1 1 .503853 .992568 .565256
2 1 .995983 .611377 .549957
3 1 .798681 .004395 .457194
4 1 .176259 .011142 .425370
5 1 .003075 .623452 .511465
6 1 .487014 .413914 .988504
7 1 .501608 .472426 .010663
ITEM: TIMESTEP
150
ITEM: NUMBER OF ATOMS
7
ITEM: BOX BOUNDS ss ss ss
-2.9444 3.2066
-2.5159 3.4533
-2.0229 2.0303
ITEM: ATOMS id type xs ys zs
1 1 .503082 .990056 .567448
2 1 .997681 .613761 .552358
3 1 .797554 .006454 .453211
4 1 .176295 .014398 .422998
5 1 .004539 .625511 .510569
6 1 .490216 .415201 .986709
7 1 .503652 .472885 .013570
ITEM: TIMESTEP
200
ITEM: NUMBER OF ATOMS
7
ITEM: BOX BOUNDS ss ss ss
-2.9454 3.2111
-2.5177 3.4492
-2.0301 2.0346
ITEM: ATOMS id type xs ys zs
1 1 .502223 .989819 .563206
2 1 .994977 .610119 .550579
3 1 .797343 .006473 .455162
4 1 .178761 .014014 .424298
5 1 .002995 .624646 .512311
6 1 .487889 .415134 .988988
7 1 .505534 .474209 .013834
ITEM: TIMESTEP
250
ITEM: NUMBER OF ATOMS
7
ITEM: BOX BOUNDS ss ss ss
-2.9529 3.2137
-2.5251 3.4569
-2.0336 2.0339
ITEM: ATOMS id type xs ys zs
1 1 .502468 .989266 .564054
2 1 .994569 .609298 .548842
3 1 .797061 .006772 .455085
4 1 .179693 .015822 .425200
5 1 .003811 .623783 .513828
6 1 .488031 .416166 .987114
7 1 .505637 .475440 .015862
ITEM: TIMESTEP
300
ITEM: NUMBER OF ATOMS
7
ITEM: BOX BOUNDS ss ss ss
-2.9634 3.2142
-2.5251 3.4507
-2.0195 2.0391
ITEM: ATOMS id type xs ys zs
1 1 .504086 .988813 .562238
2 1 .995843 .610034 .548056
3 1 .798819 .007797 .451825
4 1 .181558 .014439 .424396
5 1 .003700 .622233 .509261
6 1 .488088 .416692 .985469
7 1 .506471 .477784 .013643
ITEM: TIMESTEP
350
ITEM: NUMBER OF ATOMS
7
ITEM: BOX BOUNDS ss ss ss
-2.9723 3.2204
-2.5352 3.4495
-2.0214 2.0309
ITEM: ATOMS id type xs ys zs
1 1 .502762 .989345 .565399
2 1 .995922 .609860 .549653
3 1 .798204 .008073 .450334
4 1 .184138 .016326 .426581
5 1 .005111 .623966 .511228
6 1 .489452 .416559 .985114
7 1 .506690 .476285 .015541
ITEM: TIMESTEP
400
ITEM: NUMBER OF ATOMS
7
ITEM: BOX BOUNDS ss ss ss
-2.9807 3.2256
-2.5367 3.4439
-2.0195 2.0286
ITEM: ATOMS id type xs ys zs
1 1 .502484 .992606 .564635
2 1 .993751 .613345 .545786
3 1 .797989 .009450 .450841
4 1 .185381 .017811 .427034
5 1 .004677 .624271 .510468
6 1 .489990 .422823 .984581
7 1 .505003 .480071 .012445
ITEM: TIMESTEP
1
ITEM: NUMBER OF ATOMS
7
ITEM: BOX BOUNDS ss ss ss
-2.9691 3.2142
-2.5114 3.4252
-1.9960 1.9969
ITEM: ATOMS id type xs ys zs
1 1 .505202 .997256 .564906
2 1 .993026 .617134 .552292
3 1 .797004 .006097 .456987
4 1 .179998 .010190 .425219
5 1 .011238 .625703 .513748
6 1 .489509 .414203 .998910
7 1 .502819 .473356 .001178
ITEM: TIMESTEP
50
ITEM: NUMBER OF ATOMS
7
ITEM: BOX BOUNDS ss ss ss
-2.9691 3.2142
-2.5114 3.4342
-2.0199 2.0212
ITEM: ATOMS id type xs ys zs
1 1 .504918 .995841 .566167
2 1 .994125 .614213 .552329
3 1 .796154 .005043 .456506
4 1 .179412 .010604 .422926
5 1 .010599 .625228 .510114
6 1 .489764 .414503 .989279
7 1 .502293 .474861 .012867
ITEM: TIMESTEP
100
ITEM: NUMBER OF ATOMS
7
ITEM: BOX BOUNDS ss ss ss
-2.9691 3.2142
-2.5114 3.4410
-2.0352 2.0297
ITEM: ATOMS id type xs ys zs
1 1 .506207 .995543 .561571
2 1 .992658 .613611 .551144
3 1 .799167 .006433 .456561
4 1 .180547 .014996 .421829
5 1 .009711 .626453 .513355
6 1 .488773 .415445 .985896
7 1 .505082 .474130 .015280
ITEM: TIMESTEP
150
ITEM: NUMBER OF ATOMS
7
ITEM: BOX BOUNDS ss ss ss
-2.9691 3.2142
-2.5114 3.4462
-2.0412 2.0342
ITEM: ATOMS id type xs ys zs
1 1 .504411 .991421 .563184
2 1 .994182 .612055 .551906
3 1 .796721 .005420 .455788
4 1 .180586 .013346 .423616
5 1 .006238 .626130 .514826
6 1 .487131 .414951 .984818
7 1 .503471 .474288 .017415
ITEM: TIMESTEP
200
ITEM: NUMBER OF ATOMS
7
ITEM: BOX BOUNDS ss ss ss
-2.9691 3.2142
-2.5175 3.4475
-2.0191 2.0396
ITEM: ATOMS id type xs ys zs
1 1 .505433 .991495 .561482
2 1 .992871 .611926 .547784
3 1 .797864 .006566 .453345
4 1 .180151 .013766 .422032
5 1 .005860 .627083 .509551
6 1 .487145 .416109 .981353
7 1 .504697 .475814 .012053
ITEM: TIMESTEP
250
ITEM: NUMBER OF ATOMS
7
ITEM: BOX BOUNDS ss ss ss
-2.9691 3.2144
-2.5187 3.4530
-2.0169 2.0354
ITEM: ATOMS id type xs ys zs
1 1 .505070 .989851 .563297
2 1 .993815 .610370 .547992
3 1 .798075 .006603 .452657
4 1 .180910 .015115 .422410
5 1 .005038 .624842 .509949
6 1 .487222 .414518 .984032
7 1 .504332 .476051 .012300
ITEM: TIMESTEP
300
ITEM: NUMBER OF ATOMS
7
ITEM: BOX BOUNDS ss ss ss
-2.9694 3.2204
-2.5220 3.4572
-2.0132 2.0220
ITEM: ATOMS id type xs ys zs
1 1 .504137 .989326 .561583
2 1 .992073 .611449 .547977
3 1 .799870 .005625 .454010
4 1 .179754 .015219 .424752
5 1 .003321 .622943 .507210
6 1 .487656 .415875 .986798
7 1 .505452 .475819 .014362
ITEM: TIMESTEP
350
ITEM: NUMBER OF ATOMS
7
ITEM: BOX BOUNDS ss ss ss
-2.9804 3.2213
-2.5251 3.4467
-2.0225 2.0318
ITEM: ATOMS id type xs ys zs
1 1 .505312 .992080 .565154
2 1 .993760 .611324 .547813
3 1 .797862 .006493 .449961
4 1 .181485 .015726 .422855
5 1 .003787 .626679 .513568
6 1 .490442 .416451 .982043
7 1 .505300 .476604 .016603
ITEM: TIMESTEP
400
ITEM: NUMBER OF ATOMS
7
ITEM: BOX BOUNDS ss ss ss
-2.9945 3.2203
-2.5300 3.4540
-2.0228 2.0269
ITEM: ATOMS id type xs ys zs
1 1 .505446 .991045 .564768
2 1 .993375 .610164 .548279
3 1 .798895 .007905 .452489
4 1 .184410 .018199 .424401
5 1 .006372 .625749 .511987
6 1 .489154 .417728 .982604
7 1 .506608 .476876 .017339
ITEM: TIMESTEP
1
ITEM: NUMBER OF ATOMS
7
ITEM: BOX BOUNDS ss ss ss
-2.9794 3.2142
-2.5114 3.4321
-1.9963 2.0076
ITEM: ATOMS id type xs ys zs
1 1 .506031 .996103 .563434
2 1 .993041 .616425 .550891
3 1 .797333 .006080 .455825
4 1 .181355 .010187 .424112
5 1 .012896 .624974 .512422
6 1 .490367 .413728 .996249
7 1 .503659 .472805 .001246
ITEM: TIMESTEP
50
ITEM: NUMBER OF ATOMS
7
ITEM: BOX BOUNDS ss ss ss
-2.9794 3.2142
-2.5114 3.4380
-2.0219 2.0190
ITEM: ATOMS id type xs ys zs
1 1 .506968 .994861 .566520
2 1 .993025 .614835 .550235
3 1 .797595 .006681 .458150
4 1 .183028 .010522 .427993
5 1 .012291 .624102 .508844
6 1 .489697 .416211 .995156
7 1 .505224 .474965 .009134
ITEM: TIMESTEP
100
ITEM: NUMBER OF ATOMS
7
ITEM: BOX BOUNDS ss ss ss
-2.9794 3.2142
-2.5169 3.4435
-2.0279 2.0352
ITEM: ATOMS id type xs ys zs
1 1 .504338 .994536 .565808
2 1 .992592 .615236 .550522
3 1 .800110 .007531 .456320
4 1 .179478 .012327 .426863
5 1 .010202 .626271 .508837
6 1 .489770 .415804 .987634
7 1 .503938 .474112 .014247
ITEM: TIMESTEP
150
ITEM: NUMBER OF ATOMS
7
ITEM: BOX BOUNDS ss ss ss
-2.9794 3.2142
-2.5171 3.4471
-2.0357 2.0348
ITEM: ATOMS id type xs ys zs
1 1 .504230 .993605 .568065
2 1 .992959 .614724 .549243
3 1 .802113 .007540 .457980
4 1 .179794 .011949 .430898
5 1 .009888 .625030 .509368
6 1 .490485 .416400 .986170
7 1 .505832 .473329 .019214
ITEM: TIMESTEP
200
ITEM: NUMBER OF ATOMS
7
ITEM: BOX BOUNDS ss ss ss
-2.9794 3.2142
-2.5228 3.4458
-2.0300 2.0392
ITEM: ATOMS id type xs ys zs
1 1 .502888 .992844 .561734
2 1 .995357 .615066 .547332
3 1 .801114 .007063 .455206
4 1 .180440 .014562 .429654
5 1 .007956 .624308 .509396
6 1 .491120 .416201 .981878
7 1 .506408 .475182 .015211
ITEM: TIMESTEP
250
ITEM: NUMBER OF ATOMS
7
ITEM: BOX BOUNDS ss ss ss
-2.9794 3.2142
-2.5196 3.4482
-2.0185 2.0334
ITEM: ATOMS id type xs ys zs
1 1 .501764 .991639 .562533
2 1 .996080 .613802 .546941
3 1 .798741 .006999 .452823
4 1 .181341 .014158 .427331
5 1 .006368 .623822 .505404
6 1 .488582 .417082 .979867
7 1 .506287 .474962 .013603
ITEM: TIMESTEP
300
ITEM: NUMBER OF ATOMS
7
ITEM: BOX BOUNDS ss ss ss
-2.9691 3.2143
-2.5124 3.4517
-2.0230 2.0311
ITEM: ATOMS id type xs ys zs
1 1 .501876 .991447 .564467
2 1 .997226 .613148 .547613
3 1 .800207 .005004 .451293
4 1 .181236 .011896 .428924
5 1 .002224 .621557 .504966
6 1 .488478 .415062 .982284
7 1 .506562 .473192 .017594
ITEM: TIMESTEP
350
ITEM: NUMBER OF ATOMS
7
ITEM: BOX BOUNDS ss ss ss
-2.9771 3.2195
-2.5247 3.4444
-2.0246 2.0320
ITEM: ATOMS id type xs ys zs
1 1 .503013 .992237 .560546
2 1 .996093 .612701 .545977
3 1 .800938 .004409 .452580
4 1 .181915 .015557 .430956
5 1 .001962 .624857 .506161
6 1 .491550 .418406 .979743
7 1 .505945 .476989 .018476
ITEM: TIMESTEP
400
ITEM: NUMBER OF ATOMS
7
ITEM: BOX BOUNDS ss ss ss
-2.9845 3.2252
-2.5292 3.4503
-2.0200 2.0074
ITEM: ATOMS id type xs ys zs
1 1 .503293 .991661 .566287
2 1 .995468 .610227 .548091
3 1 .800376 .005872 .455789
4 1 .183558 .017024 .432773
5 1 .001843 .624833 .511076
6 1 .491033 .419392 .988567
7 1 .504507 .477035 .019853
ITEM: TIMESTEP
1
ITEM: NUMBER OF ATOMS
7
ITEM: BOX BOUNDS ss ss ss
-2.9789 3.2223
-2.5098 3.4198
-1.9959 2.0004
ITEM: ATOMS id type xs ys zs
1 1 .505320 .998175 .564399
2 1 .991754 .617609 .551829
3 1 .796301 .005824 .456556
4 1 .181041 .009947 .424853
5 1 .012770 .626175 .513292
6 1 .489672 .414415 .998014
7 1 .502960 .473666 .001121
ITEM: TIMESTEP
50
ITEM: NUMBER OF ATOMS
7
ITEM: BOX BOUNDS ss ss ss
-2.9789 3.2223
-2.5098 3.4431
-2.0256 2.0240
ITEM: ATOMS id type xs ys zs
1 1 .506210 .993507 .568534
2 1 .992016 .613993 .549383
3 1 .796232 .004567 .455368
4 1 .181373 .008569 .427097
5 1 .012142 .623287 .516932
6 1 .490832 .414856 .990889
7 1 .504739 .473288 .011099
ITEM: TIMESTEP
100
ITEM: NUMBER OF ATOMS
7
ITEM: BOX BOUNDS ss ss ss
-2.9789 3.2223
-2.5098 3.4453
-2.0318 2.0310
ITEM: ATOMS id type xs ys zs
1 1 .507876 .992466 .570121
2 1 .991882 .612938 .547360
3 1 .796562 .004476 .452261
4 1 .181955 .010534 .425833
5 1 .011224 .625762 .515357
6 1 .491156 .415163 .987603
7 1 .502938 .475346 .014210
ITEM: TIMESTEP
150
ITEM: NUMBER OF ATOMS
7
ITEM: BOX BOUNDS ss ss ss
-2.9789 3.2223
-2.5265 3.4471
-2.0254 2.0378
ITEM: ATOMS id type xs ys zs
1 1 .506800 .992407 .565994
2 1 .993751 .612676 .545525
3 1 .797614 .006995 .452427
4 1 .181745 .013845 .422161
5 1 .011164 .626804 .514890
6 1 .490510 .416881 .987017
7 1 .505365 .476586 .016252
ITEM: TIMESTEP
200
ITEM: NUMBER OF ATOMS
7
ITEM: BOX BOUNDS ss ss ss
-2.9789 3.2223
-2.5266 3.4548
-2.0349 2.0434
ITEM: ATOMS id type xs ys zs
1 1 .506542 .989728 .566885
2 1 .993267 .610684 .544280
3 1 .798063 .005937 .451708
4 1 .182070 .012165 .425380
5 1 .008527 .626624 .516375
6 1 .489402 .411990 .980883
7 1 .504328 .473004 .018944
ITEM: TIMESTEP
250
ITEM: NUMBER OF ATOMS
7
ITEM: BOX BOUNDS ss ss ss
-2.9789 3.2223
-2.5358 3.4576
-2.0208 2.0385
ITEM: ATOMS id type xs ys zs
1 1 .506414 .989019 .567364
2 1 .992565 .608870 .545163
3 1 .799468 .006968 .448213
4 1 .182524 .014120 .422638
5 1 .007364 .626376 .516633
6 1 .489329 .412975 .983294
7 1 .505072 .474023 .016414
ITEM: TIMESTEP
300
ITEM: NUMBER OF ATOMS
7
ITEM: BOX BOUNDS ss ss ss
-2.9789 3.2223
-2.5318 3.4538
-2.0221 2.0398
ITEM: ATOMS id type xs ys zs
1 1 .505279 .988548 .566023
2 1 .993960 .609898 .544611
3 1 .798306 .006422 .451525
4 1 .182671 .014956 .424778
5 1 .005924 .626559 .516859
6 1 .490485 .412192 .984232
7 1 .505294 .474610 .020901
ITEM: TIMESTEP
350
ITEM: NUMBER OF ATOMS
7
ITEM: BOX BOUNDS ss ss ss
-2.9789 3.2223
-2.5405 3.4484
-2.0245 2.0342
ITEM: ATOMS id type xs ys zs
1 1 .508531 .989767 .565688
2 1 .996354 .609585 .547357
3 1 .800523 .007957 .451224
4 1 .182347 .015249 .425148
5 1 .005761 .626504 .517242
6 1 .489558 .417144 .980583
7 1 .504631 .477586 .015998
ITEM: TIMESTEP
400
ITEM: NUMBER OF ATOMS
7
ITEM: BOX BOUNDS ss ss ss
-2.9789 3.2288
-2.5581 3.4545
-2.0036 2.0306
ITEM: ATOMS id type xs ys zs
1 1 .508314 .989328 .567956
2 1 .996577 .607825 .543781
3 1 .800247 .012121 .445635
4 1 .182478 .018320 .420505
5 1 .005211 .626315 .517080
6 1 .489238 .417994 .981375
7 1 .503023 .477637 .012385
ITEM: TIMESTEP
1
ITEM: NUMBER OF ATOMS
7
ITEM: BOX BOUNDS ss ss ss
-2.9789 3.2223
-2.5179 3.4198
-1.9964 2.0004
ITEM: ATOMS id type xs ys zs
1 1 .505323 .998178 .564476
2 1 .991779 .618097 .551859
3 1 .796302 .007183 .456602
4 1 .181051 .011286 .424884
5 1 .012787 .626674 .513326
6 1 .489674 .415237 .998003
7 1 .502939 .474375 .001281
ITEM: TIMESTEP
50
ITEM: NUMBER OF ATOMS
7
ITEM: BOX BOUNDS ss ss ss
-2.9789 3.2223
-2.5179 3.4406
-2.0218 2.0220
ITEM: ATOMS id type xs ys zs
1 1 .505091 .995046 .563619
2 1 .991039 .614648 .551650
3 1 .796113 .006710 .457528
4 1 .180458 .010981 .425702
5 1 .011659 .624954 .514161
6 1 .489406 .414814 .990680
7 1 .504265 .472981 .010236
ITEM: TIMESTEP
100
ITEM: NUMBER OF ATOMS
7
ITEM: BOX BOUNDS ss ss ss
-2.9789 3.2223
-2.5179 3.4464
-2.0286 2.0344
ITEM: ATOMS id type xs ys zs
1 1 .506501 .991235 .564147
2 1 .992062 .614441 .548055
3 1 .795107 .006764 .454531
4 1 .181155 .012747 .428120
5 1 .009580 .624273 .515150
6 1 .491412 .414603 .989473
7 1 .502816 .475178 .010918
ITEM: TIMESTEP
150
ITEM: NUMBER OF ATOMS
7
ITEM: BOX BOUNDS ss ss ss
-2.9789 3.2223
-2.5203 3.4556
-2.0354 2.0407
ITEM: ATOMS id type xs ys zs
1 1 .504842 .990964 .561748
2 1 .991678 .611381 .549091
3 1 .796310 .007391 .457055
4 1 .181178 .012651 .426335
5 1 .010586 .623635 .514928
6 1 .490215 .415605 .985457
7 1 .503497 .473391 .014876
ITEM: TIMESTEP
200
ITEM: NUMBER OF ATOMS
7
ITEM: BOX BOUNDS ss ss ss
-2.9789 3.2223
-2.5179 3.4566
-2.0308 2.0399
ITEM: ATOMS id type xs ys zs
1 1 .503414 .992719 .560636
2 1 .990689 .611242 .545823
3 1 .793977 .004613 .460536
4 1 .181128 .009615 .432933
5 1 .009031 .625631 .516328
6 1 .490507 .418291 .985151
7 1 .503961 .472223 .016350
ITEM: TIMESTEP
250
ITEM: NUMBER OF ATOMS
7
ITEM: BOX BOUNDS ss ss ss
-2.9789 3.2223
-2.5275 3.4544
-2.0303 2.0383
ITEM: ATOMS id type xs ys zs
1 1 .502568 .992847 .562629
2 1 .992365 .612750 .548791
3 1 .794294 .005662 .460198
4 1 .180796 .012129 .432750
5 1 .007048 .626239 .517313
6 1 .489976 .419322 .985054
7 1 .505316 .473682 .018143
ITEM: TIMESTEP
300
ITEM: NUMBER OF ATOMS
7
ITEM: BOX BOUNDS ss ss ss
-2.9789 3.2223
-2.5364 3.4592
-2.0274 2.0534
ITEM: ATOMS id type xs ys zs
1 1 .504084 .991642 .559873
2 1 .992700 .613007 .542863
3 1 .794186 .008160 .457829
4 1 .180338 .015148 .433321
5 1 .008673 .625959 .515387
6 1 .488734 .419424 .980929
7 1 .503389 .474040 .020234
ITEM: TIMESTEP
350
ITEM: NUMBER OF ATOMS
7
ITEM: BOX BOUNDS ss ss ss
-2.9789 3.2223
-2.5363 3.4679
-2.0203 2.0477
ITEM: ATOMS id type xs ys zs
1 1 .504721 .989283 .559058
2 1 .993257 .611443 .540500
3 1 .797399 .008303 .451554
4 1 .182752 .017179 .421664
5 1 .006706 .621465 .512002
6 1 .489886 .416701 .983876
7 1 .504237 .476254 .014006
ITEM: TIMESTEP
400
ITEM: NUMBER OF ATOMS
7
ITEM: BOX BOUNDS ss ss ss
-2.9789 3.2223
-2.5364 3.4617
-2.0214 2.0390
ITEM: ATOMS id type xs ys zs
1 1 .500879 .992497 .564478
2 1 .991258 .610282 .545479
3 1 .796988 .007954 .454525
4 1 .183870 .015596 .424005
5 1 .006342 .622661 .512002
6 1 .488664 .420141 .981994
7 1 .505228 .476608 .015139
ITEM: TIMESTEP
1
ITEM: NUMBER OF ATOMS
7
ITEM: BOX BOUNDS ss ss ss
-2.9789 3.2223
-2.5184 3.4452
-1.9961 2.0078
ITEM: ATOMS id type xs ys zs
1 1 .505305 .993897 .563395
2 1 .991760 .615513 .550823
3 1 .796299 .007235 .455744
4 1 .181041 .011310 .424066
5 1 .012758 .624042 .512342
6 1 .489677 .413491 .996202
7 1 .502955 .472407 .001195
ITEM: TIMESTEP
50
ITEM: NUMBER OF ATOMS
7
ITEM: BOX BOUNDS ss ss ss
-2.9789 3.2223
-2.5184 3.4452
-2.0230 2.0256
ITEM: ATOMS id type xs ys zs
1 1 .502595 .993083 .563737
2 1 .992559 .612318 .551290
3 1 .797519 .006895 .455021
4 1 .181658 .012733 .427692
5 1 .010981 .623823 .511948
6 1 .490367 .413343 .991165
7 1 .503727 .471711 .010006
ITEM: TIMESTEP
100
ITEM: NUMBER OF ATOMS
7
ITEM: BOX BOUNDS ss ss ss
-2.9789 3.2223
-2.5184 3.4489
-2.0377 2.0386
ITEM: ATOMS id type xs ys zs
1 1 .503155 .992909 .563112
2 1 .991008 .612849 .550869
3 1 .797588 .007680 .456008
4 1 .183437 .010518 .428857
5 1 .011497 .623843 .513328
6 1 .490095 .413215 .987555
7 1 .503858 .473539 .013502
ITEM: TIMESTEP
150
ITEM: NUMBER OF ATOMS
7
ITEM: BOX BOUNDS ss ss ss
-2.9789 3.2223
-2.5184 3.4541
-2.0392 2.0365
ITEM: ATOMS id type xs ys zs
1 1 .503148 .991866 .561119
2 1 .990930 .613051 .548374
3 1 .797430 .006933 .455575
4 1 .182677 .011578 .427259
5 1 .010396 .623121 .514189
6 1 .490251 .414071 .986116
7 1 .504226 .473127 .015015
ITEM: TIMESTEP
200
ITEM: NUMBER OF ATOMS
7
ITEM: BOX BOUNDS ss ss ss
-2.9789 3.2223
-2.5211 3.4470
-2.0351 2.0420
ITEM: ATOMS id type xs ys zs
1 1 .505910 .991576 .559951
2 1 .991416 .612153 .550055
3 1 .794501 .006315 .459227
4 1 .180506 .011415 .425909
5 1 .005575 .621093 .512956
6 1 .488673 .416191 .987187
7 1 .502942 .472794 .015926
ITEM: TIMESTEP
250
ITEM: NUMBER OF ATOMS
7
ITEM: BOX BOUNDS ss ss ss
-2.9789 3.2223
-2.5267 3.4571
-2.0391 2.0395
ITEM: ATOMS id type xs ys zs
1 1 .506247 .989653 .558775
2 1 .990353 .610029 .553524
3 1 .795815 .005863 .461508
4 1 .180601 .013140 .427449
5 1 .005499 .619224 .511786
6 1 .487997 .417046 .988269
7 1 .504546 .471734 .017329
ITEM: TIMESTEP
300
ITEM: NUMBER OF ATOMS
7
ITEM: BOX BOUNDS ss ss ss
-2.9789 3.2223
-2.5262 3.4613
-2.0357 2.0421
ITEM: ATOMS id type xs ys zs
1 1 .504775 .989607 .560686
2 1 .992416 .609940 .549629
3 1 .797404 .009467 .462005
4 1 .180078 .015051 .424775
5 1 .006791 .622847 .512689
6 1 .489211 .417740 .989086
7 1 .506255 .473997 .016933
ITEM: TIMESTEP
350
ITEM: NUMBER OF ATOMS
7
ITEM: BOX BOUNDS ss ss ss
-2.9789 3.2223
-2.5255 3.4635
-2.0249 2.0467
ITEM: ATOMS id type xs ys zs
1 1 .505335 .989810 .560424
2 1 .992759 .608519 .548417
3 1 .796598 .006157 .458668
4 1 .179394 .014169 .426891
5 1 .008282 .621590 .510940
6 1 .489620 .417713 .986492
7 1 .507342 .474036 .015469
ITEM: TIMESTEP
400
ITEM: NUMBER OF ATOMS
7
ITEM: BOX BOUNDS ss ss ss
-2.9689 3.2110
-2.5204 3.4666
-2.0270 2.0327
ITEM: ATOMS id type xs ys zs
1 1 .504336 .989467 .563232
2 1 .997017 .607600 .552712
3 1 .797559 .002829 .459275
4 1 .179674 .014522 .430588
5 1 .005080 .620946 .512987
6 1 .489712 .416553 .987528
7 1 .507171 .473427 .015383
ITEM: TIMESTEP
1
ITEM: NUMBER OF ATOMS
7
ITEM: BOX BOUNDS ss ss ss
-2.9654 3.1937
-2.4994 3.4312
-1.9960 2.0221
ITEM: ATOMS id type xs ys zs
1 1 .506577 .996234 .561360
2 1 .996355 .615738 .548850
3 1 .799546 .004074 .454119
4 1 .180078 .008187 .422542
5 1 .010687 .624307 .510525
6 1 .490839 .412606 .992638
7 1 .504214 .471814 .001181
ITEM: TIMESTEP
50
ITEM: NUMBER OF ATOMS
7
ITEM: BOX BOUNDS ss ss ss
-2.9654 3.1949
-2.5001 3.4370
-2.0247 2.0241
ITEM: ATOMS id type xs ys zs
1 1 .505926 .994391 .564590
2 1 .996712 .614934 .551952
3 1 .799585 .004328 .456928
4 1 .179450 .010016 .426448
5 1 .008619 .623717 .516251
6 1 .490979 .412851 .991889
7 1 .504617 .471243 .011555
ITEM: TIMESTEP
100
ITEM: NUMBER OF ATOMS
7
ITEM: BOX BOUNDS ss ss ss
-2.9654 3.2000
-2.5067 3.4547
-2.0395 2.0348
ITEM: ATOMS id type xs ys zs
1 1 .506650 .993648 .565721
2 1 .994181 .611527 .550636
3 1 .800224 .006284 .458996
4 1 .178966 .011084 .428319
5 1 .008972 .623545 .514313
6 1 .488236 .413572 .987630
7 1 .502499 .471660 .015039
ITEM: TIMESTEP
150
ITEM: NUMBER OF ATOMS
7
ITEM: BOX BOUNDS ss ss ss
-2.9654 3.1996
-2.5101 3.4601
-2.0312 2.0445
ITEM: ATOMS id type xs ys zs
1 1 .507316 .991594 .560519
2 1 .994263 .612585 .548375
3 1 .798440 .005854 .459921
4 1 .179674 .011020 .428028
5 1 .009072 .623354 .512328
6 1 .489774 .415263 .985648
7 1 .504323 .470426 .014043
ITEM: TIMESTEP
200
ITEM: NUMBER OF ATOMS
7
ITEM: BOX BOUNDS ss ss ss
-2.9654 3.2041
-2.5129 3.4555
-2.0326 2.0522
ITEM: ATOMS id type xs ys zs
1 1 .506974 .992553 .559001
2 1 .993674 .613670 .546824
3 1 .797381 .006028 .460056
4 1 .179611 .013641 .430379
5 1 .009054 .624873 .510343
6 1 .488990 .416674 .985070
7 1 .504823 .472294 .016301
ITEM: TIMESTEP
250
ITEM: NUMBER OF ATOMS
7
ITEM: BOX BOUNDS ss ss ss
-2.9654 3.1996
-2.5115 3.4658
-2.0295 2.0406
ITEM: ATOMS id type xs ys zs
1 1 .506791 .990663 .560888
2 1 .996866 .611862 .546772
3 1 .799154 .005505 .461019
4 1 .180378 .011730 .432155
5 1 .008228 .623873 .507028
6 1 .488697 .416979 .987574
7 1 .507246 .471850 .016480
ITEM: TIMESTEP
300
ITEM: NUMBER OF ATOMS
7
ITEM: BOX BOUNDS ss ss ss
-2.9654 3.2026
-2.5140 3.4661
-2.0181 2.0453
ITEM: ATOMS id type xs ys zs
1 1 .505658 .988504 .559690
2 1 .997004 .611038 .543553
3 1 .798599 .006627 .458737
4 1 .179961 .012646 .430224
5 1 .007281 .623448 .506375
6 1 .488845 .418023 .984582
7 1 .507666 .471200 .014481
ITEM: TIMESTEP
350
ITEM: NUMBER OF ATOMS
7
ITEM: BOX BOUNDS ss ss ss
-2.9654 3.2084
-2.5181 3.4663
-2.0107 2.0394
ITEM: ATOMS id type xs ys zs
1 1 .504847 .988511 .560077
2 1 .996219 .612202 .542995
3 1 .798345 .006786 .458633
4 1 .179829 .013919 .429479
5 1 .006632 .623262 .506358
6 1 .488289 .418608 .985179
7 1 .506877 .473449 .012921
ITEM: TIMESTEP
400
ITEM: NUMBER OF ATOMS
7
ITEM: BOX BOUNDS ss ss ss
-2.9654 3.2134
-2.5143 3.4521
-2.0232 2.0465
ITEM: ATOMS id type xs ys zs
1 1 .502438 .991076 .562979
2 1 .994847 .611822 .542750
3 1 .797068 .005367 .460758
4 1 .179604 .012876 .432980
5 1 .005609 .623905 .507075
6 1 .488359 .419483 .984336
7 1 .506354 .475821 .017850
ITEM: TIMESTEP
1
ITEM: NUMBER OF ATOMS
7
ITEM: BOX BOUNDS ss ss ss
-2.9654 3.2035
-2.5022 3.4382
-1.9962 2.0221
ITEM: ATOMS id type xs ys zs
1 1 .505789 .995059 .561382
2 1 .994765 .615193 .548885
3 1 .798290 .004535 .454126
4 1 .179826 .008640 .422605
5 1 .010653 .623754 .510555
6 1 .490061 .412407 .992653
7 1 .503391 .471521 .001245
ITEM: TIMESTEP
50
ITEM: NUMBER OF ATOMS
7
ITEM: BOX BOUNDS ss ss ss
-2.9654 3.2035
-2.5022 3.4428
-2.0248 2.0252
ITEM: ATOMS id type xs ys zs
1 1 .506359 .993400 .564535
2 1 .994415 .614589 .550228
3 1 .798448 .003128 .455045
4 1 .179319 .007762 .427574
5 1 .008720 .622239 .514384
6 1 .489161 .411914 .991350
7 1 .503584 .470247 .009823
ITEM: TIMESTEP
100
ITEM: NUMBER OF ATOMS
7
ITEM: BOX BOUNDS ss ss ss
-2.9654 3.2037
-2.5075 3.4486
-2.0344 2.0329
ITEM: ATOMS id type xs ys zs
1 1 .504582 .992564 .566065
2 1 .991684 .612603 .555543
3 1 .799970 .007899 .454464
4 1 .179645 .007882 .428608
5 1 .009284 .623759 .512255
6 1 .488370 .413282 .987955
7 1 .506271 .473845 .012889
ITEM: TIMESTEP
150
ITEM: NUMBER OF ATOMS
7
ITEM: BOX BOUNDS ss ss ss
-2.9654 3.2038
-2.5225 3.4517
-2.0348 2.0454
ITEM: ATOMS id type xs ys zs
1 1 .503382 .992426 .565611
2 1 .991931 .613639 .548737
3 1 .796998 .011167 .452740
4 1 .178230 .014313 .428532
5 1 .007836 .621605 .518483
6 1 .489420 .416553 .988956
7 1 .501802 .473049 .015646
ITEM: TIMESTEP
200
ITEM: NUMBER OF ATOMS
7
ITEM: BOX BOUNDS ss ss ss
-2.9654 3.2060
-2.5232 3.4542
-2.0427 2.0492
ITEM: ATOMS id type xs ys zs
1 1 .504647 .993283 .561767
2 1 .992258 .611941 .547029
3 1 .798466 .007733 .457317
4 1 .181357 .013297 .427837
5 1 .008048 .623134 .518981
6 1 .490901 .416968 .986908
7 1 .503939 .470485 .020383
ITEM: TIMESTEP
250
ITEM: NUMBER OF ATOMS
7
ITEM: BOX BOUNDS ss ss ss
-2.9654 3.2136
-2.5336 3.4680
-2.0404 2.0550
ITEM: ATOMS id type xs ys zs
1 1 .505204 .991147 .559833
2 1 .992768 .611329 .547127
3 1 .798785 .009538 .457414
4 1 .181052 .015375 .427635
5 1 .008263 .622428 .518358
6 1 .491051 .417002 .984109
7 1 .502803 .469478 .018895
ITEM: TIMESTEP
300
ITEM: NUMBER OF ATOMS
7
ITEM: BOX BOUNDS ss ss ss
-2.9662 3.2035
-2.5238 3.4630
-2.0464 2.0739
ITEM: ATOMS id type xs ys zs
1 1 .505365 .993298 .557303
2 1 .991602 .611635 .546268
3 1 .800078 .009171 .453979
4 1 .182275 .012871 .426393
5 1 .005307 .623927 .516584
6 1 .488345 .416162 .982483
7 1 .503981 .471302 .021565
ITEM: TIMESTEP
350
ITEM: NUMBER OF ATOMS
7
ITEM: BOX BOUNDS ss ss ss
-2.9654 3.2035
-2.5337 3.4665
-2.0389 2.0565
ITEM: ATOMS id type xs ys zs
1 1 .503720 .992397 .560397
2 1 .993007 .614644 .550387
3 1 .801113 .009622 .459326
4 1 .181686 .014994 .421046
5 1 .005668 .623901 .517142
6 1 .489110 .417120 .982499
7 1 .504407 .472404 .021602
ITEM: TIMESTEP
400
ITEM: NUMBER OF ATOMS
7
ITEM: BOX BOUNDS ss ss ss
-2.9654 3.2089
-2.5543 3.4606
-2.0453 2.0577
ITEM: ATOMS id type xs ys zs
1 1 .503370 .993017 .560635
2 1 .992976 .615272 .552153
3 1 .800331 .012949 .458837
4 1 .180323 .018201 .423328
5 1 .004987 .624135 .516132
6 1 .488557 .419649 .982260
7 1 .503907 .474730 .022080
ITEM: TIMESTEP
1
ITEM: NUMBER OF ATOMS
7
ITEM: BOX BOUNDS ss ss ss
-2.9654 3.1937
-2.5322 3.4438
-2.0025 2.0221
ITEM: ATOMS id type xs ys zs
1 1 .506622 .994209 .562041
2 1 .996376 .616495 .549533
3 1 .799591 .009567 .454977
4 1 .180114 .013619 .423565
5 1 .010651 .625050 .511281
6 1 .490816 .414976 .992687
7 1 .504261 .473784 .002869
ITEM: TIMESTEP
50
ITEM: NUMBER OF ATOMS
7
ITEM: BOX BOUNDS ss ss ss
-2.9654 3.1963
-2.5322 3.4438
-2.0276 2.0243
ITEM: ATOMS id type xs ys zs
1 1 .506574 .994957 .564252
2 1 .995826 .615123 .550072
3 1 .801347 .008853 .456150
4 1 .179092 .013230 .428361
5 1 .009946 .625217 .514762
6 1 .492238 .414526 .992657
7 1 .504117 .473059 .012475
ITEM: TIMESTEP
100
ITEM: NUMBER OF ATOMS
7
ITEM: BOX BOUNDS ss ss ss
-2.9654 3.2037
-2.5322 3.4463
-2.0326 2.0334
ITEM: ATOMS id type xs ys zs
1 1 .507037 .992798 .566884
2 1 .994077 .615731 .548220
3 1 .798843 .010448 .461520
4 1 .179229 .014972 .423007
5 1 .007076 .622839 .511678
6 1 .489576 .415487 .989628
7 1 .502753 .475255 .009468
ITEM: TIMESTEP
150
ITEM: NUMBER OF ATOMS
7
ITEM: BOX BOUNDS ss ss ss
-2.9654 3.2031
-2.5322 3.4604
-2.0329 2.0409
ITEM: ATOMS id type xs ys zs
1 1 .506860 .989570 .560089
2 1 .994959 .611073 .551899
3 1 .798795 .009113 .455868
4 1 .180652 .016603 .424252
5 1 .009742 .621093 .515587
6 1 .492715 .413949 .987527
7 1 .504073 .472818 .014065
ITEM: TIMESTEP
200
ITEM: NUMBER OF ATOMS
7
ITEM: BOX BOUNDS ss ss ss
-2.9654 3.2011
-2.5322 3.4567
-2.0422 2.0402
ITEM: ATOMS id type xs ys zs
1 1 .508932 .987616 .565868
2 1 .994609 .609857 .550688
3 1 .799328 .008718 .456875
4 1 .181137 .015982 .426525
5 1 .009645 .623265 .514296
6 1 .490126 .413256 .988832
7 1 .507916 .476722 .011607
ITEM: TIMESTEP
250
ITEM: NUMBER OF ATOMS
7
ITEM: BOX BOUNDS ss ss ss
-2.9654 3.2128
-2.5326 3.4588
-2.0463 2.0483
ITEM: ATOMS id type xs ys zs
1 1 .508249 .988488 .565335
2 1 .994343 .607565 .549177
3 1 .798634 .008412 .454556
4 1 .181491 .014494 .426939
5 1 .011190 .621601 .509690
6 1 .488699 .413954 .988430
7 1 .508418 .476755 .014732
ITEM: TIMESTEP
300
ITEM: NUMBER OF ATOMS
7
ITEM: BOX BOUNDS ss ss ss
-2.9654 3.2029
-2.5322 3.4518
-2.0501 2.0500
ITEM: ATOMS id type xs ys zs
1 1 .508365 .989114 .565384
2 1 .995952 .608129 .547654
3 1 .800007 .008935 .454589
4 1 .183067 .014508 .425543
5 1 .009322 .623283 .511272
6 1 .488454 .415722 .989199
7 1 .507598 .478383 .015429
ITEM: TIMESTEP
350
ITEM: NUMBER OF ATOMS
7
ITEM: BOX BOUNDS ss ss ss
-2.9654 3.2103
-2.5322 3.4536
-2.0451 2.0562
ITEM: ATOMS id type xs ys zs
1 1 .510673 .989269 .565562
2 1 .995489 .607859 .549433
3 1 .799666 .008593 .450606
4 1 .181563 .015308 .424699
5 1 .010022 .625046 .511538
6 1 .489556 .413287 .985675
7 1 .509988 .477017 .017228
ITEM: TIMESTEP
400
ITEM: NUMBER OF ATOMS
7
ITEM: BOX BOUNDS ss ss ss
-2.9654 3.2132
-2.5322 3.4494
-2.0410 2.0568
ITEM: ATOMS id type xs ys zs
1 1 .508263 .990500 .566545
2 1 .994845 .610417 .549224
3 1 .799201 .008507 .454393
4 1 .182570 .015741 .426178
5 1 .010411 .625124 .507950
6 1 .488405 .414239 .985205
7 1 .508692 .477485 .015001
ITEM: TIMESTEP
1
ITEM: NUMBER OF ATOMS
7
ITEM: BOX BOUNDS ss ss ss
-2.9654 3.2008
-2.5045 3.4312
-2.0277 2.0326
ITEM: ATOMS id type xs ys zs
1 1 .506005 .996239 .563336
2 1 .995204 .616073 .550940
3 1 .798607 .004917 .457207
4 1 .179874 .009031 .425946
5 1 .010650 .624634 .513019
6 1 .490273 .413113 .990123
7 1 .503635 .472292 .009005
ITEM: TIMESTEP
50
ITEM: NUMBER OF ATOMS
7
ITEM: BOX BOUNDS ss ss ss
-2.9654 3.2008
-2.5045 3.4394
-2.0277 2.0326
ITEM: ATOMS id type xs ys zs
1 1 .504156 .993192 .564954
2 1 .993626 .614945 .549556
3 1 .799280 .003618 .458570
4 1 .178849 .008986 .424522
5 1 .008971 .624394 .515647
6 1 .490561 .413311 .991867
7 1 .503973 .470515 .012321
ITEM: TIMESTEP
100
ITEM: NUMBER OF ATOMS
7
ITEM: BOX BOUNDS ss ss ss
-2.9654 3.2008
-2.5136 3.4485
-2.0409 2.0367
ITEM: ATOMS id type xs ys zs
1 1 .507136 .991416 .561745
2 1 .994345 .613989 .547950
3 1 .799623 .004930 .456756
4 1 .178708 .011885 .427116
5 1 .009696 .623894 .513961
6 1 .490466 .412560 .982726
7 1 .505769 .471239 .013351
ITEM: TIMESTEP
150
ITEM: NUMBER OF ATOMS
7
ITEM: BOX BOUNDS ss ss ss
-2.9654 3.2008
-2.5125 3.4501
-2.0398 2.0552
ITEM: ATOMS id type xs ys zs
1 1 .506226 .991501 .558287
2 1 .994710 .612853 .544834
3 1 .800053 .005371 .456199
4 1 .179348 .012115 .425336
5 1 .009527 .623923 .511157
6 1 .490481 .413296 .980443
7 1 .506281 .471549 .013776
ITEM: TIMESTEP
200
ITEM: NUMBER OF ATOMS
7
ITEM: BOX BOUNDS ss ss ss
-2.9654 3.2008
-2.5260 3.4575
-2.0425 2.0480
ITEM: ATOMS id type xs ys zs
1 1 .504709 .990691 .562041
2 1 .995275 .613529 .548286
3 1 .801766 .008547 .452210
4 1 .177743 .012552 .424207
5 1 .009054 .624474 .509171
6 1 .491052 .413449 .976124
7 1 .506244 .471721 .017305
ITEM: TIMESTEP
250
ITEM: NUMBER OF ATOMS
7
ITEM: BOX BOUNDS ss ss ss
-2.9654 3.2055
-2.5214 3.4518
-2.0395 2.0404
ITEM: ATOMS id type xs ys zs
1 1 .504876 .991955 .562910
2 1 .993649 .613488 .548915
3 1 .800608 .008027 .455795
4 1 .176916 .012583 .425146
5 1 .006933 .625367 .510267
6 1 .490452 .417564 .980861
7 1 .505373 .471884 .014184
ITEM: TIMESTEP
300
ITEM: NUMBER OF ATOMS
7
ITEM: BOX BOUNDS ss ss ss
-2.9654 3.2080
-2.5280 3.4511
-2.0420 2.0373
ITEM: ATOMS id type xs ys zs
1 1 .505567 .992441 .559390
2 1 .996434 .612141 .549404
3 1 .802589 .009856 .460016
4 1 .178857 .014756 .429289
5 1 .006703 .625643 .514459
6 1 .489205 .415112 .981379
7 1 .503408 .472219 .014315
ITEM: TIMESTEP
350
ITEM: NUMBER OF ATOMS
7
ITEM: BOX BOUNDS ss ss ss
-2.9654 3.2145
-2.5305 3.4540
-2.0428 2.0346
ITEM: ATOMS id type xs ys zs
1 1 .506651 .992144 .561530