ITEM: TIMESTEP
1
ITEM: NUMBER OF ATOMS
7
ITEM: BOX BOUNDS ss ss ss
-2.9519 3.1557
-2.6165 3.3674
-1.9445 1.9644
ITEM: ATOMS id type xs ys zs
1 1 .480757 .999219 .521114
2 1 .999398 .651608 .409680
3 1 .854557 .025602 .392482
4 1 .235412 .000544 .558794
5 1 .000754 .595482 .607569
6 1 .562322 .445672 .998870
7 1 .469053 .458899 .001114
ITEM: TIMESTEP
50
ITEM: NUMBER OF ATOMS
7
ITEM: BOX BOUNDS ss ss ss
-2.9741 3.1774
-2.6389 3.3878
-1.9656 1.9874
ITEM: ATOMS id type xs ys zs
1 1 .482093 .993609 .518087
2 1 .995512 .650784 .410463
3 1 .851091 .030693 .394067
4 1 .236567 .003228 .554836
5 1 .005868 .592051 .605266
6 1 .560437 .446321 .991483
7 1 .470253 .457504 .006553
ITEM: TIMESTEP
100
ITEM: NUMBER OF ATOMS
7
ITEM: BOX BOUNDS ss ss ss
-2.9777 3.1875
-2.6458 3.3910
-1.9694 1.9995
ITEM: ATOMS id type xs ys zs
1 1 .479318 .993336 .517616
2 1 .997102 .650578 .410641
3 1 .849845 .033079 .398007
4 1 .238468 .003804 .558310
5 1 .005392 .592312 .605454
6 1 .559554 .448757 .989093
7 1 .470114 .459862 .012662
ITEM: TIMESTEP
150
ITEM: NUMBER OF ATOMS
7
ITEM: BOX BOUNDS ss ss ss
-2.9752 3.1939
-2.6634 3.3910
-1.9712 2.0006
ITEM: ATOMS id type xs ys zs
1 1 .478332 .992471 .521204
2 1 .994841 .654352 .410490
3 1 .847790 .037751 .400032
4 1 .236668 .007803 .559175
5 1 .007100 .593626 .605580
6 1 .557245 .451056 .988716
7 1 .469912 .460387 .011512
ITEM: TIMESTEP
200
ITEM: NUMBER OF ATOMS
7
ITEM: BOX BOUNDS ss ss ss
-2.9882 3.2006
-2.6651 3.3979
-1.9752 2.0000
ITEM: ATOMS id type xs ys zs
1 1 .477567 .989832 .520977
2 1 .994661 .653127 .410229
3 1 .845202 .039481 .402655
4 1 .235752 .006758 .559495
5 1 .009029 .593976 .606818
6 1 .557934 .451069 .989436
7 1 .469931 .458449 .012657
ITEM: TIMESTEP
250
ITEM: NUMBER OF ATOMS
7
ITEM: BOX BOUNDS ss ss ss
-2.9827 3.2088
-2.6693 3.3966
-1.9713 2.0046
ITEM: ATOMS id type xs ys zs
1 1 .477382 .990804 .516112
2 1 .991587 .654206 .408611
3 1 .844404 .040360 .402305
4 1 .234104 .007008 .554840
5 1 .007392 .591006 .606214
6 1 .554622 .447968 .990074
7 1 .468423 .461073 .011068
ITEM: TIMESTEP
300
ITEM: NUMBER OF ATOMS
7
ITEM: BOX BOUNDS ss ss ss
-2.9822 3.2121
-2.6752 3.4066
-1.9779 2.0079
ITEM: ATOMS id type xs ys zs
1 1 .480199 .989327 .517415
2 1 .993128 .654082 .409062
3 1 .844200 .042009 .403520
4 1 .235745 .007598 .556142
5 1 .008826 .592322 .604583
6 1 .555791 .451016 .984626
7 1 .470714 .460941 .011198
ITEM: TIMESTEP
350
ITEM: NUMBER OF ATOMS
7
ITEM: BOX BOUNDS ss ss ss
-2.9857 3.2174
-2.6732 3.3983
-1.9712 2.0078
ITEM: ATOMS id type xs ys zs
1 1 .477922 .993134 .522978
2 1 .993109 .653202 .410119
3 1 .842249 .041697 .404911
4 1 .234614 .005900 .550752
5 1 .009462 .592037 .606559
6 1 .555910 .448446 .987492
7 1 .469936 .463347 .012581
ITEM: TIMESTEP
400
ITEM: NUMBER OF ATOMS
7
ITEM: BOX BOUNDS ss ss ss
-2.9854 3.2248
-2.6833 3.4031
-1.9743 2.0144
ITEM: ATOMS id type xs ys zs
1 1 .477177 .991440 .526224
2 1 .991295 .654156 .408630
3 1 .840832 .043728 .406443
4 1 .233305 .008455 .549382
5 1 .007767 .590899 .608888
6 1 .554955 .449806 .980981
7 1 .467489 .463625 .011925
ITEM: TIMESTEP
1
ITEM: NUMBER OF ATOMS
7
ITEM: BOX BOUNDS ss ss ss
-2.9834 3.2169
-2.6709 3.3954
-1.9736 1.9996
ITEM: ATOMS id type xs ys zs
1 1 .478673 .994657 .520004
2 1 .989547 .651749 .410385
3 1 .846887 .034195 .393432
4 1 .236980 .009521 .557067
5 1 .005830 .596392 .605078
6 1 .558986 .448613 .990053
7 1 .467147 .461632 .008387
ITEM: TIMESTEP
50
ITEM: NUMBER OF ATOMS
7
ITEM: BOX BOUNDS ss ss ss
-2.9834 3.2169
-2.6709 3.3954
-1.9708 1.9996
ITEM: ATOMS id type xs ys zs
1 1 .477909 .994449 .520884
2 1 .990427 .651613 .410380
3 1 .845782 .036255 .391719
4 1 .236223 .009279 .554475
5 1 .007163 .595455 .603726
6 1 .558355 .449316 .987475
7 1 .467085 .462416 .008928
ITEM: TIMESTEP
100
ITEM: NUMBER OF ATOMS
7
ITEM: BOX BOUNDS ss ss ss
-2.9834 3.2169
-2.6709 3.3954
-1.9755 1.9997
ITEM: ATOMS id type xs ys zs
1 1 .480336 .991265 .520810
2 1 .990094 .653276 .403492
3 1 .846406 .036583 .395386
4 1 .235355 .009428 .555109
5 1 .008844 .594693 .602557
6 1 .558955 .449555 .987546
7 1 .466593 .460556 .010193
ITEM: TIMESTEP
150
ITEM: NUMBER OF ATOMS
7
ITEM: BOX BOUNDS ss ss ss
-2.9789 3.2169
-2.6709 3.3955
-1.9707 1.9996
ITEM: ATOMS id type xs ys zs
1 1 .477433 .991254 .528402
2 1 .991794 .653054 .409745
3 1 .844180 .041392 .394913
4 1 .236995 .009687 .557672
5 1 .006434 .594494 .606156
6 1 .558480 .450302 .992799
7 1 .466877 .464183 .010866
ITEM: TIMESTEP
200
ITEM: NUMBER OF ATOMS
7
ITEM: BOX BOUNDS ss ss ss
-2.9776 3.2169
-2.6709 3.3958
-1.9821 1.9996
ITEM: ATOMS id type xs ys zs
1 1 .477091 .994046 .523050
2 1 .992891 .652042 .409890
3 1 .845207 .040150 .397951
4 1 .236425 .007459 .548884
5 1 .009549 .595119 .609135
6 1 .556692 .451167 .988468
7 1 .468639 .463601 .013684
ITEM: TIMESTEP
250
ITEM: NUMBER OF ATOMS
7
ITEM: BOX BOUNDS ss ss ss
-2.9776 3.2169
-2.6738 3.4007
-1.9704 2.0017
ITEM: ATOMS id type xs ys zs
1 1 .478300 .991563 .526596
2 1 .992734 .652691 .408659
3 1 .844665 .042895 .395319
4 1 .235207 .009151 .552485
5 1 .008141 .593377 .606095
6 1 .556737 .450183 .988712
7 1 .467494 .463908 .010044
ITEM: TIMESTEP
300
ITEM: NUMBER OF ATOMS
7
ITEM: BOX BOUNDS ss ss ss
-2.9796 3.2169
-2.6707 3.3980
-1.9704 2.0079
ITEM: ATOMS id type xs ys zs
1 1 .477473 .991214 .523012
2 1 .994011 .651441 .407307
3 1 .844086 .042437 .396415
4 1 .235159 .006915 .551402
5 1 .007469 .591508 .606586
6 1 .556621 .451095 .986568
7 1 .467751 .462382 .010723
ITEM: TIMESTEP
350
ITEM: NUMBER OF ATOMS
7
ITEM: BOX BOUNDS ss ss ss
-2.9776 3.2218
-2.6725 3.3974
-1.9720 2.0215
ITEM: ATOMS id type xs ys zs
1 1 .476142 .990881 .520775
2 1 .992649 .652088 .403470
3 1 .842792 .042201 .396198
4 1 .234855 .006591 .547244
5 1 .008106 .593330 .606897
6 1 .556716 .447855 .983361
7 1 .467174 .463633 .010679
ITEM: TIMESTEP
400
ITEM: NUMBER OF ATOMS
7
ITEM: BOX BOUNDS ss ss ss
-2.9819 3.2216
-2.6813 3.3996
-1.9732 2.0145
ITEM: ATOMS id type xs ys zs
1 1 .477972 .991447 .528781
2 1 .992122 .654376 .404187
3 1 .839723 .044643 .400286
4 1 .230428 .008150 .556988
5 1 .006455 .593015 .611195
6 1 .557598 .449859 .987327
7 1 .465544 .466447 .013825
ITEM: TIMESTEP
1
ITEM: NUMBER OF ATOMS
7
ITEM: BOX BOUNDS ss ss ss
-2.9776 3.2246
-2.6748 3.3922
-1.9755 2.0075
ITEM: ATOMS id type xs ys zs
1 1 .477582 .995146 .519175
2 1 .988317 .652263 .409831
3 1 .845680 .034872 .392984
4 1 .235964 .010125 .556162
5 1 .004929 .596969 .604039
6 1 .557876 .449161 .988102
7 1 .466083 .462234 .008910
ITEM: TIMESTEP
50
ITEM: NUMBER OF ATOMS
7
ITEM: BOX BOUNDS ss ss ss
-2.9776 3.2246
-2.6748 3.3924
-1.9755 2.0075
ITEM: ATOMS id type xs ys zs
1 1 .476520 .993869 .517887
2 1 .988904 .651073 .408653
3 1 .844156 .037414 .394501
4 1 .235234 .010832 .555011
5 1 .003570 .597640 .604454
6 1 .555639 .449949 .984720
7 1 .464883 .462861 .011328
ITEM: TIMESTEP
100
ITEM: NUMBER OF ATOMS
7
ITEM: BOX BOUNDS ss ss ss
-2.9807 3.2242
-2.6748 3.3925
-1.9702 2.0075
ITEM: ATOMS id type xs ys zs
1 1 .479273 .992576 .519364
2 1 .989445 .652398 .407838
3 1 .844112 .038841 .391556
4 1 .236122 .009793 .552747
5 1 .005747 .594510 .603154
6 1 .556401 .448610 .986451
7 1 .465895 .461694 .007911
ITEM: TIMESTEP
150
ITEM: NUMBER OF ATOMS
7
ITEM: BOX BOUNDS ss ss ss
-2.9969 3.2242
-2.6748 3.3922
-1.9732 2.0031
ITEM: ATOMS id type xs ys zs
1 1 .480236 .990359 .518970
2 1 .992669 .649093 .407675
3 1 .841380 .036931 .395717
4 1 .235499 .010508 .553778
5 1 .009543 .595399 .604924
6 1 .555677 .450267 .990894
7 1 .470796 .460617 .011237
ITEM: TIMESTEP
200
ITEM: NUMBER OF ATOMS
7
ITEM: BOX BOUNDS ss ss ss
-2.9894 3.2169
-2.6748 3.3995
-1.9740 2.0031
ITEM: ATOMS id type xs ys zs
1 1 .479240 .989369 .519465
2 1 .994178 .649518 .408596
3 1 .843829 .037655 .399373
4 1 .234030 .009565 .552676
5 1 .008404 .595339 .604827
6 1 .555181 .448994 .989468
7 1 .469702 .460680 .011264
ITEM: TIMESTEP
250
ITEM: NUMBER OF ATOMS
7
ITEM: BOX BOUNDS ss ss ss
-2.9878 3.2169
-2.6683 3.3896
-1.9759 2.0017
ITEM: ATOMS id type xs ys zs
1 1 .477329 .988627 .520205
2 1 .992816 .653119 .408567
3 1 .843046 .038154 .404087
4 1 .233663 .007154 .550820
5 1 .006890 .594429 .606546
6 1 .553215 .449288 .987287
7 1 .469410 .460252 .015280
ITEM: TIMESTEP
300
ITEM: NUMBER OF ATOMS
7
ITEM: BOX BOUNDS ss ss ss
-2.9901 3.2157
-2.6606 3.3966
-1.9742 2.0063
ITEM: ATOMS id type xs ys zs
1 1 .479887 .989205 .519445
2 1 .994625 .647060 .405588
3 1 .841417 .037741 .398103
4 1 .235143 .004675 .552577
5 1 .008672 .593397 .609384
6 1 .555292 .448313 .985615
7 1 .469065 .460342 .013806
ITEM: TIMESTEP
350
ITEM: NUMBER OF ATOMS
7
ITEM: BOX BOUNDS ss ss ss
-2.9863 3.2248
-2.6609 3.3864
-1.9742 2.0138
ITEM: ATOMS id type xs ys zs
1 1 .479586 .991732 .518490
2 1 .994153 .649036 .405488
3 1 .840657 .037737 .398071
4 1 .234041 .005192 .551900
5 1 .007989 .595537 .608140
6 1 .554155 .450190 .984778
7 1 .467670 .461589 .012303
ITEM: TIMESTEP
400
ITEM: NUMBER OF ATOMS
7
ITEM: BOX BOUNDS ss ss ss
-2.9846 3.2319
-2.6638 3.3821
-1.9718 2.0126
ITEM: ATOMS id type xs ys zs
1 1 .477720 .993519 .521675
2 1 .991296 .650114 .410676
3 1 .838581 .037486 .402747
4 1 .233235 .005588 .550574
5 1 .007889 .590468 .600799
6 1 .551363 .449386 .985194
7 1 .469376 .463355 .013284
ITEM: TIMESTEP
1
ITEM: NUMBER OF ATOMS
7
ITEM: BOX BOUNDS ss ss ss
-2.9957 3.2257
-2.6695 3.3705
-1.9767 2.0048
ITEM: ATOMS id type xs ys zs
1 1 .478991 .998739 .519692
2 1 .988165 .654369 .410284
3 1 .845975 .034118 .393436
4 1 .238120 .009313 .556708
5 1 .007781 .598745 .604586
6 1 .559041 .450322 .988767
7 1 .467537 .463440 .009176
ITEM: TIMESTEP
50
ITEM: NUMBER OF ATOMS
7
ITEM: BOX BOUNDS ss ss ss
-2.9957 3.2251
-2.6695 3.3877
-1.9767 2.0048
ITEM: ATOMS id type xs ys zs
1 1 .479476 .995678 .521045
2 1 .988858 .653420 .408937
3 1 .844336 .035998 .394002
4 1 .238899 .008131 .558733
5 1 .008066 .595832 .599747
6 1 .557636 .449303 .986696
7 1 .468264 .462448 .008959
ITEM: TIMESTEP
100
ITEM: NUMBER OF ATOMS
7
ITEM: BOX BOUNDS ss ss ss
-2.9833 3.2251
-2.6695 3.4006
-1.9767 2.0048
ITEM: ATOMS id type xs ys zs
1 1 .475471 .991442 .522058
2 1 .990944 .651104 .413704
3 1 .844591 .038512 .393920
4 1 .235149 .008609 .553702
5 1 .006120 .593768 .603491
6 1 .557364 .446679 .986243
7 1 .466617 .461301 .012476
ITEM: TIMESTEP
150
ITEM: NUMBER OF ATOMS
7
ITEM: BOX BOUNDS ss ss ss
-2.9806 3.2251
-2.6695 3.4003
-1.9767 2.0048
ITEM: ATOMS id type xs ys zs
1 1 .475330 .990926 .519104
2 1 .990846 .650446 .411427
3 1 .844948 .038851 .396418
4 1 .235770 .006396 .552416
5 1 .006544 .593091 .604758
6 1 .554797 .447324 .985336
7 1 .466450 .459760 .014078
ITEM: TIMESTEP
200
ITEM: NUMBER OF ATOMS
7
ITEM: BOX BOUNDS ss ss ss
-2.9806 3.2251
-2.6695 3.4009
-1.9767 2.0048
ITEM: ATOMS id type xs ys zs
1 1 .475416 .990537 .520343
2 1 .992342 .651518 .411503
3 1 .844060 .038153 .397224
4 1 .234486 .004352 .552214
5 1 .007042 .592488 .607387
6 1 .554247 .447912 .983668
7 1 .466669 .460805 .014144
ITEM: TIMESTEP
250
ITEM: NUMBER OF ATOMS
7
ITEM: BOX BOUNDS ss ss ss
-2.9806 3.2251
-2.6695 3.4024
-1.9767 2.0048
ITEM: ATOMS id type xs ys zs
1 1 .476774 .989685 .523038
2 1 .991766 .651407 .409544
3 1 .843200 .038637 .398100
4 1 .234414 .004333 .554407
5 1 .006569 .591030 .604380
6 1 .554563 .447441 .983624
7 1 .467273 .460661 .013958
ITEM: TIMESTEP
300
ITEM: NUMBER OF ATOMS
7
ITEM: BOX BOUNDS ss ss ss
-2.9865 3.2251
-2.6768 3.3947
-1.9767 2.0004
ITEM: ATOMS id type xs ys zs
1 1 .476661 .991441 .517993
2 1 .992857 .653145 .408791
3 1 .843774 .042024 .398893
4 1 .232848 .003712 .552786
5 1 .007436 .591491 .603391
6 1 .554543 .448954 .983218
7 1 .467117 .460394 .015006
ITEM: TIMESTEP
350
ITEM: NUMBER OF ATOMS
7
ITEM: BOX BOUNDS ss ss ss
-2.9830 3.2251
-2.6823 3.3870
-1.9767 1.9932
ITEM: ATOMS id type xs ys zs
1 1 .475597 .991444 .519458
2 1 .992938 .654301 .408743
3 1 .843889 .042473 .401744
4 1 .233654 .002847 .553911
5 1 .006693 .590359 .606952
6 1 .553253 .448599 .987314
7 1 .466901 .461627 .014074
ITEM: TIMESTEP
400
ITEM: NUMBER OF ATOMS
7
ITEM: BOX BOUNDS ss ss ss
-2.9861 3.2289
-2.6938 3.3923
-1.9756 2.0013
ITEM: ATOMS id type xs ys zs
1 1 .475643 .990454 .518169
2 1 .992512 .654520 .409427
3 1 .842608 .044894 .401859
4 1 .233001 .005924 .551656
5 1 .007543 .591605 .607095
6 1 .552567 .450156 .983590
7 1 .467844 .462388 .012534
ITEM: TIMESTEP
1
ITEM: NUMBER OF ATOMS
7
ITEM: BOX BOUNDS ss ss ss
-2.9812 3.2227
-2.6909 3.3861
-1.9669 1.9892
ITEM: ATOMS id type xs ys zs
1 1 .478036 .996163 .520583
2 1 .988604 .653904 .410424
3 1 .846021 .037471 .393468
4 1 .236449 .012762 .557788
5 1 .005476 .598634 .605981
6 1 .558292 .451110 .992606
7 1 .466526 .464082 .006784
ITEM: TIMESTEP
50
ITEM: NUMBER OF ATOMS
7
ITEM: BOX BOUNDS ss ss ss
-2.9812 3.2227
-2.6909 3.3901
-1.9764 1.9897
ITEM: ATOMS id type xs ys zs
1 1 .477645 .995103 .524069
2 1 .989882 .654205 .410260
3 1 .844596 .038721 .396337
4 1 .235552 .013189 .556370
5 1 .007580 .598237 .606249
6 1 .558134 .452165 .992411
7 1 .467852 .464607 .008156
ITEM: TIMESTEP
100
ITEM: NUMBER OF ATOMS
7
ITEM: BOX BOUNDS ss ss ss
-2.9812 3.2227
-2.6909 3.3947
-1.9774 1.9915
ITEM: ATOMS id type xs ys zs
1 1 .477330 .995393 .523730
2 1 .991584 .651893 .407697
3 1 .844184 .039849 .395808
4 1 .234516 .013817 .556712
5 1 .008049 .596856 .606759
6 1 .557257 .452930 .991008
7 1 .468010 .464207 .009230
ITEM: TIMESTEP
150
ITEM: NUMBER OF ATOMS
7
ITEM: BOX BOUNDS ss ss ss
-2.9883 3.2227
-2.6909 3.3994
-1.9742 2.0086
ITEM: ATOMS id type xs ys zs
1 1 .476897 .996559 .521427
2 1 .992866 .652736 .403333
3 1 .843606 .041166 .395436
4 1 .237096 .014626 .555813
5 1 .008676 .596626 .602939
6 1 .558712 .453556 .984555
7 1 .468188 .464199 .012375
ITEM: TIMESTEP
200
ITEM: NUMBER OF ATOMS
7
ITEM: BOX BOUNDS ss ss ss
-2.9816 3.2227
-2.6909 3.4030
-1.9809 2.0082
ITEM: ATOMS id type xs ys zs
1 1 .475564 .990754 .526624
2 1 .992944 .651939 .406692
3 1 .840852 .043628 .396312
4 1 .233765 .013585 .557649
5 1 .007603 .593551 .602125
6 1 .559142 .453295 .985719
7 1 .467916 .463383 .012546
ITEM: TIMESTEP
250
ITEM: NUMBER OF ATOMS
7
ITEM: BOX BOUNDS ss ss ss
-2.9780 3.2227
-2.6909 3.4030
-1.9786 2.0029
ITEM: ATOMS id type xs ys zs
1 1 .474324 .993377 .525816
2 1 .994588 .653342 .405108
3 1 .840121 .044390 .397599
4 1 .233459 .012980 .555128
5 1 .007404 .592666 .605497
6 1 .556753 .454273 .986757
7 1 .466374 .463893 .011669
ITEM: TIMESTEP
300
ITEM: NUMBER OF ATOMS
7
ITEM: BOX BOUNDS ss ss ss
-2.9788 3.2227
-2.6909 3.4027
-1.9733 2.0028
ITEM: ATOMS id type xs ys zs
1 1 .476952 .992962 .525217
2 1 .992819 .652905 .402970
3 1 .843147 .043692 .396275
4 1 .235520 .011679 .553650
5 1 .006750 .593733 .600521
6 1 .556748 .452628 .982899
7 1 .468740 .466826 .011318
ITEM: TIMESTEP
350
ITEM: NUMBER OF ATOMS
7
ITEM: BOX BOUNDS ss ss ss
-2.9843 3.2347
-2.6909 3.3998
-1.9749 2.0047
ITEM: ATOMS id type xs ys zs
1 1 .480631 .995774 .519813
2 1 .991422 .653661 .400608
3 1 .841960 .045176 .393599
4 1 .234981 .011836 .552612
5 1 .009365 .595760 .602128
6 1 .555951 .454630 .979783
7 1 .467591 .467173 .014717
ITEM: TIMESTEP
400
ITEM: NUMBER OF ATOMS
7
ITEM: BOX BOUNDS ss ss ss
-2.9780 3.2231
-2.6909 3.4063
-1.9806 1.9990
ITEM: ATOMS id type xs ys zs
1 1 .480043 .993976 .522759
2 1 .994349 .652596 .404728
3 1 .843259 .046030 .397311
4 1 .234271 .011368 .551158
5 1 .009212 .596294 .602243
6 1 .553696 .454584 .981182
7 1 .469518 .467740 .014680
ITEM: TIMESTEP
1
ITEM: NUMBER OF ATOMS
7
ITEM: BOX BOUNDS ss ss ss
-2.9854 3.2227
-2.6821 3.4034
-1.9771 1.9990
ITEM: ATOMS id type xs ys zs
1 1 .478393 .993359 .520506
2 1 .988621 .651536 .410966
3 1 .846126 .035963 .394079
4 1 .236998 .011351 .557525
5 1 .006137 .596332 .605501
6 1 .558595 .449018 .990205
7 1 .466861 .462019 .009293
ITEM: TIMESTEP
50
ITEM: NUMBER OF ATOMS
7
ITEM: BOX BOUNDS ss ss ss
-2.9854 3.2227
-2.6821 3.4034
-1.9771 1.9990
ITEM: ATOMS id type xs ys zs
1 1 .478733 .993635 .521360
2 1 .989083 .652180 .409754
3 1 .845169 .038052 .396084
4 1 .235949 .011464 .557076
5 1 .006786 .595545 .606142
6 1 .558176 .449184 .989473
7 1 .467683 .461366 .009735
ITEM: TIMESTEP
100
ITEM: NUMBER OF ATOMS
7
ITEM: BOX BOUNDS ss ss ss
-2.9854 3.2227
-2.6821 3.4034
-1.9771 1.9994
ITEM: ATOMS id type xs ys zs
1 1 .475374 .990940 .525687
2 1 .991778 .654553 .406200
3 1 .845615 .037100 .396943
4 1 .237108 .012660 .561246
5 1 .007846 .594840 .605669
6 1 .559688 .449394 .988507
7 1 .469105 .463197 .012017
ITEM: TIMESTEP
150
ITEM: NUMBER OF ATOMS
7
ITEM: BOX BOUNDS ss ss ss
-2.9925 3.2227
-2.6821 3.4034
-1.9887 2.0002
ITEM: ATOMS id type xs ys zs
1 1 .476376 .991049 .525951
2 1 .991933 .654412 .408848
3 1 .846842 .038479 .400298
4 1 .237644 .013031 .564227
5 1 .008437 .594654 .608344
6 1 .560141 .450281 .985549
7 1 .469170 .463972 .015562
ITEM: TIMESTEP
200
ITEM: NUMBER OF ATOMS
7
ITEM: BOX BOUNDS ss ss ss
-2.9869 3.2227
-2.6821 3.4083
-1.9865 2.0087
ITEM: ATOMS id type xs ys zs
1 1 .476721 .990596 .525858
2 1 .990911 .652118 .405821
3 1 .845923 .038017 .402398
4 1 .238758 .010883 .560835
5 1 .009499 .594955 .605634
6 1 .559156 .450932 .986401
7 1 .469809 .463498 .015966
ITEM: TIMESTEP
250
ITEM: NUMBER OF ATOMS
7
ITEM: BOX BOUNDS ss ss ss
-2.9854 3.2227
-2.6821 3.4094
-1.9847 2.0116
ITEM: ATOMS id type xs ys zs
1 1 .477393 .990552 .525976
2 1 .991049 .651365 .407679
3 1 .845208 .039517 .398948
4 1 .236647 .011280 .556908
5 1 .009388 .594430 .605172
6 1 .558278 .449993 .984091
7 1 .469301 .462969 .017835
ITEM: TIMESTEP
300
ITEM: NUMBER OF ATOMS
7
ITEM: BOX BOUNDS ss ss ss
-2.9865 3.2227
-2.6821 3.4040
-1.9691 2.0015
ITEM: ATOMS id type xs ys zs
1 1 .479886 .992501 .524118
2 1 .993687 .651658 .410819
3 1 .843728 .041941 .393142
4 1 .235075 .011445 .558169
5 1 .008526 .596202 .602988
6 1 .555666 .452191 .984175
7 1 .471951 .464858 .012666
ITEM: TIMESTEP
350
ITEM: NUMBER OF ATOMS
7
ITEM: BOX BOUNDS ss ss ss
-2.9916 3.2227
-2.6821 3.4167
-1.9622 2.0036
ITEM: ATOMS id type xs ys zs
1 1 .476019 .989774 .530620
2 1 .990291 .654799 .406011
3 1 .844242 .043484 .397758
4 1 .237156 .010391 .557375
5 1 .010505 .592173 .604102
6 1 .558165 .446423 .992377
7 1 .470879 .462624 .014886
ITEM: TIMESTEP
400
ITEM: NUMBER OF ATOMS
7
ITEM: BOX BOUNDS ss ss ss
-2.9896 3.2315
-2.6821 3.4130
-1.9694 2.0059
ITEM: ATOMS id type xs ys zs
1 1 .476213 .990208 .530974
2 1 .989541 .655594 .404656
3 1 .843774 .042152 .399110
4 1 .234939 .009790 .556297
5 1 .009592 .591296 .602561
6 1 .557295 .445499 .989855
7 1 .469934 .462866 .014668
ITEM: TIMESTEP
1
ITEM: NUMBER OF ATOMS
7
ITEM: BOX BOUNDS ss ss ss
-2.9829 3.2357
-2.6783 3.4196
-1.9594 2.0014
ITEM: ATOMS id type xs ys zs
1 1 .477178 .990725 .518065
2 1 .986533 .649566 .408082
3 1 .844296 .035262 .391140
4 1 .236185 .010702 .555210
5 1 .005728 .594511 .603388
6 1 .557265 .447487 .989558
7 1 .465684 .460474 .004847
ITEM: TIMESTEP
50
ITEM: NUMBER OF ATOMS
7
ITEM: BOX BOUNDS ss ss ss
-2.9829 3.2357
-2.6783 3.4196
-1.9686 2.0003
ITEM: ATOMS id type xs ys zs
1 1 .477130 .988520 .518720
2 1 .987502 .650749 .407776
3 1 .842595 .036634 .394626
4 1 .235086 .010523 .555061
5 1 .006194 .596446 .605742
6 1 .556534 .448456 .988022
7 1 .466485 .460168 .009979
ITEM: TIMESTEP
100
ITEM: NUMBER OF ATOMS
7
ITEM: BOX BOUNDS ss ss ss
-2.9835 3.2325
-2.6783 3.4196
-1.9732 2.0007
ITEM: ATOMS id type xs ys zs
1 1 .477238 .987998 .523175
2 1 .989948 .649683 .405522
3 1 .842208 .036043 .392414
4 1 .234354 .010250 .553384
5 1 .006860 .594765 .609541
6 1 .557352 .448893 .986841
7 1 .467989 .460166 .009288
ITEM: TIMESTEP
150
ITEM: NUMBER OF ATOMS
7
ITEM: BOX BOUNDS ss ss ss
-2.9881 3.2289
-2.6783 3.4196
-1.9728 2.0047
ITEM: ATOMS id type xs ys zs
1 1 .477694 .986701 .517241
2 1 .989960 .649305 .406899
3 1 .841137 .037209 .392332
4 1 .233822 .012076 .552817
5 1 .007673 .594837 .610517
6 1 .556392 .448055 .986362
7 1 .466565 .460053 .009878
ITEM: TIMESTEP
200
ITEM: NUMBER OF ATOMS
7
ITEM: BOX BOUNDS ss ss ss
-2.9829 3.2289
-2.6783 3.4196
-1.9760 2.0003
ITEM: ATOMS id type xs ys zs
1 1 .477521 .985686 .519055
2 1 .991769 .649761 .407217
3 1 .840326 .038344 .391626
4 1 .233229 .009856 .551171
5 1 .005375 .594669 .610771
6 1 .556188 .447887 .982929
7 1 .468210 .458887 .012324
ITEM: TIMESTEP
250
ITEM: NUMBER OF ATOMS
7
ITEM: BOX BOUNDS ss ss ss
-2.9982 3.2289
-2.6771 3.4196
-1.9802 2.0003
ITEM: ATOMS id type xs ys zs
1 1 .476803 .985283 .516661
2 1 .992214 .647975 .408326
3 1 .840812 .038594 .394764
4 1 .234197 .009518 .551488
5 1 .006968 .592723 .608785
6 1 .555876 .446147 .982279
7 1 .470140 .459761 .013498
ITEM: TIMESTEP
300
ITEM: NUMBER OF ATOMS
7
ITEM: BOX BOUNDS ss ss ss
-2.9922 3.2267
-2.6758 3.4054
-1.9796 2.0001
ITEM: ATOMS id type xs ys zs
1 1 .478768 .988867 .522510
2 1 .990490 .650218 .407117
3 1 .842695 .039634 .401053
4 1 .233119 .010348 .557151
5 1 .009072 .596071 .608660
6 1 .557287 .450406 .987579
7 1 .467945 .462671 .013191
ITEM: TIMESTEP
350
ITEM: NUMBER OF ATOMS
7
ITEM: BOX BOUNDS ss ss ss
-2.9937 3.2267
-2.6775 3.4054
-1.9800 2.0034
ITEM: ATOMS id type xs ys zs
1 1 .477802 .988055 .518079
2 1 .991360 .650561 .404475
3 1 .840253 .037898 .399627
4 1 .232276 .010162 .554631
5 1 .009592 .593235 .605034
6 1 .555686 .448751 .985002
7 1 .470216 .459511 .012366
ITEM: TIMESTEP
400
ITEM: NUMBER OF ATOMS
7
ITEM: BOX BOUNDS ss ss ss
-2.9959 3.2267
-2.6817 3.3949
-1.9740 2.0057
ITEM: ATOMS id type xs ys zs
1 1 .480334 .990975 .524636
2 1 .993539 .656303 .406356
3 1 .842084 .040979 .398593
4 1 .237473 .006290 .556655
5 1 .009537 .591462 .597897
6 1 .554216 .449229 .985291
7 1 .472273 .463521 .011649
ITEM: TIMESTEP
1
ITEM: NUMBER OF ATOMS
7
ITEM: BOX BOUNDS ss ss ss
-2.9944 3.2196
-2.6802 3.3945
-1.9703 2.0006
ITEM: ATOMS id type xs ys zs
1 1 .479374 .994797 .519463
2 1 .989134 .652373 .409805
3 1 .846780 .035697 .392867
4 1 .238209 .011035 .556580
5 1 .007578 .597090 .604574
6 1 .559516 .449512 .989789
7 1 .467892 .462536 .007574
ITEM: TIMESTEP
50
ITEM: NUMBER OF ATOMS
7
ITEM: BOX BOUNDS ss ss ss
-2.9904 3.2196
-2.6802 3.3945
-1.9703 2.0006
ITEM: ATOMS id type xs ys zs
1 1 .477860 .994719 .520099
2 1 .989441 .653009 .408388
3 1 .845289 .036768 .393975
4 1 .236824 .011138 .556521
5 1 .007527 .596787 .605259
6 1 .558829 .449649 .989965
7 1 .466877 .461770 .009236
ITEM: TIMESTEP
100
ITEM: NUMBER OF ATOMS
7
ITEM: BOX BOUNDS ss ss ss
-2.9904 3.2196
-2.6802 3.4035
-1.9783 2.0006
ITEM: ATOMS id type xs ys zs
1 1 .478731 .993858 .517948
2 1 .991414 .652020 .409843
3 1 .846456 .039024 .395221
4 1 .238187 .011185 .554599
5 1 .009257 .595737 .605251
6 1 .559868 .448545 .989332
7 1 .467325 .461009 .010198
ITEM: TIMESTEP
150
ITEM: NUMBER OF ATOMS
7
ITEM: BOX BOUNDS ss ss ss
-2.9900 3.2196
-2.6802 3.3958
-1.9814 2.0103
ITEM: ATOMS id type xs ys zs
1 1 .477481 .992566 .522936
2 1 .990314 .650111 .411565
3 1 .844378 .038890 .398095
4 1 .238807 .012368 .559950
5 1 .009723 .595339 .605186
6 1 .557738 .449312 .987756
7 1 .466418 .462544 .013287
ITEM: TIMESTEP
200
ITEM: NUMBER OF ATOMS
7
ITEM: BOX BOUNDS ss ss ss
-2.9883 3.2196
-2.6802 3.3945
-1.9923 2.0212
ITEM: ATOMS id type xs ys zs
1 1 .477691 .992682 .518254
2 1 .989551 .651332 .410882
3 1 .843748 .039675 .391828
4 1 .239511 .010298 .563912
5 1 .007373 .592318 .606191
6 1 .556817 .452567 .987080
7 1 .466400 .461820 .016840
ITEM: TIMESTEP
250
ITEM: NUMBER OF ATOMS
7
ITEM: BOX BOUNDS ss ss ss
-2.9883 3.2196
-2.6802 3.3957
-1.9825 2.0237
ITEM: ATOMS id type xs ys zs
1 1 .476516 .990207 .516894
2 1 .989374 .651832 .408676
3 1 .846965 .040579 .393710
4 1 .238203 .009316 .559862
5 1 .009155 .592440 .602412
6 1 .554191 .450116 .984906
7 1 .465611 .460192 .014458
ITEM: TIMESTEP
300
ITEM: NUMBER OF ATOMS
7
ITEM: BOX BOUNDS ss ss ss
-2.9922 3.2196
-2.6802 3.4057
-1.9762 2.0309
ITEM: ATOMS id type xs ys zs
1 1 .476787 .989518 .520223
2 1 .989850 .649949 .405449
3 1 .844150 .041016 .392081
4 1 .239827 .008405 .562453
5 1 .008455 .591142 .603082
6 1 .557080 .451123 .984758
7 1 .466168 .460665 .015355
ITEM: TIMESTEP
350
ITEM: NUMBER OF ATOMS
7
ITEM: BOX BOUNDS ss ss ss
-2.9867 3.2196
-2.6802 3.3945
-1.9687 2.0404
ITEM: ATOMS id type xs ys zs
1 1 .475551 .991454 .520466
2 1 .991922 .653081 .406523
3 1 .843765 .041289 .389393
4 1 .240691 .006815 .562785
5 1 .006089 .591315 .597876
6 1 .555048 .452980 .980576
7 1 .465550 .462204 .014630
ITEM: TIMESTEP
400
ITEM: NUMBER OF ATOMS
7
ITEM: BOX BOUNDS ss ss ss
-2.9867 3.2196
-2.6783 3.3953
-1.9687 2.0399
ITEM: ATOMS id type xs ys zs
1 1 .476920 .991333 .524238
2 1 .992693 .651727 .400029
3 1 .842933 .042819 .390088
4 1 .240772 .004709 .563224
5 1 .007663 .590952 .595608
6 1 .555750 .451665 .982674
7 1 .466170 .462582 .012921
ITEM: TIMESTEP
1
ITEM: NUMBER OF ATOMS
7
ITEM: BOX BOUNDS ss ss ss
-2.9896 3.2196
-2.6783 3.3848
-1.9621 2.0282
ITEM: ATOMS id type xs ys zs
1 1 .478966 .996398 .514903
2 1 .989126 .653298 .405731
3 1 .846641 .035449 .388898
4 1 .237615 .010738 .551799
5 1 .006821 .597912 .599596
6 1 .559162 .450051 .982909
7 1 .467478 .463102 .005482
ITEM: TIMESTEP
50
ITEM: NUMBER OF ATOMS
7
ITEM: BOX BOUNDS ss ss ss
-2.9896 3.2196
-2.6783 3.3946
-1.9715 2.0282
ITEM: ATOMS id type xs ys zs
1 1 .478646 .993860 .516945
2 1 .990873 .652260 .404848
3 1 .847081 .037313 .391876
4 1 .235836 .009888 .554172
5 1 .007990 .596329 .598429
6 1 .559071 .449838 .982049
7 1 .467119 .460922 .007097
ITEM: TIMESTEP
100
ITEM: NUMBER OF ATOMS
7
ITEM: BOX BOUNDS ss ss ss
-2.9944 3.2196
-2.6783 3.3974
-1.9800 2.0282
ITEM: ATOMS id type xs ys zs
1 1 .477331 .995563 .518017
2 1 .989939 .651737 .405001
3 1 .845846 .037799 .392791
4 1 .238012 .011528 .551928
5 1 .009080 .597483 .598930
6 1 .557942 .449190 .982170
7 1 .468923 .464769 .012754
ITEM: TIMESTEP
150
ITEM: NUMBER OF ATOMS
7
ITEM: BOX BOUNDS ss ss ss
-2.9896 3.2196
-2.6783 3.4144
-1.9836 2.0282
ITEM: ATOMS id type xs ys zs
1 1 .477490 .992764 .519898
2 1 .989258 .650910 .404690
3 1 .848049 .039100 .395507
4 1 .239249 .010556 .555245
5 1 .008757 .595021 .602416
6 1 .556415 .448924 .981685
7 1 .469854 .459149 .013801
ITEM: TIMESTEP
200
ITEM: NUMBER OF ATOMS
7
ITEM: BOX BOUNDS ss ss ss
-2.9896 3.2196
-2.6783 3.4056
-1.9743 2.0282
ITEM: ATOMS id type xs ys zs
1 1 .477925 .993099 .519441
2 1 .989482 .651064 .402891
3 1 .847807 .038865 .396668
4 1 .238979 .009090 .555636
5 1 .010424 .595421 .598024
6 1 .556014 .448675 .982040
7 1 .472542 .459992 .011893
ITEM: TIMESTEP
250
ITEM: NUMBER OF ATOMS
7
ITEM: BOX BOUNDS ss ss ss
-2.9896 3.2196
-2.6783 3.4057
-1.9883 2.0282
ITEM: ATOMS id type xs ys zs
1 1 .477647 .991581 .519710
2 1 .989093 .649523 .402853
3 1 .843172 .036938 .396955
4 1 .233892 .010898 .551098
5 1 .008029 .598947 .594174
6 1 .556058 .448516 .980306
7 1 .469651 .466961 .014605
ITEM: TIMESTEP
300
ITEM: NUMBER OF ATOMS
7
ITEM: BOX BOUNDS ss ss ss
-2.9887 3.2196
-2.6783 3.4131
-1.9822 2.0282
ITEM: ATOMS id type xs ys zs
1 1 .478378 .989380 .520066
2 1 .990661 .650483 .404635
3 1 .844316 .039118 .395827
4 1 .240672 .009140 .557400
5 1 .007684 .592312 .599123
6 1 .560461 .449507 .985103
7 1 .472056 .460111 .017061
ITEM: TIMESTEP
350
ITEM: NUMBER OF ATOMS
7
ITEM: BOX BOUNDS ss ss ss
-2.9911 3.2196
-2.6758 3.4177
-1.9827 2.0374
ITEM: ATOMS id type xs ys zs
1 1 .477329 .990150 .518685
2 1 .990435 .648860 .402123
3 1 .844728 .036932 .396211
4 1 .239769 .009817 .555300
5 1 .009054 .591653 .595602
6 1 .559252 .449610 .982089
7 1 .473374 .459126 .017316
ITEM: TIMESTEP
400
ITEM: NUMBER OF ATOMS
7
ITEM: BOX BOUNDS ss ss ss
-2.9945 3.2196
-2.6726 3.4217
-1.9798 2.0281
ITEM: ATOMS id type xs ys zs
1 1 .477668 .985991 .519021
2 1 .991978 .647024 .405013
3 1 .847690 .037420 .392634
4 1 .238429 .009144 .554798
5 1 .010416 .591062 .599339
6 1 .559822 .448724 .982012
7 1 .471590 .458500 .016097
ITEM: TIMESTEP
1
ITEM: NUMBER OF ATOMS
7
ITEM: BOX BOUNDS ss ss ss
-2.9941 3.2017
-2.6632 3.4098
-1.9774 2.0184
ITEM: ATOMS id type xs ys zs
1 1 .480744 .992268 .518020
2 1 .992022 .649765 .409006
3 1 .849217 .032905 .392201
4 1 .238881 .008207 .554867
5 1 .007576 .594453 .602601
6 1 .561097 .446834 .985388
7 1 .469218 .459844 .009328
ITEM: TIMESTEP
50
ITEM: NUMBER OF ATOMS
7
ITEM: BOX BOUNDS ss ss ss
-2.9905 3.1939
-2.6632 3.4098
-1.9774 2.0184
ITEM: ATOMS id type xs ys zs
1 1 .481021 .991490 .516715
2 1 .993801 .650341 .407304
3 1 .850345 .034288 .392761
4 1 .238607 .007835 .554698
5 1 .008508 .594473 .601300
6 1 .561192 .446301 .984303
7 1 .469412 .460184 .008457
ITEM: TIMESTEP
100
ITEM: NUMBER OF ATOMS
7
ITEM: BOX BOUNDS ss ss ss
-2.9880 3.1939
-2.6605 3.4071
-1.9774 2.0184
ITEM: ATOMS id type xs ys zs
1 1 .481912 .990722 .519490
2 1 .994948 .649521 .408543
3 1 .847638 .034090 .393750
4 1 .238322 .008054 .559605
5 1 .009654 .596712 .603205
6 1 .561400 .447300 .984268
7 1 .468633 .458111 .009116
ITEM: TIMESTEP
150
ITEM: NUMBER OF ATOMS
7
ITEM: BOX BOUNDS ss ss ss
-2.9880 3.1900
-2.6605 3.4055
-1.9799 2.0171
ITEM: ATOMS id type xs ys zs
1 1 .482254 .993367 .516310
2 1 .997944 .648758 .405369
3 1 .849521 .033591 .391934
4 1 .239408 .007715 .554876
5 1 .007672 .592542 .601162
6 1 .561791 .449061 .986773
7 1 .471584 .459043 .013299
ITEM: TIMESTEP
200
ITEM: NUMBER OF ATOMS
7
ITEM: BOX BOUNDS ss ss ss
-2.9880 3.1972
-2.6605 3.4055
-1.9823 2.0171
ITEM: ATOMS id type xs ys zs
1 1 .481288 .991953 .516800
2 1 .998148 .649867 .405549
3 1 .848286 .034357 .389326
4 1 .239485 .006937 .555047
5 1 .009916 .592287 .600156
6 1 .561581 .450024 .988690
7 1 .471676 .459350 .015342
ITEM: TIMESTEP
250
ITEM: NUMBER OF ATOMS
7
ITEM: BOX BOUNDS ss ss ss
-2.9880 3.2068
-2.6599 3.4064
-1.9754 2.0211
ITEM: ATOMS id type xs ys zs
1 1 .480005 .990695 .515075
2 1 .995867 .648670 .405354
3 1 .845479 .038423 .386076
4 1 .237600 .005864 .555169
5 1 .010259 .590762 .597932
6 1 .561053 .449412 .990212
7 1 .470194 .460024 .015353
ITEM: TIMESTEP
300
ITEM: NUMBER OF ATOMS
7
ITEM: BOX BOUNDS ss ss ss
-2.9880 3.2097
-2.6589 3.4055
-1.9891 2.0189
ITEM: ATOMS id type xs ys zs
1 1 .477698 .991685 .521030
2 1 .996431 .647979 .407078
3 1 .844047 .033094 .389327
4 1 .237497 .007573 .553735
5 1 .008393 .594356 .603780
6 1 .560133 .449507 .984586
7 1 .470537 .459899 .019713
ITEM: TIMESTEP
350
ITEM: NUMBER OF ATOMS
7
ITEM: BOX BOUNDS ss ss ss
-2.9845 3.2203
-2.6720 3.4060
-1.9669 2.0259
ITEM: ATOMS id type xs ys zs
1 1 .481071 .990987 .518395