ITEM: TIMESTEP
1
ITEM: NUMBER OF ATOMS
7
ITEM: BOX BOUNDS ss ss ss
-2.9519 3.1557
-2.6165 3.3674
-1.9445 1.9644
ITEM: ATOMS id type xs ys zs
1 1 .480590 .999058 .521219
2 1 .999332 .651285 .410046
3 1 .854837 .025275 .392304
4 1 .235457 .000531 .559068
5 1 .000487 .595384 .606897
6 1 .562475 .445519 .999127
7 1 .469203 .458793 .001154
ITEM: TIMESTEP
50
ITEM: NUMBER OF ATOMS
7
ITEM: BOX BOUNDS ss ss ss
-2.9741 3.1774
-2.6389 3.3878
-1.9656 1.9874
ITEM: ATOMS id type xs ys zs
1 1 .480328 .995471 .521529
2 1 .995755 .650067 .412849
3 1 .852042 .029227 .393712
4 1 .236875 .005218 .554660
5 1 .005601 .594915 .602342
6 1 .560954 .446956 .993696
7 1 .468860 .461997 .005434
ITEM: TIMESTEP
100
ITEM: NUMBER OF ATOMS
7
ITEM: BOX BOUNDS ss ss ss
-2.9777 3.1875
-2.6458 3.3910
-1.9694 1.9995
ITEM: ATOMS id type xs ys zs
1 1 .481734 .991790 .520161
2 1 .997047 .649542 .407653
3 1 .848350 .027473 .386781
4 1 .237974 .006127 .559282
5 1 .003907 .595082 .604620
6 1 .560780 .449090 .986506
7 1 .470618 .461623 .011636
ITEM: TIMESTEP
150
ITEM: NUMBER OF ATOMS
7
ITEM: BOX BOUNDS ss ss ss
-2.9752 3.1939
-2.6634 3.3910
-1.9712 2.0006
ITEM: ATOMS id type xs ys zs
1 1 .482493 .989979 .518829
2 1 .997486 .652575 .404265
3 1 .847603 .032030 .384723
4 1 .237017 .006197 .558638
5 1 .003819 .595920 .600800
6 1 .559265 .449591 .988425
7 1 .472261 .463155 .010412
ITEM: TIMESTEP
200
ITEM: NUMBER OF ATOMS
7
ITEM: BOX BOUNDS ss ss ss
-2.9882 3.2006
-2.6651 3.3979
-1.9752 2.0000
ITEM: ATOMS id type xs ys zs
1 1 .482979 .994469 .521048
2 1 .992548 .649099 .413355
3 1 .844557 .033910 .391416
4 1 .241084 .005630 .553797
5 1 .012329 .593396 .604809
6 1 .556679 .449550 .990345
7 1 .471478 .462580 .014180
ITEM: TIMESTEP
250
ITEM: NUMBER OF ATOMS
7
ITEM: BOX BOUNDS ss ss ss
-2.9827 3.2088
-2.6693 3.3966
-1.9713 2.0046
ITEM: ATOMS id type xs ys zs
1 1 .475195 .988875 .517188
2 1 .996171 .650937 .408203
3 1 .844235 .039064 .394754
4 1 .236993 .008188 .558769
5 1 .003564 .592750 .606263
6 1 .554618 .448678 .986455
7 1 .468420 .462965 .011998
ITEM: TIMESTEP
300
ITEM: NUMBER OF ATOMS
7
ITEM: BOX BOUNDS ss ss ss
-2.9822 3.2121
-2.6752 3.4066
-1.9779 2.0079
ITEM: ATOMS id type xs ys zs
1 1 .475452 .985076 .513452
2 1 .997377 .649791 .413677
3 1 .844800 .040745 .393103
4 1 .237062 .008082 .560182
5 1 .003945 .594285 .604676
6 1 .554665 .448904 .984468
7 1 .468194 .462503 .014078
ITEM: TIMESTEP
350
ITEM: NUMBER OF ATOMS
7
ITEM: BOX BOUNDS ss ss ss
-2.9857 3.2174
-2.6732 3.3983
-1.9712 2.0078
ITEM: ATOMS id type xs ys zs
1 1 .479302 .989344 .512901
2 1 .993806 .650810 .407689
3 1 .845490 .037994 .404958
4 1 .236139 .008705 .561860
5 1 .006789 .590922 .606532
6 1 .556491 .452837 .988835
7 1 .471328 .460671 .017111
ITEM: TIMESTEP
400
ITEM: NUMBER OF ATOMS
7
ITEM: BOX BOUNDS ss ss ss
-2.9854 3.2248
-2.6833 3.4031
-1.9743 2.0144
ITEM: ATOMS id type xs ys zs
1 1 .472932 .989830 .514430
2 1 .989607 .657959 .406975
3 1 .839799 .044634 .400440
4 1 .234891 .010163 .559550
5 1 .004615 .588548 .605284
6 1 .555402 .453266 .987748
7 1 .466666 .460519 .012326
ITEM: TIMESTEP
1
ITEM: NUMBER OF ATOMS
7
ITEM: BOX BOUNDS ss ss ss
-2.9834 3.2169
-2.6709 3.3954
-1.9736 1.9996
ITEM: ATOMS id type xs ys zs
1 1 .478651 .995040 .519814
2 1 .989743 .651656 .410970
3 1 .847164 .033773 .393767
4 1 .237420 .009353 .557102
5 1 .005777 .596469 .605279
6 1 .559242 .448815 .990235
7 1 .466842 .461758 .008591
ITEM: TIMESTEP
50
ITEM: NUMBER OF ATOMS
7
ITEM: BOX BOUNDS ss ss ss
-2.9834 3.2169
-2.6709 3.3954
-1.9708 1.9996
ITEM: ATOMS id type xs ys zs
1 1 .479171 .995186 .516844
2 1 .989883 .650694 .409423
3 1 .846529 .035713 .393998
4 1 .237736 .010341 .560778
5 1 .006975 .596504 .603320
6 1 .558232 .449376 .989705
7 1 .469049 .462296 .007066
ITEM: TIMESTEP
100
ITEM: NUMBER OF ATOMS
7
ITEM: BOX BOUNDS ss ss ss
-2.9834 3.2169
-2.6709 3.3954
-1.9755 1.9997
ITEM: ATOMS id type xs ys zs
1 1 .478061 .993728 .523325
2 1 .989385 .651437 .412998
3 1 .847928 .033461 .392529
4 1 .238725 .008895 .555185
5 1 .008406 .597016 .606660
6 1 .556936 .446215 .988346
7 1 .467722 .461504 .007951
ITEM: TIMESTEP
150
ITEM: NUMBER OF ATOMS
7
ITEM: BOX BOUNDS ss ss ss
-2.9789 3.2169
-2.6709 3.3955
-1.9707 1.9996
ITEM: ATOMS id type xs ys zs
1 1 .476408 .993353 .520149
2 1 .989962 .652086 .407601
3 1 .843720 .034286 .389812
4 1 .234096 .009191 .556681
5 1 .007868 .596727 .606654
6 1 .556056 .448468 .990526
7 1 .467035 .460759 .009610
ITEM: TIMESTEP
200
ITEM: NUMBER OF ATOMS
7
ITEM: BOX BOUNDS ss ss ss
-2.9776 3.2169
-2.6709 3.3958
-1.9821 1.9996
ITEM: ATOMS id type xs ys zs
1 1 .477076 .995513 .520815
2 1 .987467 .651865 .410680
3 1 .844975 .034558 .392246
4 1 .232950 .007053 .557804
5 1 .007297 .599692 .605668
6 1 .555961 .446764 .989495
7 1 .465342 .460981 .014674
ITEM: TIMESTEP
250
ITEM: NUMBER OF ATOMS
7
ITEM: BOX BOUNDS ss ss ss
-2.9776 3.2169
-2.6738 3.4007
-1.9704 2.0017
ITEM: ATOMS id type xs ys zs
1 1 .476547 .992597 .527597
2 1 .991791 .653561 .407338
3 1 .846206 .044102 .394909
4 1 .238908 .008050 .558237
5 1 .006689 .592398 .601659
6 1 .560139 .447549 .995102
7 1 .469305 .463721 .009998
ITEM: TIMESTEP
300
ITEM: NUMBER OF ATOMS
7
ITEM: BOX BOUNDS ss ss ss
-2.9796 3.2169
-2.6707 3.3980
-1.9704 2.0079
ITEM: ATOMS id type xs ys zs
1 1 .480053 .993849 .523559
2 1 .990635 .649271 .410082
3 1 .844229 .041465 .388769
4 1 .238396 .004888 .551137
5 1 .007612 .591891 .600221
6 1 .556153 .451270 .984599
7 1 .468989 .463940 .005737
ITEM: TIMESTEP
350
ITEM: NUMBER OF ATOMS
7
ITEM: BOX BOUNDS ss ss ss
-2.9776 3.2218
-2.6725 3.3974
-1.9720 2.0215
ITEM: ATOMS id type xs ys zs
1 1 .479236 .993389 .514449
2 1 .992299 .653236 .403594
3 1 .845051 .041181 .388268
4 1 .237189 .007828 .547970
5 1 .011576 .594321 .597191
6 1 .558324 .450370 .978907
7 1 .471743 .466800 .007540
ITEM: TIMESTEP
400
ITEM: NUMBER OF ATOMS
7
ITEM: BOX BOUNDS ss ss ss
-2.9819 3.2216
-2.6813 3.3996
-1.9732 2.0145
ITEM: ATOMS id type xs ys zs
1 1 .478726 .994023 .515257
2 1 .990331 .653375 .400107
3 1 .845119 .041229 .387745
4 1 .237339 .007957 .549222
5 1 .012698 .593605 .598133
6 1 .558734 .451013 .980171
7 1 .472575 .468256 .009228
ITEM: TIMESTEP
1
ITEM: NUMBER OF ATOMS
7
ITEM: BOX BOUNDS ss ss ss
-2.9776 3.2246
-2.6748 3.3922
-1.9755 2.0075
ITEM: ATOMS id type xs ys zs
1 1 .477465 .995269 .519749
2 1 .988077 .652420 .409654
3 1 .845736 .034947 .392752
4 1 .235902 .010301 .556262
5 1 .004836 .597052 .604114
6 1 .557958 .449006 .988089
7 1 .466264 .462428 .008784
ITEM: TIMESTEP
50
ITEM: NUMBER OF ATOMS
7
ITEM: BOX BOUNDS ss ss ss
-2.9776 3.2246
-2.6748 3.3924
-1.9755 2.0075
ITEM: ATOMS id type xs ys zs
1 1 .476306 .993697 .521431
2 1 .987379 .653426 .408317
3 1 .847161 .035863 .391667
4 1 .236820 .011612 .558594
5 1 .004204 .598704 .603209
6 1 .557192 .445664 .989639
7 1 .466699 .463958 .012697
ITEM: TIMESTEP
100
ITEM: NUMBER OF ATOMS
7
ITEM: BOX BOUNDS ss ss ss
-2.9807 3.2242
-2.6748 3.3925
-1.9702 2.0075
ITEM: ATOMS id type xs ys zs
1 1 .475817 .992862 .522934
2 1 .986403 .654573 .410017
3 1 .846989 .035383 .387817
4 1 .238924 .012032 .560892
5 1 .003229 .596492 .599116
6 1 .558399 .446259 .989094
7 1 .465797 .464692 .013081
ITEM: TIMESTEP
150
ITEM: NUMBER OF ATOMS
7
ITEM: BOX BOUNDS ss ss ss
-2.9969 3.2242
-2.6748 3.3922
-1.9732 2.0031
ITEM: ATOMS id type xs ys zs
1 1 .481369 .993253 .522158
2 1 .987630 .653110 .412455
3 1 .840783 .035460 .386865
4 1 .238253 .007805 .565659
5 1 .011742 .598558 .603642
6 1 .558350 .449255 .987997
7 1 .468392 .465734 .013991
ITEM: TIMESTEP
200
ITEM: NUMBER OF ATOMS
7
ITEM: BOX BOUNDS ss ss ss
-2.9894 3.2169
-2.6748 3.3995
-1.9740 2.0031
ITEM: ATOMS id type xs ys zs
1 1 .479770 .993936 .522861
2 1 .991551 .650991 .405297
3 1 .843020 .036543 .395135
4 1 .233757 .011279 .557166
5 1 .013208 .598367 .605229
6 1 .560448 .450877 .996229
7 1 .468467 .461893 .017445
ITEM: TIMESTEP
250
ITEM: NUMBER OF ATOMS
7
ITEM: BOX BOUNDS ss ss ss
-2.9878 3.2169
-2.6683 3.3896
-1.9759 2.0017
ITEM: ATOMS id type xs ys zs
1 1 .478906 .993551 .519327
2 1 .990158 .649867 .409517
3 1 .843072 .032445 .395638
4 1 .234464 .007297 .555249
5 1 .006283 .597159 .603165
6 1 .555672 .446928 .992608
7 1 .468878 .459668 .012804
ITEM: TIMESTEP
300
ITEM: NUMBER OF ATOMS
7
ITEM: BOX BOUNDS ss ss ss
-2.9901 3.2157
-2.6606 3.3966
-1.9742 2.0063
ITEM: ATOMS id type xs ys zs
1 1 .480644 .991637 .514262
2 1 .993159 .652635 .405267
3 1 .841589 .034149 .393577
4 1 .232902 .007576 .552730
5 1 .005701 .599178 .602213
6 1 .553937 .447272 .981103
7 1 .471367 .461450 .013105
ITEM: TIMESTEP
350
ITEM: NUMBER OF ATOMS
7
ITEM: BOX BOUNDS ss ss ss
-2.9863 3.2248
-2.6609 3.3864
-1.9742 2.0138
ITEM: ATOMS id type xs ys zs
1 1 .480152 .991917 .515461
2 1 .991372 .652946 .406772
3 1 .838160 .033133 .390009
4 1 .230238 .006753 .551542
5 1 .005295 .602533 .600857
6 1 .553248 .446321 .979448
7 1 .469136 .460695 .014644
ITEM: TIMESTEP
400
ITEM: NUMBER OF ATOMS
7
ITEM: BOX BOUNDS ss ss ss
-2.9846 3.2319
-2.6638 3.3821
-1.9718 2.0126
ITEM: ATOMS id type xs ys zs
1 1 .479997 .990382 .513304
2 1 .991956 .654436 .407697
3 1 .837575 .035036 .390068
4 1 .229757 .006028 .551723
5 1 .006131 .605259 .597955
6 1 .552352 .446385 .978960
7 1 .470026 .462177 .010929
ITEM: TIMESTEP
1
ITEM: NUMBER OF ATOMS
7
ITEM: BOX BOUNDS ss ss ss
-2.9957 3.2257
-2.6695 3.3705
-1.9767 2.0048
ITEM: ATOMS id type xs ys zs
1 1 .478979 .999091 .519995
2 1 .988035 .654096 .410067
3 1 .846042 .033913 .393207
4 1 .238157 .009336 .556859
5 1 .007624 .598910 .604477
6 1 .559068 .450326 .989117
7 1 .467611 .463850 .009046
ITEM: TIMESTEP
50
ITEM: NUMBER OF ATOMS
7
ITEM: BOX BOUNDS ss ss ss
-2.9957 3.2251
-2.6695 3.3877
-1.9767 2.0048
ITEM: ATOMS id type xs ys zs
1 1 .477792 .995665 .519996
2 1 .986854 .652303 .411257
3 1 .847101 .031984 .391862
4 1 .239621 .009960 .555634
5 1 .008680 .597006 .604509
6 1 .559590 .449388 .985781
7 1 .467904 .462484 .008133
ITEM: TIMESTEP
100
ITEM: NUMBER OF ATOMS
7
ITEM: BOX BOUNDS ss ss ss
-2.9833 3.2251
-2.6695 3.4006
-1.9767 2.0048
ITEM: ATOMS id type xs ys zs
1 1 .474551 .994729 .515648
2 1 .985948 .649591 .409762
3 1 .845875 .037627 .391703
4 1 .235840 .010900 .559799
5 1 .006981 .597538 .600089
6 1 .559070 .447549 .989715
7 1 .465152 .458637 .009849
ITEM: TIMESTEP
150
ITEM: NUMBER OF ATOMS
7
ITEM: BOX BOUNDS ss ss ss
-2.9806 3.2251
-2.6695 3.4003
-1.9767 2.0048
ITEM: ATOMS id type xs ys zs
1 1 .477870 .992470 .519671
2 1 .989265 .647307 .411560
3 1 .844940 .035189 .391038
4 1 .237537 .007900 .554349
5 1 .004001 .594328 .604152
6 1 .558992 .447329 .982509
7 1 .466097 .461467 .010806
ITEM: TIMESTEP
200
ITEM: NUMBER OF ATOMS
7
ITEM: BOX BOUNDS ss ss ss
-2.9806 3.2251
-2.6695 3.4009
-1.9767 2.0048
ITEM: ATOMS id type xs ys zs
1 1 .475109 .992072 .519842
2 1 .991415 .649663 .414670
3 1 .844660 .041840 .395413
4 1 .235488 .010284 .555226
5 1 .008117 .596146 .604526
6 1 .555113 .446100 .985932
7 1 .466301 .459928 .018320
ITEM: TIMESTEP
250
ITEM: NUMBER OF ATOMS
7
ITEM: BOX BOUNDS ss ss ss
-2.9806 3.2251
-2.6695 3.4024
-1.9767 2.0048
ITEM: ATOMS id type xs ys zs
1 1 .477611 .990940 .520602
2 1 .988259 .653118 .408671
3 1 .843010 .037345 .393870
4 1 .234927 .006093 .554366
5 1 .005425 .592395 .606487
6 1 .554232 .446688 .984699
7 1 .467705 .465088 .018082
ITEM: TIMESTEP
300
ITEM: NUMBER OF ATOMS
7
ITEM: BOX BOUNDS ss ss ss
-2.9865 3.2251
-2.6768 3.3947
-1.9767 2.0004
ITEM: ATOMS id type xs ys zs
1 1 .473236 .990581 .514541
2 1 .990762 .652294 .409352
3 1 .843604 .038996 .403117
4 1 .234611 .005707 .557240
5 1 .008048 .594046 .609677
6 1 .554083 .447039 .985957
7 1 .466280 .459265 .010803
ITEM: TIMESTEP
350
ITEM: NUMBER OF ATOMS
7
ITEM: BOX BOUNDS ss ss ss
-2.9830 3.2251
-2.6823 3.3870
-1.9767 1.9932
ITEM: ATOMS id type xs ys zs
1 1 .471721 .992652 .515455
2 1 .988916 .652578 .413593
3 1 .845369 .039179 .402081
4 1 .234142 .008220 .558766
5 1 .005561 .595018 .613572
6 1 .552444 .447147 .987250
7 1 .466481 .460690 .011879
ITEM: TIMESTEP
400
ITEM: NUMBER OF ATOMS
7
ITEM: BOX BOUNDS ss ss ss
-2.9861 3.2289
-2.6938 3.3923
-1.9756 2.0013
ITEM: ATOMS id type xs ys zs
1 1 .472929 .990253 .512660
2 1 .986563 .652941 .411299
3 1 .846491 .041251 .400102
4 1 .235077 .009431 .559135
5 1 .006829 .594359 .610367
6 1 .551993 .447770 .984704
7 1 .464500 .461424 .014813
ITEM: TIMESTEP
1
ITEM: NUMBER OF ATOMS
7
ITEM: BOX BOUNDS ss ss ss
-2.9812 3.2227
-2.6909 3.3861
-1.9669 1.9892
ITEM: ATOMS id type xs ys zs
1 1 .477888 .996378 .520390
2 1 .988642 .653944 .410835
3 1 .845850 .037447 .393426
4 1 .236345 .012649 .558151
5 1 .005699 .598863 .606131
6 1 .558329 .450868 .992716
7 1 .466772 .464159 .006531
ITEM: TIMESTEP
50
ITEM: NUMBER OF ATOMS
7
ITEM: BOX BOUNDS ss ss ss
-2.9812 3.2227
-2.6909 3.3901
-1.9764 1.9897
ITEM: ATOMS id type xs ys zs
1 1 .476286 .994601 .519034
2 1 .988820 .654160 .412709
3 1 .845948 .037478 .393613
4 1 .238118 .013345 .561109
5 1 .004689 .599866 .603329
6 1 .559513 .449973 .996150
7 1 .465129 .462992 .012379
ITEM: TIMESTEP
100
ITEM: NUMBER OF ATOMS
7
ITEM: BOX BOUNDS ss ss ss
-2.9812 3.2227
-2.6909 3.3947
-1.9774 1.9915
ITEM: ATOMS id type xs ys zs
1 1 .477629 .995185 .521990
2 1 .986204 .654356 .410230
3 1 .843431 .037044 .397559
4 1 .236496 .010996 .559049
5 1 .007335 .601599 .606578
6 1 .557264 .453143 .988781
7 1 .464132 .462968 .011886
ITEM: TIMESTEP
150
ITEM: NUMBER OF ATOMS
7
ITEM: BOX BOUNDS ss ss ss
-2.9883 3.2227
-2.6909 3.3994
-1.9742 2.0086
ITEM: ATOMS id type xs ys zs
1 1 .477070 .991403 .518962
2 1 .988056 .651509 .406467
3 1 .845383 .039535 .392809
4 1 .235421 .016159 .552018
5 1 .008735 .597772 .604712
6 1 .560716 .450884 .987521
7 1 .467330 .464555 .002080
ITEM: TIMESTEP
200
ITEM: NUMBER OF ATOMS
7
ITEM: BOX BOUNDS ss ss ss
-2.9816 3.2227
-2.6909 3.4030
-1.9809 2.0082
ITEM: ATOMS id type xs ys zs
1 1 .482382 .993085 .521561
2 1 .987643 .652247 .408768
3 1 .845880 .041756 .391182
4 1 .234076 .012239 .556180
5 1 .010198 .595565 .599042
6 1 .555927 .451292 .986734
7 1 .470207 .461432 .012759
ITEM: TIMESTEP
250
ITEM: NUMBER OF ATOMS
7
ITEM: BOX BOUNDS ss ss ss
-2.9780 3.2227
-2.6909 3.4030
-1.9786 2.0029
ITEM: ATOMS id type xs ys zs
1 1 .474080 .993441 .525311
2 1 .989433 .651419 .406477
3 1 .841892 .042839 .394701
4 1 .233838 .018028 .560059
5 1 .005268 .595755 .601065
6 1 .556602 .453583 .987436
7 1 .469458 .462133 .008533
ITEM: TIMESTEP
300
ITEM: NUMBER OF ATOMS
7
ITEM: BOX BOUNDS ss ss ss
-2.9788 3.2227
-2.6909 3.4027
-1.9733 2.0028
ITEM: ATOMS id type xs ys zs
1 1 .474607 .993680 .527396
2 1 .991629 .652093 .405765
3 1 .841315 .039316 .394807
4 1 .232362 .013473 .564062
5 1 .008814 .598433 .602159
6 1 .560221 .448816 .981562
7 1 .468299 .462976 .013722
ITEM: TIMESTEP
350
ITEM: NUMBER OF ATOMS
7
ITEM: BOX BOUNDS ss ss ss
-2.9843 3.2347
-2.6909 3.3998
-1.9749 2.0047
ITEM: ATOMS id type xs ys zs
1 1 .474376 .994906 .523717
2 1 .989007 .652256 .403066
3 1 .840188 .036267 .395056
4 1 .233392 .013297 .563175
5 1 .009166 .599366 .604450
6 1 .558388 .449621 .980754
7 1 .468017 .462745 .013943
ITEM: TIMESTEP
400
ITEM: NUMBER OF ATOMS
7
ITEM: BOX BOUNDS ss ss ss
-2.9780 3.2231
-2.6909 3.4063
-1.9806 1.9990
ITEM: ATOMS id type xs ys zs
1 1 .474046 .989791 .528070
2 1 .991507 .654789 .412479
3 1 .836113 .041140 .387351
4 1 .233682 .015853 .558380
5 1 .006181 .591904 .605888
6 1 .558494 .451829 .984066
7 1 .465684 .468617 .009035
ITEM: TIMESTEP
1
ITEM: NUMBER OF ATOMS
7
ITEM: BOX BOUNDS ss ss ss
-2.9854 3.2227
-2.6821 3.4034
-1.9771 1.9990
ITEM: ATOMS id type xs ys zs
1 1 .478259 .993258 .520325
2 1 .988620 .651507 .410978
3 1 .846286 .035833 .394050
4 1 .236923 .011197 .557598
5 1 .005904 .596332 .606073
6 1 .558946 .448929 .990384
7 1 .467188 .461988 .009310
ITEM: TIMESTEP
50
ITEM: NUMBER OF ATOMS
7
ITEM: BOX BOUNDS ss ss ss
-2.9854 3.2227
-2.6821 3.4034
-1.9771 1.9990
ITEM: ATOMS id type xs ys zs
1 1 .477026 .993775 .519720
2 1 .987284 .652686 .411569
3 1 .843560 .034633 .393662
4 1 .237188 .010756 .557423
5 1 .007458 .596107 .605671
6 1 .561007 .447307 .991712
7 1 .466257 .462276 .010000
ITEM: TIMESTEP
100
ITEM: NUMBER OF ATOMS
7
ITEM: BOX BOUNDS ss ss ss
-2.9854 3.2227
-2.6821 3.4034
-1.9771 1.9994
ITEM: ATOMS id type xs ys zs
1 1 .475703 .990854 .518736
2 1 .987334 .653160 .412193
3 1 .846950 .035448 .392629
4 1 .237253 .012485 .563720
5 1 .007903 .596679 .605174
6 1 .554317 .448363 .988933
7 1 .468546 .459970 .003087
ITEM: TIMESTEP
150
ITEM: NUMBER OF ATOMS
7
ITEM: BOX BOUNDS ss ss ss
-2.9925 3.2227
-2.6821 3.4034
-1.9887 2.0002
ITEM: ATOMS id type xs ys zs
1 1 .477722 .992179 .524540
2 1 .989768 .652109 .409127
3 1 .848435 .037261 .400707
4 1 .241838 .012988 .559426
5 1 .009854 .593326 .605263
6 1 .555580 .451651 .990551
7 1 .468785 .462397 .018501
ITEM: TIMESTEP
200
ITEM: NUMBER OF ATOMS
7
ITEM: BOX BOUNDS ss ss ss
-2.9869 3.2227
-2.6821 3.4083
-1.9865 2.0087
ITEM: ATOMS id type xs ys zs
1 1 .482569 .993633 .520768
2 1 .990173 .652609 .416048
3 1 .847412 .037162 .388474
4 1 .234868 .008960 .561975
5 1 .008424 .597586 .600050
6 1 .554428 .448777 .985824
7 1 .472605 .459376 .019223
ITEM: TIMESTEP
250
ITEM: NUMBER OF ATOMS
7
ITEM: BOX BOUNDS ss ss ss
-2.9854 3.2227
-2.6821 3.4094
-1.9847 2.0116
ITEM: ATOMS id type xs ys zs
1 1 .481853 .992320 .518155
2 1 .989560 .651498 .413849
3 1 .848647 .036533 .386553
4 1 .233006 .010845 .561218
5 1 .009124 .598227 .599556
6 1 .553118 .451470 .987684
7 1 .473621 .458043 .019505
ITEM: TIMESTEP
300
ITEM: NUMBER OF ATOMS
7
ITEM: BOX BOUNDS ss ss ss
-2.9865 3.2227
-2.6821 3.4040
-1.9691 2.0015
ITEM: ATOMS id type xs ys zs
1 1 .473888 .990664 .520298
2 1 .994985 .652713 .407241
3 1 .846519 .035817 .394618
4 1 .237489 .011007 .564078
5 1 .009699 .593563 .605655
6 1 .560887 .450123 .986603
7 1 .471354 .462716 .014308
ITEM: TIMESTEP
350
ITEM: NUMBER OF ATOMS
7
ITEM: BOX BOUNDS ss ss ss
-2.9916 3.2227
-2.6821 3.4167
-1.9622 2.0036
ITEM: ATOMS id type xs ys zs
1 1 .472852 .987454 .520706
2 1 .993378 .650253 .406524
3 1 .848156 .036253 .391652
4 1 .239116 .011327 .566702
5 1 .011083 .593324 .607063
6 1 .562354 .449409 .989024
7 1 .471468 .462814 .010303
ITEM: TIMESTEP
400
ITEM: NUMBER OF ATOMS
7
ITEM: BOX BOUNDS ss ss ss
-2.9896 3.2315
-2.6821 3.4130
-1.9694 2.0059
ITEM: ATOMS id type xs ys zs
1 1 .475541 .991032 .518703
2 1 .990031 .647369 .411211
3 1 .841000 .037569 .381501
4 1 .234668 .008409 .555812
5 1 .009849 .593995 .599430
6 1 .554543 .453567 .988556
7 1 .466210 .459947 .006696
ITEM: TIMESTEP
1
ITEM: NUMBER OF ATOMS
7
ITEM: BOX BOUNDS ss ss ss
-2.9829 3.2357
-2.6783 3.4196
-1.9594 2.0014
ITEM: ATOMS id type xs ys zs
1 1 .477285 .990577 .517992
2 1 .986672 .649858 .408044
3 1 .844270 .035185 .391053
4 1 .236277 .010953 .554695
5 1 .005487 .594540 .603333
6 1 .557127 .447424 .989874
7 1 .465414 .460258 .004824
ITEM: TIMESTEP
50
ITEM: NUMBER OF ATOMS
7
ITEM: BOX BOUNDS ss ss ss
-2.9829 3.2357
-2.6783 3.4196
-1.9686 2.0003
ITEM: ATOMS id type xs ys zs
1 1 .476712 .990828 .520112
2 1 .985443 .650830 .405965
3 1 .845259 .033714 .396766
4 1 .235805 .011521 .556412
5 1 .005926 .595559 .603953
6 1 .558584 .446314 .991557
7 1 .467991 .460480 .011226
ITEM: TIMESTEP
100
ITEM: NUMBER OF ATOMS
7
ITEM: BOX BOUNDS ss ss ss
-2.9835 3.2325
-2.6783 3.4196
-1.9732 2.0007
ITEM: ATOMS id type xs ys zs
1 1 .476311 .988036 .518213
2 1 .988243 .651402 .409354
3 1 .843744 .036428 .390868
4 1 .234932 .012840 .556621
5 1 .006030 .597170 .610190
6 1 .556485 .447480 .988832
7 1 .466962 .459409 .010653
ITEM: TIMESTEP
150
ITEM: NUMBER OF ATOMS
7
ITEM: BOX BOUNDS ss ss ss
-2.9881 3.2289
-2.6783 3.4196
-1.9728 2.0047
ITEM: ATOMS id type xs ys zs
1 1 .476226 .988294 .519132
2 1 .987430 .650972 .404913
3 1 .846123 .035270 .391351
4 1 .234924 .013296 .556871
5 1 .009443 .598926 .610729
6 1 .557074 .447440 .988007
7 1 .466558 .459594 .009672
ITEM: TIMESTEP
200
ITEM: NUMBER OF ATOMS
7
ITEM: BOX BOUNDS ss ss ss
-2.9829 3.2289
-2.6783 3.4196
-1.9760 2.0003
ITEM: ATOMS id type xs ys zs
1 1 .475765 .984260 .519552
2 1 .991188 .651445 .405064
3 1 .843357 .034530 .392212
4 1 .235769 .011360 .553007
5 1 .003633 .596486 .611748
6 1 .559732 .448843 .983361
7 1 .469487 .459165 .011989
ITEM: TIMESTEP
250
ITEM: NUMBER OF ATOMS
7
ITEM: BOX BOUNDS ss ss ss
-2.9982 3.2289
-2.6771 3.4196
-1.9802 2.0003
ITEM: ATOMS id type xs ys zs
1 1 .481671 .986281 .518926
2 1 .988400 .644180 .410037
3 1 .842536 .036243 .391746
4 1 .236050 .011826 .562409
5 1 .009576 .594214 .602859
6 1 .556050 .447830 .991312
7 1 .471931 .460255 .014230
ITEM: TIMESTEP
300
ITEM: NUMBER OF ATOMS
7
ITEM: BOX BOUNDS ss ss ss
-2.9922 3.2267
-2.6758 3.4054
-1.9796 2.0001
ITEM: ATOMS id type xs ys zs
1 1 .479920 .990324 .517227
2 1 .990112 .650103 .412236
3 1 .842291 .037667 .388715
4 1 .233740 .010052 .560772
5 1 .009282 .596293 .605508
6 1 .556788 .448586 .994431
7 1 .472525 .462071 .021802
ITEM: TIMESTEP
350
ITEM: NUMBER OF ATOMS
7
ITEM: BOX BOUNDS ss ss ss
-2.9937 3.2267
-2.6775 3.4054
-1.9800 2.0034
ITEM: ATOMS id type xs ys zs
1 1 .477011 .987730 .518768
2 1 .990407 .652326 .409512
3 1 .846311 .042347 .395011
4 1 .237796 .013378 .556467
5 1 .008917 .598384 .610683
6 1 .561713 .446766 .987300
7 1 .468830 .460281 .015832
ITEM: TIMESTEP
400
ITEM: NUMBER OF ATOMS
7
ITEM: BOX BOUNDS ss ss ss
-2.9959 3.2267
-2.6817 3.3949
-1.9740 2.0057
ITEM: ATOMS id type xs ys zs
1 1 .474601 .992986 .524254
2 1 .990082 .657794 .408478
3 1 .842377 .037063 .392958
4 1 .236059 .008887 .560640
5 1 .009412 .593392 .590888
6 1 .555197 .449992 .981136
7 1 .473253 .460317 .014513
ITEM: TIMESTEP
1
ITEM: NUMBER OF ATOMS
7
ITEM: BOX BOUNDS ss ss ss
-2.9944 3.2196
-2.6802 3.3945
-1.9703 2.0006
ITEM: ATOMS id type xs ys zs
1 1 .479100 .994949 .519822
2 1 .989196 .652290 .409763
3 1 .846916 .035399 .392474
4 1 .238098 .010917 .556880
5 1 .007336 .597386 .604494
6 1 .559615 .449431 .990655
7 1 .467969 .462370 .007212
ITEM: TIMESTEP
50
ITEM: NUMBER OF ATOMS
7
ITEM: BOX BOUNDS ss ss ss
-2.9904 3.2196
-2.6802 3.3945
-1.9703 2.0006
ITEM: ATOMS id type xs ys zs
1 1 .478297 .996275 .519716
2 1 .987319 .652303 .411642
3 1 .845933 .032727 .390927
4 1 .237067 .011673 .558564
5 1 .007707 .596489 .606256
6 1 .561439 .446772 .991254
7 1 .466722 .463585 .008144
ITEM: TIMESTEP
100
ITEM: NUMBER OF ATOMS
7
ITEM: BOX BOUNDS ss ss ss
-2.9904 3.2196
-2.6802 3.4035
-1.9783 2.0006
ITEM: ATOMS id type xs ys zs
1 1 .479693 .992499 .522508
2 1 .990498 .650481 .414456
3 1 .848780 .034610 .397918
4 1 .241409 .010365 .558998
5 1 .009304 .598914 .604718
6 1 .558857 .448609 .990127
7 1 .468363 .464799 .011214
ITEM: TIMESTEP
150
ITEM: NUMBER OF ATOMS
7
ITEM: BOX BOUNDS ss ss ss
-2.9900 3.2196
-2.6802 3.3958
-1.9814 2.0103
ITEM: ATOMS id type xs ys zs
1 1 .479846 .995514 .524010
2 1 .987036 .650471 .411159
3 1 .849127 .038668 .384113
4 1 .237857 .009442 .554428
5 1 .008873 .599764 .601394
6 1 .558831 .448260 .984332
7 1 .465628 .464074 .012149
ITEM: TIMESTEP
200
ITEM: NUMBER OF ATOMS
7
ITEM: BOX BOUNDS ss ss ss
-2.9883 3.2196
-2.6802 3.3945
-1.9923 2.0212
ITEM: ATOMS id type xs ys zs
1 1 .473653 .991903 .518868
2 1 .987060 .652004 .411643
3 1 .844701 .035781 .390197
4 1 .238256 .011490 .560765
5 1 .011118 .598009 .603477
6 1 .557186 .449900 .988347
7 1 .465524 .461882 .016561
ITEM: TIMESTEP
250
ITEM: NUMBER OF ATOMS
7
ITEM: BOX BOUNDS ss ss ss
-2.9883 3.2196
-2.6802 3.3957
-1.9825 2.0237
ITEM: ATOMS id type xs ys zs
1 1 .476665 .990785 .522329
2 1 .988907 .647354 .412795
3 1 .844236 .036673 .389348
4 1 .234917 .010746 .562975
5 1 .004838 .599247 .602424
6 1 .558950 .448255 .985204
7 1 .468813 .459765 .016314
ITEM: TIMESTEP
300
ITEM: NUMBER OF ATOMS
7
ITEM: BOX BOUNDS ss ss ss
-2.9922 3.2196
-2.6802 3.4057
-1.9762 2.0309
ITEM: ATOMS id type xs ys zs
1 1 .476536 .990044 .510183
2 1 .988683 .645306 .412406
3 1 .842975 .031759 .389077
4 1 .241588 .007649 .565480
5 1 .008535 .593146 .603375
6 1 .557800 .452768 .988451
7 1 .465262 .460624 .016436
ITEM: TIMESTEP
350
ITEM: NUMBER OF ATOMS
7
ITEM: BOX BOUNDS ss ss ss
-2.9867 3.2196
-2.6802 3.3945
-1.9687 2.0404
ITEM: ATOMS id type xs ys zs
1 1 .473722 .991492 .514267
2 1 .985112 .650167 .405871
3 1 .844723 .039950 .387835
4 1 .238151 .009945 .558911
5 1 .009319 .592711 .593658
6 1 .555509 .451722 .978737
7 1 .466519 .457582 .011141
ITEM: TIMESTEP
400
ITEM: NUMBER OF ATOMS
7
ITEM: BOX BOUNDS ss ss ss
-2.9867 3.2196
-2.6783 3.3953
-1.9687 2.0399
ITEM: ATOMS id type xs ys zs
1 1 .476237 .991381 .520197
2 1 .991374 .651556 .403124
3 1 .844062 .038489 .386788
4 1 .241920 .005800 .563322
5 1 .006954 .592293 .600307
6 1 .556712 .451428 .986274
7 1 .469595 .463593 .015132
ITEM: TIMESTEP
1
ITEM: NUMBER OF ATOMS
7
ITEM: BOX BOUNDS ss ss ss
-2.9896 3.2196
-2.6783 3.3848
-1.9621 2.0282
ITEM: ATOMS id type xs ys zs
1 1 .478860 .996878 .514414
2 1 .988929 .653611 .405636
3 1 .846938 .035491 .388605
4 1 .237524 .010928 .551889
5 1 .006581 .598037 .600088
6 1 .559055 .450123 .982723
7 1 .467342 .462887 .005637
ITEM: TIMESTEP
50
ITEM: NUMBER OF ATOMS
7
ITEM: BOX BOUNDS ss ss ss
-2.9896 3.2196
-2.6783 3.3946
-1.9715 2.0282
ITEM: ATOMS id type xs ys zs
1 1 .479699 .994003 .515344
2 1 .988215 .652023 .404731
3 1 .847491 .029872 .386975
4 1 .237415 .011515 .554499
5 1 .006942 .598834 .600934
6 1 .557762 .448505 .982667
7 1 .466977 .462865 .006647
ITEM: TIMESTEP
100
ITEM: NUMBER OF ATOMS
7
ITEM: BOX BOUNDS ss ss ss
-2.9944 3.2196
-2.6783 3.3974
-1.9800 2.0282
ITEM: ATOMS id type xs ys zs
1 1 .478548 .993097 .515723
2 1 .989690 .653692 .409509
3 1 .846093 .038090 .393693
4 1 .237616 .013889 .555509
5 1 .007560 .595112 .601088
6 1 .561876 .448404 .978370
7 1 .469335 .461494 .009160
ITEM: TIMESTEP
150
ITEM: NUMBER OF ATOMS
7
ITEM: BOX BOUNDS ss ss ss
-2.9896 3.2196
-2.6783 3.4144
-1.9836 2.0282
ITEM: ATOMS id type xs ys zs
1 1 .477776 .990916 .517891
2 1 .986649 .645337 .409341
3 1 .848189 .036821 .391487
4 1 .238813 .011805 .554449
5 1 .008025 .599703 .603450
6 1 .554706 .446471 .983527
7 1 .468015 .464317 .013275
ITEM: TIMESTEP
200
ITEM: NUMBER OF ATOMS
7
ITEM: BOX BOUNDS ss ss ss
-2.9896 3.2196
-2.6783 3.4056
-1.9743 2.0282
ITEM: ATOMS id type xs ys zs
1 1 .476600 .992079 .515773
2 1 .988738 .648652 .405973
3 1 .845587 .034773 .389823
4 1 .238935 .011859 .551469
5 1 .007848 .593035 .591928
6 1 .555683 .450444 .986257
7 1 .472989 .458701 .011403
ITEM: TIMESTEP
250
ITEM: NUMBER OF ATOMS
7
ITEM: BOX BOUNDS ss ss ss
-2.9896 3.2196
-2.6783 3.4057
-1.9883 2.0282
ITEM: ATOMS id type xs ys zs
1 1 .479686 .995177 .520026
2 1 .988772 .649202 .404809
3 1 .845679 .036043 .387974
4 1 .238618 .017497 .552362
5 1 .010000 .599030 .592365
6 1 .554426 .452268 .987584
7 1 .471061 .464469 .015493
ITEM: TIMESTEP
300
ITEM: NUMBER OF ATOMS
7
ITEM: BOX BOUNDS ss ss ss
-2.9887 3.2196
-2.6783 3.4131
-1.9822 2.0282
ITEM: ATOMS id type xs ys zs
1 1 .477960 .994943 .517718
2 1 .988208 .647116 .405109
3 1 .846607 .036131 .385990
4 1 .238443 .018431 .551176
5 1 .009069 .599309 .593445
6 1 .553167 .452783 .987969
7 1 .472280 .463995 .014695
ITEM: TIMESTEP
350
ITEM: NUMBER OF ATOMS
7
ITEM: BOX BOUNDS ss ss ss
-2.9911 3.2196
-2.6758 3.4177
-1.9827 2.0374
ITEM: ATOMS id type xs ys zs
1 1 .476616 .991513 .518006
2 1 .989274 .650947 .409104
3 1 .849805 .036111 .387775
4 1 .240559 .010037 .561054
5 1 .012721 .594746 .595002
6 1 .558772 .450184 .980744
7 1 .469271 .455554 .015175
ITEM: TIMESTEP
400
ITEM: NUMBER OF ATOMS
7
ITEM: BOX BOUNDS ss ss ss
-2.9945 3.2196
-2.6726 3.4217
-1.9798 2.0281
ITEM: ATOMS id type xs ys zs
1 1 .480318 .993615 .516847
2 1 .987426 .650979 .407782
3 1 .846359 .038243 .400978
4 1 .242142 .010077 .558115
5 1 .012888 .593612 .592802
6 1 .557313 .449782 .981780
7 1 .473683 .458080 .017992
ITEM: TIMESTEP
1
ITEM: NUMBER OF ATOMS
7
ITEM: BOX BOUNDS ss ss ss
-2.9941 3.2017
-2.6632 3.4098
-1.9774 2.0184
ITEM: ATOMS id type xs ys zs
1 1 .480810 .992499 .517946
2 1 .992015 .649626 .408814
3 1 .848960 .032751 .391676
4 1 .238969 .008441 .554565
5 1 .007390 .594427 .602195
6 1 .561317 .446535 .986128
7 1 .468991 .459899 .009569
ITEM: TIMESTEP
50
ITEM: NUMBER OF ATOMS
7
ITEM: BOX BOUNDS ss ss ss
-2.9905 3.1939
-2.6632 3.4098
-1.9774 2.0184
ITEM: ATOMS id type xs ys zs
1 1 .482445 .993883 .519598
2 1 .992992 .649532 .410396
3 1 .850694 .034072 .393733
4 1 .241246 .009034 .557749
5 1 .005774 .597077 .599672
6 1 .562489 .443826 .985264
7 1 .469674 .460108 .009807
ITEM: TIMESTEP
100
ITEM: NUMBER OF ATOMS
7
ITEM: BOX BOUNDS ss ss ss
-2.9880 3.1939
-2.6605 3.4071
-1.9774 2.0184
ITEM: ATOMS id type xs ys zs
1 1 .477013 .989762 .519972
2 1 .993920 .651063 .411670
3 1 .853863 .030719 .391078
4 1 .240885 .006429 .560890
5 1 .006694 .595549 .601554
6 1 .559196 .448727 .984440
7 1 .466586 .461877 .010812
ITEM: TIMESTEP
150
ITEM: NUMBER OF ATOMS
7
ITEM: BOX BOUNDS ss ss ss
-2.9880 3.1900
-2.6605 3.4055
-1.9799 2.0171
ITEM: ATOMS id type xs ys zs
1 1 .481189 .989442 .519694
2 1 .995667 .650774 .409976
3 1 .848109 .032899 .382819
4 1 .239669 .006346 .559462
5 1 .010340 .598270 .597349
6 1 .566067 .446592 .984461
7 1 .467982 .457294 .012486
ITEM: TIMESTEP
200
ITEM: NUMBER OF ATOMS
7
ITEM: BOX BOUNDS ss ss ss
-2.9880 3.1972
-2.6605 3.4055
-1.9823 2.0171
ITEM: ATOMS id type xs ys zs
1 1 .482338 .989709 .513211
2 1 .991779 .650078 .403773
3 1 .850687 .034316 .393809
4 1 .239392 .010245 .555025
5 1 .008374 .592302 .600685
6 1 .557685 .446856 .984845
7 1 .471116 .458202 .008637
ITEM: TIMESTEP
250
ITEM: NUMBER OF ATOMS
7
ITEM: BOX BOUNDS ss ss ss
-2.9880 3.2068
-2.6599 3.4064
-1.9754 2.0211
ITEM: ATOMS id type xs ys zs
1 1 .478667 .993624 .520451
2 1 .989085 .648400 .403780
3 1 .846602 .032987 .383467
4 1 .237404 .006186 .566120
5 1 .008817 .592016 .603556
6 1 .558780 .450367 .987432
7 1 .469003 .456539 .020894
ITEM: TIMESTEP
300
ITEM: NUMBER OF ATOMS
7
ITEM: BOX BOUNDS ss ss ss
-2.9880 3.2097
-2.6589 3.4055
-1.9891 2.0189
ITEM: ATOMS id type xs ys zs
1 1 .476118 .994205 .519175
2 1 .989151 .649492 .405924
3 1 .846529 .032001 .384670
4 1 .237474 .007631 .566641
5 1 .008142 .592254 .603735
6 1 .557958 .451288 .987816
7 1 .471340 .454515 .024453
ITEM: TIMESTEP
350
ITEM: NUMBER OF ATOMS
7
ITEM: BOX BOUNDS ss ss ss
-2.9845 3.2203
-2.6720 3.4060
-1.9669 2.0259
ITEM: ATOMS id type xs ys zs
1 1 .479761 .990133 .522495