ITEM: TIMESTEP
1
ITEM: NUMBER OF ATOMS
7
ITEM: BOX BOUNDS ss ss ss
-2.9519 3.1557
-2.6165 3.3674
-1.9445 1.9644
ITEM: ATOMS id type xs ys zs
1 1 .480769 .999325 .521106
2 1 .999319 .651626 .409816
3 1 .854681 .025426 .392387
4 1 .235444 .000602 .558855
5 1 .000646 .595568 .607528
6 1 .562386 .445653 .999023
7 1 .469040 .458875 .000971
ITEM: TIMESTEP
50
ITEM: NUMBER OF ATOMS
7
ITEM: BOX BOUNDS ss ss ss
-2.9741 3.1774
-2.6389 3.3878
-1.9656 1.9874
ITEM: ATOMS id type xs ys zs
1 1 .480713 .995713 .520583
2 1 .995669 .650572 .410645
3 1 .852207 .028924 .392977
4 1 .237630 .004627 .558201
5 1 .004515 .595191 .605890
6 1 .561789 .446192 .993150
7 1 .469350 .459280 .006803
ITEM: TIMESTEP
100
ITEM: NUMBER OF ATOMS
7
ITEM: BOX BOUNDS ss ss ss
-2.9777 3.1875
-2.6458 3.3910
-1.9694 1.9995
ITEM: ATOMS id type xs ys zs
1 1 .479813 .994461 .519776
2 1 .994530 .650464 .409581
3 1 .850297 .030815 .392196
4 1 .237790 .005611 .557134
5 1 .005969 .595075 .604398
6 1 .560328 .447094 .990031
7 1 .469435 .459711 .009630
ITEM: TIMESTEP
150
ITEM: NUMBER OF ATOMS
7
ITEM: BOX BOUNDS ss ss ss
-2.9752 3.1939
-2.6634 3.3910
-1.9712 2.0006
ITEM: ATOMS id type xs ys zs
1 1 .478561 .993894 .519354
2 1 .994131 .651716 .410032
3 1 .848985 .035185 .393315
4 1 .237152 .007789 .558517
5 1 .005875 .595088 .605140
6 1 .558237 .449861 .990037
7 1 .469422 .460891 .011908
ITEM: TIMESTEP
200
ITEM: NUMBER OF ATOMS
7
ITEM: BOX BOUNDS ss ss ss
-2.9882 3.2006
-2.6651 3.3979
-1.9752 2.0000
ITEM: ATOMS id type xs ys zs
1 1 .479130 .992154 .520262
2 1 .993580 .651148 .410881
3 1 .847727 .036628 .394652
4 1 .238210 .007270 .559701
5 1 .008048 .593670 .606280
6 1 .557663 .449917 .990421
7 1 .470170 .460450 .013857
ITEM: TIMESTEP
250
ITEM: NUMBER OF ATOMS
7
ITEM: BOX BOUNDS ss ss ss
-2.9827 3.2088
-2.6693 3.3966
-1.9713 2.0046
ITEM: ATOMS id type xs ys zs
1 1 .478492 .992227 .519616
2 1 .992911 .651368 .410109
3 1 .845466 .038325 .393831
4 1 .236859 .007367 .558643
5 1 .007698 .593925 .605421
6 1 .556173 .450376 .989037
7 1 .468905 .461353 .013139
ITEM: TIMESTEP
300
ITEM: NUMBER OF ATOMS
7
ITEM: BOX BOUNDS ss ss ss
-2.9822 3.2121
-2.6752 3.4066
-1.9779 2.0079
ITEM: ATOMS id type xs ys zs
1 1 .478705 .990588 .519957
2 1 .992903 .650580 .411062
3 1 .844166 .040059 .394763
4 1 .236397 .007963 .558663
5 1 .008061 .593319 .605410
6 1 .555646 .450100 .987819
7 1 .468602 .461578 .014321
ITEM: TIMESTEP
350
ITEM: NUMBER OF ATOMS
7
ITEM: BOX BOUNDS ss ss ss
-2.9857 3.2174
-2.6732 3.3983
-1.9712 2.0078
ITEM: ATOMS id type xs ys zs
1 1 .478850 .991688 .518983
2 1 .992502 .651695 .409861
3 1 .843067 .040424 .394769
4 1 .236299 .007499 .557660
5 1 .008595 .593651 .604588
6 1 .555340 .450628 .987453
7 1 .468658 .462244 .012288
ITEM: TIMESTEP
400
ITEM: NUMBER OF ATOMS
7
ITEM: BOX BOUNDS ss ss ss
-2.9854 3.2248
-2.6833 3.4031
-1.9743 2.0144
ITEM: ATOMS id type xs ys zs
1 1 .478120 .990611 .518233
2 1 .991683 .652543 .408774
3 1 .841786 .042656 .396962
4 1 .235347 .008975 .556819
5 1 .008511 .593201 .604154
6 1 .554850 .451285 .985334
7 1 .468264 .462714 .012968
ITEM: TIMESTEP
1
ITEM: NUMBER OF ATOMS
7
ITEM: BOX BOUNDS ss ss ss
-2.9834 3.2169
-2.6709 3.3954
-1.9736 1.9996
ITEM: ATOMS id type xs ys zs
1 1 .478666 .994737 .519991
2 1 .989460 .651753 .410500
3 1 .846985 .034048 .393351
4 1 .237008 .009562 .557133
5 1 .005721 .596455 .605014
6 1 .559064 .448577 .990182
7 1 .467114 .461615 .008260
ITEM: TIMESTEP
50
ITEM: NUMBER OF ATOMS
7
ITEM: BOX BOUNDS ss ss ss
-2.9834 3.2169
-2.6709 3.3954
-1.9708 1.9996
ITEM: ATOMS id type xs ys zs
1 1 .478443 .994599 .519601
2 1 .989237 .651664 .410269
3 1 .847085 .033844 .392421
4 1 .237290 .009867 .557083
5 1 .005912 .596663 .604463
6 1 .558960 .448569 .990155
7 1 .467137 .461541 .007945
ITEM: TIMESTEP
100
ITEM: NUMBER OF ATOMS
7
ITEM: BOX BOUNDS ss ss ss
-2.9834 3.2169
-2.6709 3.3954
-1.9755 1.9997
ITEM: ATOMS id type xs ys zs
1 1 .477922 .993885 .520127
2 1 .989512 .651524 .410618
3 1 .846731 .034773 .392381
4 1 .237214 .009788 .557584
5 1 .006948 .596449 .604421
6 1 .558218 .448812 .989307
7 1 .467525 .461385 .010549
ITEM: TIMESTEP
150
ITEM: NUMBER OF ATOMS
7
ITEM: BOX BOUNDS ss ss ss
-2.9789 3.2169
-2.6709 3.3955
-1.9707 1.9996
ITEM: ATOMS id type xs ys zs
1 1 .477264 .993202 .519752
2 1 .990055 .651506 .409640
3 1 .846172 .036098 .390555
4 1 .236336 .009350 .556633
5 1 .006984 .596046 .603452
6 1 .557027 .449139 .988637
7 1 .467484 .461554 .009739
ITEM: TIMESTEP
200
ITEM: NUMBER OF ATOMS
7
ITEM: BOX BOUNDS ss ss ss
-2.9776 3.2169
-2.6709 3.3958
-1.9821 1.9996
ITEM: ATOMS id type xs ys zs
1 1 .477314 .992731 .522361
2 1 .990843 .651359 .411612
3 1 .845302 .037605 .392097
4 1 .236403 .008762 .557456
5 1 .007341 .595518 .604405
6 1 .556415 .449627 .988812
7 1 .467479 .461850 .012778
ITEM: TIMESTEP
250
ITEM: NUMBER OF ATOMS
7
ITEM: BOX BOUNDS ss ss ss
-2.9776 3.2169
-2.6738 3.4007
-1.9704 2.0017
ITEM: ATOMS id type xs ys zs
1 1 .477470 .991611 .522650
2 1 .991645 .650883 .409962
3 1 .844696 .039316 .390873
4 1 .236566 .008641 .555063
5 1 .007287 .594587 .603149
6 1 .556040 .449903 .988537
7 1 .467744 .462493 .010516
ITEM: TIMESTEP
300
ITEM: NUMBER OF ATOMS
7
ITEM: BOX BOUNDS ss ss ss
-2.9796 3.2169
-2.6707 3.3980
-1.9704 2.0079
ITEM: ATOMS id type xs ys zs
1 1 .477732 .991979 .523299
2 1 .992405 .651407 .408793
3 1 .844433 .040111 .391477
4 1 .236747 .008135 .553947
5 1 .007681 .594038 .603046
6 1 .556284 .449916 .987535
7 1 .468028 .463251 .011256
ITEM: TIMESTEP
350
ITEM: NUMBER OF ATOMS
7
ITEM: BOX BOUNDS ss ss ss
-2.9776 3.2218
-2.6725 3.3974
-1.9720 2.0215
ITEM: ATOMS id type xs ys zs
1 1 .477148 .992029 .522620
2 1 .992054 .652365 .407116
3 1 .843371 .041500 .391300
4 1 .236024 .008523 .552662
5 1 .007463 .593806 .602220
6 1 .556071 .450132 .984465
7 1 .467438 .464092 .012326
ITEM: TIMESTEP
400
ITEM: NUMBER OF ATOMS
7
ITEM: BOX BOUNDS ss ss ss
-2.9819 3.2216
-2.6813 3.3996
-1.9732 2.0145
ITEM: ATOMS id type xs ys zs
1 1 .477537 .991598 .524382
2 1 .992436 .653173 .407786
3 1 .842966 .043540 .392867
4 1 .236003 .009856 .554349
5 1 .008024 .593753 .604545
6 1 .556629 .450646 .986259
7 1 .467668 .465089 .013412
ITEM: TIMESTEP
1
ITEM: NUMBER OF ATOMS
7
ITEM: BOX BOUNDS ss ss ss
-2.9776 3.2246
-2.6748 3.3922
-1.9755 2.0075
ITEM: ATOMS id type xs ys zs
1 1 .477586 .995254 .519189
2 1 .988229 .652316 .409969
3 1 .845800 .034694 .392858
4 1 .236004 .010209 .556240
5 1 .004784 .597025 .604000
6 1 .557963 .449168 .988221
7 1 .466035 .462206 .008722
ITEM: TIMESTEP
50
ITEM: NUMBER OF ATOMS
7
ITEM: BOX BOUNDS ss ss ss
-2.9776 3.2246
-2.6748 3.3924
-1.9755 2.0075
ITEM: ATOMS id type xs ys zs
1 1 .477323 .995128 .519116
2 1 .987960 .652186 .410227
3 1 .845952 .034449 .392281
4 1 .236303 .010573 .556485
5 1 .004904 .597257 .603615
6 1 .557905 .449103 .988237
7 1 .466046 .462096 .009019
ITEM: TIMESTEP
100
ITEM: NUMBER OF ATOMS
7
ITEM: BOX BOUNDS ss ss ss
-2.9807 3.2242
-2.6748 3.3925
-1.9702 2.0075
ITEM: ATOMS id type xs ys zs
1 1 .477135 .994164 .518955
2 1 .988128 .651723 .408633
3 1 .845500 .035252 .391162
4 1 .236645 .010970 .555582
5 1 .006186 .597524 .602667
6 1 .557336 .449223 .987402
7 1 .466489 .461883 .009026
ITEM: TIMESTEP
150
ITEM: NUMBER OF ATOMS
7
ITEM: BOX BOUNDS ss ss ss
-2.9969 3.2242
-2.6748 3.3922
-1.9732 2.0031
ITEM: ATOMS id type xs ys zs
1 1 .478351 .993328 .520131
2 1 .988540 .651289 .408486
3 1 .845281 .036398 .392151
4 1 .238053 .010706 .556223
5 1 .008949 .597606 .603417
6 1 .557510 .449437 .988268
7 1 .467871 .461806 .010895
ITEM: TIMESTEP
200
ITEM: NUMBER OF ATOMS
7
ITEM: BOX BOUNDS ss ss ss
-2.9894 3.2169
-2.6748 3.3995
-1.9740 2.0031
ITEM: ATOMS id type xs ys zs
1 1 .478693 .990562 .519608
2 1 .991376 .650107 .408736
3 1 .844588 .036972 .393053
4 1 .235981 .010303 .555186
5 1 .007842 .596386 .603075
6 1 .556133 .449474 .988815
7 1 .469428 .460596 .012124
ITEM: TIMESTEP
250
ITEM: NUMBER OF ATOMS
7
ITEM: BOX BOUNDS ss ss ss
-2.9878 3.2169
-2.6683 3.3896
-1.9759 2.0017
ITEM: ATOMS id type xs ys zs
1 1 .479032 .991061 .519172
2 1 .992889 .649628 .410056
3 1 .843564 .036046 .395187
4 1 .235063 .009047 .554873
5 1 .007844 .595912 .602663
6 1 .555113 .450006 .989991
7 1 .470555 .460707 .012922
ITEM: TIMESTEP
300
ITEM: NUMBER OF ATOMS
7
ITEM: BOX BOUNDS ss ss ss
-2.9901 3.2157
-2.6606 3.3966
-1.9742 2.0063
ITEM: ATOMS id type xs ys zs
1 1 .479896 .989784 .518189
2 1 .993785 .647633 .410493
3 1 .843349 .035360 .395474
4 1 .235275 .007344 .553826
5 1 .008291 .594094 .601133
6 1 .555080 .448879 .988887
7 1 .470930 .459879 .012434
ITEM: TIMESTEP
350
ITEM: NUMBER OF ATOMS
7
ITEM: BOX BOUNDS ss ss ss
-2.9863 3.2248
-2.6609 3.3864
-1.9742 2.0138
ITEM: ATOMS id type xs ys zs
1 1 .479562 .991456 .516943
2 1 .993060 .648149 .410833
3 1 .841297 .035815 .395066
4 1 .234128 .006830 .552496
5 1 .007770 .594245 .599742
6 1 .553815 .449529 .986424
7 1 .469857 .461147 .012018
ITEM: TIMESTEP
400
ITEM: NUMBER OF ATOMS
7
ITEM: BOX BOUNDS ss ss ss
-2.9846 3.2319
-2.6638 3.3821
-1.9718 2.0126
ITEM: ATOMS id type xs ys zs
1 1 .479204 .992238 .516243
2 1 .992609 .648574 .411789
3 1 .839302 .036373 .394688
4 1 .233281 .006743 .552259
5 1 .007477 .593995 .599556
6 1 .552811 .449863 .985742
7 1 .469279 .462290 .011132
ITEM: TIMESTEP
1
ITEM: NUMBER OF ATOMS
7
ITEM: BOX BOUNDS ss ss ss
-2.9957 3.2257
-2.6695 3.3705
-1.9767 2.0048
ITEM: ATOMS id type xs ys zs
1 1 .479014 .998833 .519691
2 1 .988081 .654359 .410438
3 1 .846096 .033965 .393315
4 1 .238177 .009381 .556754
5 1 .007669 .598823 .604529
6 1 .559146 .450298 .988899
7 1 .467500 .463394 .009042
ITEM: TIMESTEP
50
ITEM: NUMBER OF ATOMS
7
ITEM: BOX BOUNDS ss ss ss
-2.9957 3.2251
-2.6695 3.3877
-1.9767 2.0048
ITEM: ATOMS id type xs ys zs
1 1 .478847 .995967 .519607
2 1 .987854 .652381 .410742
3 1 .846413 .033447 .392711
4 1 .238514 .009725 .557004
5 1 .007699 .597427 .604231
6 1 .559202 .448951 .989063
7 1 .467523 .462034 .009200
ITEM: TIMESTEP
100
ITEM: NUMBER OF ATOMS
7
ITEM: BOX BOUNDS ss ss ss
-2.9833 3.2251
-2.6695 3.4006
-1.9767 2.0048
ITEM: ATOMS id type xs ys zs
1 1 .477378 .993285 .519872
2 1 .988055 .650646 .410210
3 1 .845579 .034038 .392266
4 1 .237248 .009722 .557360
5 1 .006467 .596399 .603471
6 1 .557583 .448253 .988531
7 1 .466809 .461024 .010600
ITEM: TIMESTEP
150
ITEM: NUMBER OF ATOMS
7
ITEM: BOX BOUNDS ss ss ss
-2.9806 3.2251
-2.6695 3.4003
-1.9767 2.0048
ITEM: ATOMS id type xs ys zs
1 1 .476764 .992699 .520164
2 1 .988633 .650972 .409861
3 1 .844964 .035266 .392038
4 1 .236750 .008839 .557445
5 1 .006280 .595864 .602106
6 1 .556866 .448206 .987838
7 1 .466897 .460824 .011917
ITEM: TIMESTEP
200
ITEM: NUMBER OF ATOMS
7
ITEM: BOX BOUNDS ss ss ss
-2.9806 3.2251
-2.6695 3.4009
-1.9767 2.0048
ITEM: ATOMS id type xs ys zs
1 1 .475351 .991438 .520721
2 1 .990246 .650967 .411414
3 1 .844863 .038094 .393411
4 1 .235822 .007931 .555090
5 1 .006164 .594448 .602893
6 1 .556083 .447425 .986768
7 1 .466537 .460604 .012933
ITEM: TIMESTEP
250
ITEM: NUMBER OF ATOMS
7
ITEM: BOX BOUNDS ss ss ss
-2.9806 3.2251
-2.6695 3.4024
-1.9767 2.0048
ITEM: ATOMS id type xs ys zs
1 1 .475139 .990365 .519689
2 1 .990687 .650726 .410916
3 1 .844795 .038717 .395001
4 1 .235452 .006586 .554015
5 1 .006187 .593637 .604564
6 1 .554865 .447193 .986352
7 1 .466763 .460371 .014112
ITEM: TIMESTEP
300
ITEM: NUMBER OF ATOMS
7
ITEM: BOX BOUNDS ss ss ss
-2.9865 3.2251
-2.6768 3.3947
-1.9767 2.0004
ITEM: ATOMS id type xs ys zs
1 1 .476069 .991399 .520148
2 1 .991216 .652035 .411427
3 1 .844459 .040217 .395638
4 1 .235900 .006819 .554868
5 1 .007189 .594286 .606057
6 1 .554780 .448596 .987028
7 1 .467485 .461642 .014794
ITEM: TIMESTEP
350
ITEM: NUMBER OF ATOMS
7
ITEM: BOX BOUNDS ss ss ss
-2.9830 3.2251
-2.6823 3.3870
-1.9767 1.9932
ITEM: ATOMS id type xs ys zs
1 1 .476096 .992829 .521565
2 1 .991663 .653447 .412228
3 1 .843848 .041576 .396641
4 1 .234855 .007214 .555814
5 1 .006591 .594588 .607341
6 1 .554187 .449975 .987860
7 1 .467378 .463125 .014828
ITEM: TIMESTEP
400
ITEM: NUMBER OF ATOMS
7
ITEM: BOX BOUNDS ss ss ss
-2.9861 3.2289
-2.6938 3.3923
-1.9756 2.0013
ITEM: ATOMS id type xs ys zs
1 1 .475954 .992086 .520431
2 1 .991223 .653957 .410904
3 1 .842819 .043832 .396152
4 1 .234316 .008672 .554261
5 1 .007204 .593898 .605558
6 1 .553694 .450619 .985044
7 1 .467621 .463986 .014164
ITEM: TIMESTEP
1
ITEM: NUMBER OF ATOMS
7
ITEM: BOX BOUNDS ss ss ss
-2.9812 3.2227
-2.6909 3.3861
-1.9669 1.9892
ITEM: ATOMS id type xs ys zs
1 1 .478038 .996262 .520552
2 1 .988537 .653889 .410592
3 1 .846150 .037284 .393365
4 1 .236523 .012852 .557852
5 1 .005361 .598697 .605938
6 1 .558391 .451079 .992777
7 1 .466489 .464092 .006612
ITEM: TIMESTEP
50
ITEM: NUMBER OF ATOMS
7
ITEM: BOX BOUNDS ss ss ss
-2.9812 3.2227
-2.6909 3.3901
-1.9764 1.9897
ITEM: ATOMS id type xs ys zs
1 1 .477850 .995672 .521539
2 1 .988115 .653364 .412385
3 1 .846466 .036815 .394113
4 1 .236835 .013276 .559159
5 1 .005376 .598606 .606405
6 1 .558390 .450663 .992840
7 1 .466432 .463683 .009105
ITEM: TIMESTEP
100
ITEM: NUMBER OF ATOMS
7
ITEM: BOX BOUNDS ss ss ss
-2.9812 3.2227
-2.6909 3.3947
-1.9774 1.9915
ITEM: ATOMS id type xs ys zs
1 1 .477558 .994307 .521719
2 1 .988017 .652640 .412043
3 1 .846044 .037593 .393806
4 1 .236812 .013477 .558877
5 1 .006783 .598392 .605749
6 1 .557656 .450635 .991686
7 1 .466933 .463477 .010154
ITEM: TIMESTEP
150
ITEM: NUMBER OF ATOMS
7
ITEM: BOX BOUNDS ss ss ss
-2.9883 3.2227
-2.6909 3.3994
-1.9742 2.0086
ITEM: ATOMS id type xs ys zs
1 1 .477732 .993284 .519410
2 1 .988392 .651976 .409254
3 1 .845661 .038486 .391271
4 1 .237423 .013534 .555569
5 1 .009046 .597823 .602073
6 1 .557713 .450538 .987459
7 1 .468176 .463525 .009157
ITEM: TIMESTEP
200
ITEM: NUMBER OF ATOMS
7
ITEM: BOX BOUNDS ss ss ss
-2.9816 3.2227
-2.6909 3.4030
-1.9809 2.0082
ITEM: ATOMS id type xs ys zs
1 1 .477058 .992585 .520755
2 1 .989416 .651159 .409378
3 1 .844684 .039246 .391931
4 1 .236388 .013564 .556345
5 1 .008475 .597150 .602263
6 1 .557219 .450840 .987596
7 1 .468041 .463207 .011258
ITEM: TIMESTEP
250
ITEM: NUMBER OF ATOMS
7
ITEM: BOX BOUNDS ss ss ss
-2.9780 3.2227
-2.6909 3.4030
-1.9786 2.0029
ITEM: ATOMS id type xs ys zs
1 1 .476136 .992058 .523608
2 1 .991053 .651256 .407455
3 1 .843544 .041006 .393620
4 1 .234879 .013809 .557908
5 1 .007670 .596004 .602005
6 1 .557581 .452260 .988232
7 1 .468322 .463289 .011486
ITEM: TIMESTEP
300
ITEM: NUMBER OF ATOMS
7
ITEM: BOX BOUNDS ss ss ss
-2.9788 3.2227
-2.6909 3.4027
-1.9733 2.0028
ITEM: ATOMS id type xs ys zs
1 1 .474875 .991882 .524915
2 1 .992197 .651732 .405207
3 1 .842100 .041969 .394313
4 1 .234687 .013546 .558217
5 1 .007236 .594792 .601178
6 1 .557762 .453193 .987118
7 1 .468467 .463725 .010455
ITEM: TIMESTEP
350
ITEM: NUMBER OF ATOMS
7
ITEM: BOX BOUNDS ss ss ss
-2.9843 3.2347
-2.6909 3.3998
-1.9749 2.0047
ITEM: ATOMS id type xs ys zs
1 1 .474134 .992186 .524590
2 1 .990776 .652349 .405226
3 1 .839672 .042517 .394641
4 1 .235080 .012879 .558971
5 1 .008104 .593946 .600577
6 1 .556853 .453758 .986438
7 1 .468121 .464396 .010876
ITEM: TIMESTEP
400
ITEM: NUMBER OF ATOMS
7
ITEM: BOX BOUNDS ss ss ss
-2.9780 3.2231
-2.6909 3.4063
-1.9806 1.9990
ITEM: ATOMS id type xs ys zs
1 1 .475032 .990929 .525774
2 1 .992885 .651860 .406737
3 1 .840469 .042480 .396005
4 1 .234594 .012408 .561210
5 1 .007077 .592801 .601742
6 1 .557287 .453219 .987643
7 1 .468557 .464264 .012402
ITEM: TIMESTEP
1
ITEM: NUMBER OF ATOMS
7
ITEM: BOX BOUNDS ss ss ss
-2.9854 3.2227
-2.6821 3.4034
-1.9771 1.9990
ITEM: ATOMS id type xs ys zs
1 1 .478386 .993438 .520489
2 1 .988546 .651540 .411092
3 1 .846255 .035782 .393941
4 1 .237029 .011384 .557606
5 1 .006023 .596420 .605452
6 1 .558685 .449006 .990350
7 1 .466841 .462003 .009134
ITEM: TIMESTEP
50
ITEM: NUMBER OF ATOMS
7
ITEM: BOX BOUNDS ss ss ss
-2.9854 3.2227
-2.6821 3.4034
-1.9771 1.9990
ITEM: ATOMS id type xs ys zs
1 1 .478115 .993522 .520401
2 1 .988111 .651484 .411530
3 1 .846598 .035248 .393236
4 1 .237407 .011855 .558072
5 1 .005976 .596773 .605138
6 1 .558771 .448898 .990608
7 1 .466803 .461868 .009191
ITEM: TIMESTEP
100
ITEM: NUMBER OF ATOMS
7
ITEM: BOX BOUNDS ss ss ss
-2.9854 3.2227
-2.6821 3.4034
-1.9771 1.9994
ITEM: ATOMS id type xs ys zs
1 1 .477500 .992875 .520499
2 1 .988262 .651613 .411351
3 1 .846436 .035755 .392430
4 1 .237687 .012257 .559159
5 1 .006960 .596817 .604813
6 1 .558194 .449276 .990147
7 1 .467041 .461970 .010748
ITEM: TIMESTEP
150
ITEM: NUMBER OF ATOMS
7
ITEM: BOX BOUNDS ss ss ss
-2.9925 3.2227
-2.6821 3.4034
-1.9887 2.0002
ITEM: ATOMS id type xs ys zs
1 1 .477617 .992387 .522279
2 1 .988828 .651873 .412218
3 1 .846553 .036414 .394072
4 1 .238510 .012580 .561527
5 1 .008755 .596752 .605841
6 1 .558494 .449741 .989811
7 1 .468205 .462128 .014476
ITEM: TIMESTEP
200
ITEM: NUMBER OF ATOMS
7
ITEM: BOX BOUNDS ss ss ss
-2.9869 3.2227
-2.6821 3.4083
-1.9865 2.0087
ITEM: ATOMS id type xs ys zs
1 1 .476587 .990859 .522390
2 1 .989718 .651941 .410080
3 1 .846415 .037123 .393579
4 1 .237860 .012811 .560662
5 1 .008120 .595606 .604372
6 1 .558430 .449716 .987192
7 1 .468779 .461901 .014763
ITEM: TIMESTEP
250
ITEM: NUMBER OF ATOMS
7
ITEM: BOX BOUNDS ss ss ss
-2.9854 3.2227
-2.6821 3.4094
-1.9847 2.0116
ITEM: ATOMS id type xs ys zs
1 1 .476085 .990389 .523621
2 1 .990321 .652019 .408445
3 1 .846340 .037865 .393869
4 1 .237860 .012394 .560049
5 1 .008041 .594834 .603901
6 1 .558423 .449759 .985965
7 1 .469225 .462104 .015853
ITEM: TIMESTEP
300
ITEM: NUMBER OF ATOMS
7
ITEM: BOX BOUNDS ss ss ss
-2.9865 3.2227
-2.6821 3.4040
-1.9691 2.0015
ITEM: ATOMS id type xs ys zs
1 1 .476607 .991736 .523302
2 1 .990625 .652213 .408262
3 1 .846012 .038854 .392611
4 1 .238055 .011080 .559617
5 1 .008199 .595650 .603057
6 1 .557660 .450392 .988134
7 1 .469243 .462507 .013167
ITEM: TIMESTEP
350
ITEM: NUMBER OF ATOMS
7
ITEM: BOX BOUNDS ss ss ss
-2.9916 3.2227
-2.6821 3.4167
-1.9622 2.0036
ITEM: ATOMS id type xs ys zs
1 1 .477656 .990101 .522083
2 1 .991408 .650576 .409079
3 1 .845552 .039464 .390768
4 1 .238340 .010250 .558566
5 1 .008961 .594708 .601026
6 1 .557221 .449851 .987120
7 1 .469762 .461582 .012378
ITEM: TIMESTEP
400
ITEM: NUMBER OF ATOMS
7
ITEM: BOX BOUNDS ss ss ss
-2.9896 3.2315
-2.6821 3.4130
-1.9694 2.0059
ITEM: ATOMS id type xs ys zs
1 1 .476803 .990575 .522898
2 1 .990951 .651189 .410931
3 1 .843916 .040011 .390814
4 1 .237220 .010130 .559455
5 1 .008785 .594767 .600730
6 1 .556207 .450067 .986335
7 1 .469550 .461880 .014378
ITEM: TIMESTEP
1
ITEM: NUMBER OF ATOMS
7
ITEM: BOX BOUNDS ss ss ss
-2.9829 3.2357
-2.6783 3.4196
-1.9594 2.0014
ITEM: ATOMS id type xs ys zs
1 1 .477170 .990798 .518042
2 1 .986458 .649590 .408216
3 1 .844415 .035086 .391000
4 1 .236232 .010741 .555297
5 1 .005621 .594585 .603325
6 1 .557339 .447473 .989700
7 1 .465652 .460444 .004712
ITEM: TIMESTEP
50
ITEM: NUMBER OF ATOMS
7
ITEM: BOX BOUNDS ss ss ss
-2.9829 3.2357
-2.6783 3.4196
-1.9686 2.0003
ITEM: ATOMS id type xs ys zs
1 1 .476940 .990897 .519180
2 1 .986014 .649491 .410231
3 1 .844788 .034448 .391753
4 1 .236606 .011225 .556835
5 1 .005494 .594995 .604092
6 1 .557442 .447388 .990324
7 1 .465577 .460305 .007036
ITEM: TIMESTEP
100
ITEM: NUMBER OF ATOMS
7
ITEM: BOX BOUNDS ss ss ss
-2.9835 3.2325
-2.6783 3.4196
-1.9732 2.0007
ITEM: ATOMS id type xs ys zs
1 1 .476835 .989367 .519560
2 1 .986978 .649838 .410344
3 1 .844124 .035480 .392612
4 1 .236574 .011751 .556653
5 1 .006365 .595810 .604931
6 1 .557207 .448111 .989559
7 1 .466302 .460129 .009692
ITEM: TIMESTEP
150
ITEM: NUMBER OF ATOMS
7
ITEM: BOX BOUNDS ss ss ss
-2.9881 3.2289
-2.6783 3.4196
-1.9728 2.0047
ITEM: ATOMS id type xs ys zs
1 1 .477400 .988542 .518755
2 1 .988171 .650172 .409044
3 1 .844059 .036084 .391833
4 1 .236453 .012065 .555687
5 1 .007648 .596557 .604807
6 1 .557442 .447961 .987611
7 1 .467294 .459928 .010578
ITEM: TIMESTEP
200
ITEM: NUMBER OF ATOMS
7
ITEM: BOX BOUNDS ss ss ss
-2.9829 3.2289
-2.6783 3.4196
-1.9760 2.0003
ITEM: ATOMS id type xs ys zs
1 1 .477012 .987851 .519970
2 1 .988866 .649513 .409725
3 1 .843192 .036893 .391767
4 1 .235371 .011838 .556632
5 1 .006956 .596244 .606137
6 1 .556656 .447606 .988344
7 1 .466899 .460010 .011560
ITEM: TIMESTEP
250
ITEM: NUMBER OF ATOMS
7
ITEM: BOX BOUNDS ss ss ss
-2.9982 3.2289
-2.6771 3.4196
-1.9802 2.0003
ITEM: ATOMS id type xs ys zs
1 1 .478287 .987482 .519949
2 1 .989309 .648921 .410062
3 1 .842819 .037326 .391993
4 1 .236838 .010924 .556874
5 1 .009413 .595487 .606294
6 1 .557116 .447486 .987734
7 1 .468399 .460019 .012890
ITEM: TIMESTEP
300
ITEM: NUMBER OF ATOMS
7
ITEM: BOX BOUNDS ss ss ss
-2.9922 3.2267
-2.6758 3.4054
-1.9796 2.0001
ITEM: ATOMS id type xs ys zs
1 1 .477676 .989388 .519989
2 1 .990446 .650458 .409704
3 1 .842615 .037491 .392081
4 1 .236097 .009970 .557532
5 1 .008083 .595951 .605405
6 1 .556577 .448555 .987075
7 1 .468599 .460972 .013410
ITEM: TIMESTEP
350
ITEM: NUMBER OF ATOMS
7
ITEM: BOX BOUNDS ss ss ss
-2.9937 3.2267
-2.6775 3.4054
-1.9800 2.0034
ITEM: ATOMS id type xs ys zs
1 1 .477636 .989285 .520782
2 1 .991234 .651060 .409247
3 1 .842539 .038152 .392313
4 1 .235879 .009728 .558238
5 1 .008021 .595092 .603009
6 1 .556332 .449123 .985949
7 1 .469381 .461092 .014352
ITEM: TIMESTEP
400
ITEM: NUMBER OF ATOMS
7
ITEM: BOX BOUNDS ss ss ss
-2.9959 3.2267
-2.6817 3.3949
-1.9740 2.0057
ITEM: ATOMS id type xs ys zs
1 1 .478049 .991304 .520375
2 1 .991878 .652741 .408736
3 1 .842670 .039822 .390833
4 1 .235754 .009606 .558065
5 1 .008363 .595790 .600740
6 1 .555971 .450560 .984679
7 1 .469787 .462490 .012914
ITEM: TIMESTEP
1
ITEM: NUMBER OF ATOMS
7
ITEM: BOX BOUNDS ss ss ss
-2.9944 3.2196
-2.6802 3.3945
-1.9703 2.0006
ITEM: ATOMS id type xs ys zs
1 1 .479373 .994895 .519467
2 1 .989043 .652383 .409924
3 1 .846892 .035520 .392751
4 1 .238251 .011080 .556628
5 1 .007463 .597161 .604534
6 1 .559600 .449483 .989924
7 1 .467840 .462504 .007452
ITEM: TIMESTEP
50
ITEM: NUMBER OF ATOMS
7
ITEM: BOX BOUNDS ss ss ss
-2.9904 3.2196
-2.6802 3.3945
-1.9703 2.0006
ITEM: ATOMS id type xs ys zs
1 1 .478778 .995034 .519379
2 1 .988512 .652318 .410453
3 1 .847304 .034786 .392001
4 1 .238191 .011562 .557033
5 1 .006654 .597539 .604061
6 1 .559461 .449296 .990373
7 1 .467443 .462348 .007427
ITEM: TIMESTEP
100
ITEM: NUMBER OF ATOMS
7
ITEM: BOX BOUNDS ss ss ss
-2.9904 3.2196
-2.6802 3.4035
-1.9783 2.0006
ITEM: ATOMS id type xs ys zs
1 1 .478057 .992898 .520617
2 1 .988491 .651007 .411377
3 1 .847161 .034874 .392678
4 1 .238854 .011739 .558348
5 1 .007733 .596892 .604323
6 1 .558905 .448671 .990396
7 1 .467784 .461635 .010393
ITEM: TIMESTEP
150
ITEM: NUMBER OF ATOMS
7
ITEM: BOX BOUNDS ss ss ss
-2.9900 3.2196
-2.6802 3.3958
-1.9814 2.0103
ITEM: ATOMS id type xs ys zs
1 1 .477649 .993154 .519859
2 1 .988396 .651123 .410631
3 1 .846446 .035688 .391654
4 1 .239049 .011721 .559065
5 1 .008071 .597262 .603034
6 1 .558189 .449722 .988943
7 1 .467686 .462083 .012039
ITEM: TIMESTEP
200
ITEM: NUMBER OF ATOMS
7
ITEM: BOX BOUNDS ss ss ss
-2.9883 3.2196
-2.6802 3.3945
-1.9923 2.0212
ITEM: ATOMS id type xs ys zs
1 1 .477217 .992082 .519173
2 1 .988288 .649551 .412114
3 1 .845084 .036355 .391520
4 1 .238776 .011650 .561642
5 1 .007895 .596290 .603312
6 1 .557418 .450618 .988630
7 1 .466710 .462154 .016428
ITEM: TIMESTEP
250
ITEM: NUMBER OF ATOMS
7
ITEM: BOX BOUNDS ss ss ss
-2.9883 3.2196
-2.6802 3.3957
-1.9825 2.0237
ITEM: ATOMS id type xs ys zs
1 1 .477328 .991225 .516744
2 1 .988796 .648862 .410327
3 1 .844447 .037184 .388785
4 1 .239290 .011113 .562153
5 1 .008163 .595610 .602672
6 1 .557529 .451152 .989338
7 1 .466426 .461389 .015235
ITEM: TIMESTEP
300
ITEM: NUMBER OF ATOMS
7
ITEM: BOX BOUNDS ss ss ss
-2.9922 3.2196
-2.6802 3.4057
-1.9762 2.0309
ITEM: ATOMS id type xs ys zs
1 1 .477941 .989750 .514602
2 1 .989214 .647669 .408534
3 1 .843911 .037883 .386374
4 1 .240517 .010237 .562797
5 1 .008939 .593511 .601358
6 1 .557256 .451435 .987980
7 1 .466497 .460419 .014111
ITEM: TIMESTEP
350
ITEM: NUMBER OF ATOMS
7
ITEM: BOX BOUNDS ss ss ss
-2.9867 3.2196
-2.6802 3.3945
-1.9687 2.0404
ITEM: ATOMS id type xs ys zs
1 1 .477704 .991832 .512871
2 1 .989632 .648642 .407045
3 1 .843468 .038525 .383848
4 1 .240252 .009484 .562235
5 1 .008276 .593992 .599524
6 1 .556183 .452978 .985995
7 1 .466238 .461473 .012663
ITEM: TIMESTEP
400
ITEM: NUMBER OF ATOMS
7
ITEM: BOX BOUNDS ss ss ss
-2.9867 3.2196
-2.6783 3.3953
-1.9687 2.0399
ITEM: ATOMS id type xs ys zs
1 1 .477211 .991483 .516039
2 1 .990109 .649330 .407664
3 1 .843418 .038969 .385277
4 1 .240828 .007923 .563812
5 1 .007802 .592777 .599972
6 1 .555809 .452736 .985300
7 1 .466059 .461512 .013763
ITEM: TIMESTEP
1
ITEM: NUMBER OF ATOMS
7
ITEM: BOX BOUNDS ss ss ss
-2.9896 3.2196
-2.6783 3.3848
-1.9621 2.0282
ITEM: ATOMS id type xs ys zs
1 1 .478971 .996477 .514887
2 1 .989030 .653311 .405880
3 1 .846774 .035277 .388787
4 1 .237662 .010795 .551875
5 1 .006696 .597994 .599548
6 1 .559261 .450029 .983067
7 1 .467434 .463075 .005352
ITEM: TIMESTEP
50
ITEM: NUMBER OF ATOMS
7
ITEM: BOX BOUNDS ss ss ss
-2.9896 3.2196
-2.6783 3.3946
-1.9715 2.0282
ITEM: ATOMS id type xs ys zs
1 1 .478734 .995071 .515963
2 1 .988496 .652209 .407868
3 1 .847266 .034466 .389441
4 1 .238068 .011306 .553390
5 1 .006439 .597475 .600040
6 1 .559478 .449170 .983492
7 1 .467355 .462188 .007552
ITEM: TIMESTEP
100
ITEM: NUMBER OF ATOMS
7
ITEM: BOX BOUNDS ss ss ss
-2.9944 3.2196
-2.6783 3.3974
-1.9800 2.0282
ITEM: ATOMS id type xs ys zs
1 1 .478491 .994256 .517551
2 1 .988509 .651470 .408380
3 1 .847222 .034941 .390401
4 1 .238977 .011975 .554276
5 1 .008263 .597753 .599955
6 1 .559055 .448873 .983470
7 1 .468331 .462356 .011065
ITEM: TIMESTEP
150
ITEM: NUMBER OF ATOMS
7
ITEM: BOX BOUNDS ss ss ss
-2.9896 3.2196
-2.6783 3.4144
-1.9836 2.0282
ITEM: ATOMS id type xs ys zs
1 1 .477490 .991449 .518412
2 1 .988191 .648951 .408502
3 1 .846750 .035434 .390076
4 1 .238206 .012412 .554604
5 1 .008342 .596849 .599246
6 1 .557788 .447541 .984458
7 1 .468357 .461959 .013200
ITEM: TIMESTEP
200
ITEM: NUMBER OF ATOMS
7
ITEM: BOX BOUNDS ss ss ss
-2.9896 3.2196
-2.6783 3.4056
-1.9743 2.0282
ITEM: ATOMS id type xs ys zs
1 1 .477339 .992886 .517459
2 1 .987873 .649351 .406875
3 1 .846284 .036365 .387964
4 1 .238324 .012320 .553926
5 1 .008928 .597831 .597613
6 1 .557158 .448396 .985266
7 1 .468616 .462954 .011186
ITEM: TIMESTEP
250
ITEM: NUMBER OF ATOMS
7
ITEM: BOX BOUNDS ss ss ss
-2.9896 3.2196
-2.6783 3.4057
-1.9883 2.0282
ITEM: ATOMS id type xs ys zs
1 1 .477325 .992923 .519290
2 1 .987779 .649491 .408466
3 1 .846490 .037113 .389077
4 1 .238890 .012060 .556557
5 1 .009229 .597785 .599094
6 1 .556643 .449085 .985513
7 1 .468751 .462358 .014971
ITEM: TIMESTEP
300
ITEM: NUMBER OF ATOMS
7
ITEM: BOX BOUNDS ss ss ss
-2.9887 3.2196
-2.6783 3.4131
-1.9822 2.0282
ITEM: ATOMS id type xs ys zs
1 1 .477383 .991568 .518926
2 1 .987838 .648840 .407475
3 1 .847017 .037289 .388178
4 1 .239343 .011510 .556357
5 1 .009189 .596886 .597779
6 1 .556316 .449279 .985120
7 1 .468765 .461028 .013948
ITEM: TIMESTEP
350
ITEM: NUMBER OF ATOMS
7
ITEM: BOX BOUNDS ss ss ss
-2.9911 3.2196
-2.6758 3.4177
-1.9827 2.0374
ITEM: ATOMS id type xs ys zs
1 1 .477762 .990328 .517561
2 1 .988094 .647876 .407517
3 1 .847492 .036865 .387534
4 1 .240238 .010219 .555691
5 1 .009242 .595846 .596736
6 1 .555752 .449348 .982728
7 1 .469026 .459817 .014781
ITEM: TIMESTEP
400
ITEM: NUMBER OF ATOMS
7
ITEM: BOX BOUNDS ss ss ss
-2.9945 3.2196
-2.6726 3.4217
-1.9798 2.0281
ITEM: ATOMS id type xs ys zs
1 1 .478251 .989140 .518573
2 1 .988337 .647247 .408521
3 1 .847930 .036543 .387963
4 1 .241085 .009134 .557672
5 1 .009598 .594820 .598135
6 1 .555844 .449128 .985426
7 1 .469369 .458484 .014548
ITEM: TIMESTEP
1
ITEM: NUMBER OF ATOMS
7
ITEM: BOX BOUNDS ss ss ss
-2.9941 3.2017
-2.6632 3.4098
-1.9774 2.0184
ITEM: ATOMS id type xs ys zs
1 1 .480735 .992365 .518010
2 1 .991908 .649756 .409151
3 1 .849339 .032728 .392077
4 1 .238908 .008287 .554942
5 1 .007439 .594525 .602542
6 1 .561203 .446803 .985546
7 1 .469175 .459831 .009173
ITEM: TIMESTEP
50
ITEM: NUMBER OF ATOMS
7
ITEM: BOX BOUNDS ss ss ss
-2.9905 3.1939
-2.6632 3.4098
-1.9774 2.0184
ITEM: ATOMS id type xs ys zs
1 1 .480791 .992572 .517876
2 1 .992557 .649656 .409768
3 1 .850871 .031884 .391222
4 1 .239214 .008836 .555408
5 1 .006631 .594981 .602047
6 1 .561873 .446621 .986081
7 1 .469283 .459699 .008950
ITEM: TIMESTEP
100
ITEM: NUMBER OF ATOMS
7
ITEM: BOX BOUNDS ss ss ss
-2.9880 3.1939
-2.6605 3.4071
-1.9774 2.0184
ITEM: ATOMS id type xs ys zs
1 1 .480098 .992220 .517736
2 1 .992510 .649509 .409254
3 1 .850689 .031752 .390431
4 1 .239308 .008574 .556415
5 1 .007409 .595394 .601168
6 1 .561436 .446658 .986094
7 1 .469245 .459590 .010371
ITEM: TIMESTEP
150
ITEM: NUMBER OF ATOMS
7
ITEM: BOX BOUNDS ss ss ss
-2.9880 3.1900
-2.6605 3.4055
-1.9799 2.0171
ITEM: ATOMS id type xs ys zs
1 1 .480186 .991608 .518567
2 1 .993597 .648805 .409737
3 1 .850639 .032210 .388143
4 1 .239820 .008280 .558543
5 1 .008692 .595666 .600420
6 1 .561752 .446892 .987271
7 1 .469765 .459089 .012712
ITEM: TIMESTEP
200
ITEM: NUMBER OF ATOMS
7
ITEM: BOX BOUNDS ss ss ss
-2.9880 3.1972
-2.6605 3.4055
-1.9823 2.0171
ITEM: ATOMS id type xs ys zs
1 1 .479573 .991039 .519478
2 1 .992750 .647898 .409817
3 1 .849366 .032942 .385948
4 1 .239707 .008161 .559367
5 1 .009037 .595247 .600119
6 1 .560411 .447424 .987978
7 1 .469883 .458668 .014363
ITEM: TIMESTEP
250
ITEM: NUMBER OF ATOMS
7
ITEM: BOX BOUNDS ss ss ss
-2.9880 3.2068
-2.6599 3.4064
-1.9754 2.0211
ITEM: ATOMS id type xs ys zs
1 1 .479660 .990235 .518579
2 1 .992111 .646745 .408608
3 1 .847450 .033115 .381262
4 1 .239865 .007625 .556535
5 1 .009174 .593945 .597979
6 1 .558651 .448119 .988353
7 1 .470152 .458813 .013561
ITEM: TIMESTEP
300
ITEM: NUMBER OF ATOMS
7
ITEM: BOX BOUNDS ss ss ss
-2.9880 3.2097
-2.6589 3.4055
-1.9891 2.0189
ITEM: ATOMS id type xs ys zs
1 1 .479907 .990442 .519997
2 1 .992482 .646388 .410597
3 1 .846598 .033052 .382250
4 1 .239967 .006979 .557745
5 1 .009519 .593797 .599527
6 1 .558289 .448520 .989686
7 1 .470106 .459068 .017290
ITEM: TIMESTEP
350
ITEM: NUMBER OF ATOMS
7
ITEM: BOX BOUNDS ss ss ss
-2.9845 3.2203
-2.6720 3.4060
-1.9669 2.0259
ITEM: ATOMS id type xs ys zs
1 1 .479005 .990345 .515718