ITEM: TIMESTEP
1
ITEM: NUMBER OF ATOMS
7
ITEM: BOX BOUNDS ss ss ss
-2.9354 3.1889
-2.5203 3.4777
-1.9297 1.9876
ITEM: ATOMS id type xs ys zs
1 1 .498113 .999174 .456639
2 1 .999182 .617112 .457862
3 1 .809414 .008350 .462073
4 1 .189535 .000530 .515566
5 1 .000636 .614615 .545559
6 1 .517260 .446347 .999180
7 1 .480549 .445888 .001533
ITEM: TIMESTEP
50
ITEM: NUMBER OF ATOMS
7
ITEM: BOX BOUNDS ss ss ss
-2.9571 3.2113
-2.5462 3.4991
-1.9533 2.0110
ITEM: ATOMS id type xs ys zs
1 1 .496844 .996457 .456996
2 1 .994660 .617573 .459363
3 1 .808153 .014987 .460821
4 1 .192859 .006510 .515368
5 1 .005972 .616779 .543289
6 1 .516741 .445981 .991106
7 1 .479726 .446357 .011053
ITEM: TIMESTEP
100
ITEM: NUMBER OF ATOMS
7
ITEM: BOX BOUNDS ss ss ss
-2.9623 3.2182
-2.5493 3.5089
-1.9595 2.0174
ITEM: ATOMS id type xs ys zs
1 1 .496130 .992639 .458175
2 1 .993696 .615614 .457255
3 1 .808497 .015020 .464196
4 1 .189760 .008262 .516229
5 1 .007027 .610728 .542224
6 1 .519095 .447108 .989929
7 1 .480695 .445884 .010108
ITEM: TIMESTEP
150
ITEM: NUMBER OF ATOMS
7
ITEM: BOX BOUNDS ss ss ss
-2.9734 3.2204
-2.5511 3.5092
-1.9697 2.0106
ITEM: ATOMS id type xs ys zs
1 1 .497130 .991256 .460851
2 1 .993241 .615783 .457817
3 1 .810779 .014083 .468932
4 1 .191141 .006403 .518177
5 1 .007494 .611475 .547215
6 1 .519049 .446844 .993130
7 1 .479613 .444954 .014700
ITEM: TIMESTEP
200
ITEM: NUMBER OF ATOMS
7
ITEM: BOX BOUNDS ss ss ss
-2.9849 3.2335
-2.5594 3.5030
-1.9763 2.0158
ITEM: ATOMS id type xs ys zs
1 1 .497156 .994004 .458711
2 1 .992109 .617086 .458444
3 1 .810613 .015291 .465582
4 1 .192314 .007991 .520181
5 1 .008234 .612622 .547093
6 1 .517367 .448051 .992587
7 1 .481949 .446277 .012709
ITEM: TIMESTEP
250
ITEM: NUMBER OF ATOMS
7
ITEM: BOX BOUNDS ss ss ss
-2.9803 3.2307
-2.5577 3.5055
-1.9811 2.0111
ITEM: ATOMS id type xs ys zs
1 1 .498030 .994004 .463960
2 1 .990476 .615816 .468079
3 1 .807154 .014843 .472716
4 1 .194529 .010399 .522398
5 1 .005121 .613038 .552310
6 1 .514839 .444739 .989019
7 1 .482200 .444590 .011811
ITEM: TIMESTEP
300
ITEM: NUMBER OF ATOMS
7
ITEM: BOX BOUNDS ss ss ss
-2.9859 3.2296
-2.5531 3.4956
-1.9856 2.0052
ITEM: ATOMS id type xs ys zs
1 1 .500564 .994285 .459216
2 1 .994563 .618012 .462916
3 1 .809172 .014409 .467155
4 1 .198424 .006185 .527248
5 1 .009667 .615114 .551957
6 1 .517204 .450158 .988281
7 1 .481430 .445529 .012284
ITEM: TIMESTEP
350
ITEM: NUMBER OF ATOMS
7
ITEM: BOX BOUNDS ss ss ss
-2.9927 3.2439
-2.5497 3.4977
-1.9904 2.0057
ITEM: ATOMS id type xs ys zs
1 1 .499991 .993262 .459768
2 1 .993111 .618666 .462771
3 1 .808050 .013058 .469879
4 1 .199443 .005323 .526411
5 1 .008755 .614353 .549879
6 1 .518429 .451276 .989405
7 1 .481772 .445917 .014219
ITEM: TIMESTEP
400
ITEM: NUMBER OF ATOMS
7
ITEM: BOX BOUNDS ss ss ss
-2.9906 3.2409
-2.5455 3.4963
-2.0015 2.0051
ITEM: ATOMS id type xs ys zs
1 1 .495208 .989576 .465566
2 1 .991717 .616263 .472538
3 1 .808222 .015318 .469850
4 1 .195047 .005230 .522650
5 1 .006211 .612929 .553673
6 1 .512981 .451451 .988420
7 1 .480128 .446387 .017524
ITEM: TIMESTEP
1
ITEM: NUMBER OF ATOMS
7
ITEM: BOX BOUNDS ss ss ss
-2.9813 3.2300
-2.5207 3.4769
-1.9768 1.9871
ITEM: ATOMS id type xs ys zs
1 1 .498516 .999237 .462943
2 1 .992755 .617029 .464879
3 1 .805289 .008473 .468214
4 1 .194011 .000703 .521374
5 1 .007976 .615178 .550924
6 1 .517242 .446537 .999112
7 1 .481582 .446260 .013175
ITEM: TIMESTEP
50
ITEM: NUMBER OF ATOMS
7
ITEM: BOX BOUNDS ss ss ss
-2.9813 3.2300
-2.5463 3.5002
-1.9768 2.0104
ITEM: ATOMS id type xs ys zs
1 1 .499175 .994692 .457015
2 1 .991839 .616112 .463711
3 1 .805104 .011715 .468947
4 1 .195684 .004937 .518227
5 1 .006653 .614892 .551261
6 1 .517838 .447802 .995098
7 1 .480744 .446952 .013915
ITEM: TIMESTEP
100
ITEM: NUMBER OF ATOMS
7
ITEM: BOX BOUNDS ss ss ss
-2.9813 3.2300
-2.5516 3.5180
-1.9768 2.0171
ITEM: ATOMS id type xs ys zs
1 1 .497280 .992475 .461223
2 1 .992986 .612991 .459533
3 1 .807574 .014839 .465089
4 1 .194223 .007932 .516458
5 1 .009559 .613129 .551807
6 1 .517386 .446859 .993565
7 1 .482149 .449844 .014521
ITEM: TIMESTEP
150
ITEM: NUMBER OF ATOMS
7
ITEM: BOX BOUNDS ss ss ss
-2.9813 3.2300
-2.5544 3.5085
-1.9768 2.0165
ITEM: ATOMS id type xs ys zs
1 1 .500556 .992223 .460658
2 1 .989625 .618909 .460254
3 1 .806023 .013516 .466950
4 1 .195261 .006763 .518497
5 1 .007261 .615086 .546149
6 1 .514463 .446757 .989264
7 1 .483812 .446063 .011733
ITEM: TIMESTEP
200
ITEM: NUMBER OF ATOMS
7
ITEM: BOX BOUNDS ss ss ss
-2.9813 3.2300
-2.5533 3.5045
-1.9768 2.0094
ITEM: ATOMS id type xs ys zs
1 1 .498851 .991252 .467304
2 1 .992359 .619887 .463301
3 1 .805115 .015682 .469856
4 1 .193196 .006661 .516199
5 1 .008562 .616186 .549667
6 1 .517288 .443254 .986966
7 1 .484358 .444673 .006939
ITEM: TIMESTEP
250
ITEM: NUMBER OF ATOMS
7
ITEM: BOX BOUNDS ss ss ss
-2.9813 3.2319
-2.5531 3.4928
-1.9799 2.0133
ITEM: ATOMS id type xs ys zs
1 1 .499494 .993316 .465957
2 1 .993803 .618851 .466700
3 1 .808453 .013206 .466500
4 1 .192666 .005738 .515257
5 1 .009536 .618174 .555872
6 1 .515407 .444006 .990721
7 1 .483128 .447248 .008757
ITEM: TIMESTEP
300
ITEM: NUMBER OF ATOMS
7
ITEM: BOX BOUNDS ss ss ss
-2.9813 3.2418
-2.5510 3.4887
-1.9843 2.0098
ITEM: ATOMS id type xs ys zs
1 1 .498368 .993497 .465552
2 1 .992417 .619307 .467009
3 1 .807555 .013754 .470699
4 1 .191495 .010360 .519024
5 1 .008848 .614387 .545308
6 1 .514439 .443611 .989069
7 1 .484367 .446123 .008536
ITEM: TIMESTEP
350
ITEM: NUMBER OF ATOMS
7
ITEM: BOX BOUNDS ss ss ss
-2.9813 3.2405
-2.5552 3.4845
-1.9900 2.0101
ITEM: ATOMS id type xs ys zs
1 1 .498367 .989364 .466421
2 1 .991368 .614690 .463057
3 1 .804840 .013289 .475029
4 1 .192195 .012740 .517691
5 1 .006194 .621853 .554928
6 1 .516625 .445877 .985114
7 1 .482955 .444797 .004273
ITEM: TIMESTEP
400
ITEM: NUMBER OF ATOMS
7
ITEM: BOX BOUNDS ss ss ss
-2.9727 3.2466
-2.5556 3.4837
-1.9872 2.0163
ITEM: ATOMS id type xs ys zs
1 1 .496475 .988365 .461026
2 1 .990282 .613318 .461261
3 1 .804023 .012737 .473301
4 1 .188904 .010788 .518561
5 1 .005409 .623163 .552851
6 1 .515393 .446269 .983006
7 1 .482832 .445355 .002364
ITEM: TIMESTEP
1
ITEM: NUMBER OF ATOMS
7
ITEM: BOX BOUNDS ss ss ss
-2.9697 3.2270
-2.5256 3.4764
-1.9721 1.9871
ITEM: ATOMS id type xs ys zs
1 1 .497894 .999294 .462391
2 1 .993055 .617694 .464309
3 1 .805523 .008939 .468189
4 1 .192735 .001944 .520450
5 1 .006107 .615351 .550774
6 1 .516591 .446862 .999222
7 1 .480610 .446695 .011633
ITEM: TIMESTEP
50
ITEM: NUMBER OF ATOMS
7
ITEM: BOX BOUNDS ss ss ss
-2.9697 3.2270
-2.5494 3.5039
-1.9721 2.0115
ITEM: ATOMS id type xs ys zs
1 1 .495594 .994836 .458359
2 1 .990897 .617452 .461431
3 1 .805825 .011358 .462945
4 1 .190852 .005497 .515593
5 1 .005308 .614792 .545007
6 1 .516486 .444877 .990981
7 1 .480756 .446163 .015324
ITEM: TIMESTEP
100
ITEM: NUMBER OF ATOMS
7
ITEM: BOX BOUNDS ss ss ss
-2.9697 3.2270
-2.5495 3.5119
-1.9721 2.0165
ITEM: ATOMS id type xs ys zs
1 1 .494633 .993612 .456441
2 1 .989084 .616471 .461538
3 1 .806368 .011296 .463559
4 1 .190863 .004856 .513842
5 1 .004242 .611703 .543993
6 1 .517170 .444272 .990925
7 1 .479512 .445032 .015578
ITEM: TIMESTEP
150
ITEM: NUMBER OF ATOMS
7
ITEM: BOX BOUNDS ss ss ss
-2.9727 3.2270
-2.5541 3.5101
-1.9721 2.0204
ITEM: ATOMS id type xs ys zs
1 1 .496657 .996365 .458541
2 1 .991952 .620172 .465590
3 1 .806773 .017192 .468781
4 1 .192803 .009119 .514909
5 1 .006519 .615306 .545966
6 1 .516387 .444743 .992060
7 1 .480739 .446632 .010912
ITEM: TIMESTEP
200
ITEM: NUMBER OF ATOMS
7
ITEM: BOX BOUNDS ss ss ss
-2.9846 3.2270
-2.5555 3.5105
-1.9771 2.0128
ITEM: ATOMS id type xs ys zs
1 1 .498221 .989022 .457746
2 1 .994585 .613395 .464502
3 1 .805692 .017468 .472616
4 1 .196373 .007332 .521101
5 1 .011889 .612847 .550789
6 1 .517059 .447518 .990092
7 1 .483847 .447629 .005469
ITEM: TIMESTEP
250
ITEM: NUMBER OF ATOMS
7
ITEM: BOX BOUNDS ss ss ss
-2.9842 3.2270
-2.5562 3.5087
-1.9857 2.0137
ITEM: ATOMS id type xs ys zs
1 1 .497718 .992765 .467986
2 1 .989854 .616756 .470121
3 1 .807692 .008280 .458445
4 1 .197084 .013582 .516509
5 1 .006579 .611830 .548608
6 1 .517312 .447543 .990216
7 1 .482497 .446434 .008864
ITEM: TIMESTEP
300
ITEM: NUMBER OF ATOMS
7
ITEM: BOX BOUNDS ss ss ss
-2.9847 3.2270
-2.5510 3.5089
-1.9842 2.0150
ITEM: ATOMS id type xs ys zs
1 1 .501126 .991706 .461245
2 1 .996562 .615384 .461653
3 1 .807720 .017122 .468194
4 1 .196762 .005606 .517963
5 1 .004876 .611531 .547167
6 1 .517061 .452126 .983637
7 1 .482519 .448506 .013994
ITEM: TIMESTEP
350
ITEM: NUMBER OF ATOMS
7
ITEM: BOX BOUNDS ss ss ss
-2.9924 3.2346
-2.5519 3.5029
-1.9924 2.0116
ITEM: ATOMS id type xs ys zs
1 1 .501924 .993844 .464834
2 1 .996210 .614328 .464423
3 1 .808377 .017323 .468242
4 1 .196120 .006485 .517101
5 1 .006732 .609863 .550151
6 1 .517090 .452889 .981548
7 1 .482639 .447822 .017456
ITEM: TIMESTEP
400
ITEM: NUMBER OF ATOMS
7
ITEM: BOX BOUNDS ss ss ss
-2.9901 3.2313
-2.5484 3.4979
-1.9944 2.0106
ITEM: ATOMS id type xs ys zs
1 1 .499974 .990706 .459185
2 1 .992766 .613971 .466097
3 1 .804892 .010817 .467275
4 1 .191954 .007976 .519283
5 1 .005856 .611712 .542319
6 1 .514359 .445409 .983848
7 1 .483025 .446117 .006527
ITEM: TIMESTEP
1
ITEM: NUMBER OF ATOMS
7
ITEM: BOX BOUNDS ss ss ss
-2.9818 3.2153
-2.5369 3.4768
-1.9862 1.9875
ITEM: ATOMS id type xs ys zs
1 1 .499827 .999284 .463832
2 1 .995248 .618161 .465450
3 1 .807447 .010877 .469518
4 1 .194779 .003345 .522297
5 1 .008434 .616272 .552022
6 1 .518340 .448013 .998859
7 1 .482743 .447493 .015128
ITEM: TIMESTEP
50
ITEM: NUMBER OF ATOMS
7
ITEM: BOX BOUNDS ss ss ss
-2.9818 3.2153
-2.5456 3.5020
-1.9862 2.0112
ITEM: ATOMS id type xs ys zs
1 1 .501787 .994943 .461042
2 1 .993173 .614893 .461872
3 1 .808109 .011720 .468949
4 1 .196304 .005540 .519267
5 1 .008955 .611899 .552368
6 1 .519999 .446489 .994688
7 1 .483323 .447264 .012405
ITEM: TIMESTEP
100
ITEM: NUMBER OF ATOMS
7
ITEM: BOX BOUNDS ss ss ss
-2.9818 3.2193
-2.5542 3.5153
-1.9862 2.0225
ITEM: ATOMS id type xs ys zs
1 1 .501909 .991532 .456742
2 1 .995321 .612499 .460675
3 1 .805531 .011947 .467558
4 1 .194954 .004247 .519140
5 1 .009423 .610816 .551137
6 1 .516899 .448021 .986662
7 1 .481218 .445386 .013784
ITEM: TIMESTEP
150
ITEM: NUMBER OF ATOMS
7
ITEM: BOX BOUNDS ss ss ss
-2.9818 3.2229
-2.5624 3.5143
-1.9862 2.0295
ITEM: ATOMS id type xs ys zs
1 1 .494910 .993601 .459093
2 1 .991023 .614823 .461716
3 1 .808620 .015467 .464620
4 1 .196147 .009983 .515462
5 1 .007436 .614390 .548670
6 1 .517661 .450465 .983218
7 1 .480545 .448475 .010086
ITEM: TIMESTEP
200
ITEM: NUMBER OF ATOMS
7
ITEM: BOX BOUNDS ss ss ss
-2.9818 3.2269
-2.5639 3.5180
-1.9862 2.0167
ITEM: ATOMS id type xs ys zs
1 1 .495838 .993708 .458069
2 1 .991818 .613522 .464124
3 1 .808651 .015450 .466417
4 1 .195790 .006378 .516496
5 1 .009648 .613971 .551309
6 1 .516421 .453199 .985353
7 1 .479539 .450156 .012822
ITEM: TIMESTEP
250
ITEM: NUMBER OF ATOMS
7
ITEM: BOX BOUNDS ss ss ss
-2.9818 3.2358
-2.5653 3.5189
-1.9862 2.0145
ITEM: ATOMS id type xs ys zs
1 1 .498758 .990089 .462584
2 1 .991841 .615454 .463891
3 1 .805901 .015380 .468183
4 1 .194087 .009606 .518258
5 1 .004710 .608389 .553143
6 1 .514405 .450741 .991078
7 1 .482513 .446243 .018738
ITEM: TIMESTEP
300
ITEM: NUMBER OF ATOMS
7
ITEM: BOX BOUNDS ss ss ss
-2.9875 3.2287
-2.5616 3.5126
-1.9862 2.0132
ITEM: ATOMS id type xs ys zs
1 1 .496831 .990554 .464604
2 1 .995317 .613615 .472241
3 1 .805935 .013029 .467431
4 1 .196804 .011239 .521593
5 1 .008069 .611937 .548953
6 1 .516125 .447760 .987382
7 1 .484256 .447116 .012665
ITEM: TIMESTEP
350
ITEM: NUMBER OF ATOMS
7
ITEM: BOX BOUNDS ss ss ss
-2.9928 3.2273
-2.5675 3.5039
-1.9862 2.0226
ITEM: ATOMS id type xs ys zs
1 1 .493868 .991127 .463192
2 1 .996067 .615129 .467499
3 1 .806397 .012859 .462894
4 1 .196868 .013280 .522066
5 1 .007549 .613212 .548615
6 1 .516582 .450942 .983009
7 1 .482250 .447566 .012467
ITEM: TIMESTEP
400
ITEM: NUMBER OF ATOMS
7
ITEM: BOX BOUNDS ss ss ss
-2.9944 3.2357
-2.5588 3.5047
-1.9862 2.0068
ITEM: ATOMS id type xs ys zs
1 1 .497258 .993147 .462441
2 1 .992058 .618584 .473296
3 1 .811235 .015329 .467143
4 1 .197059 .008803 .528913
5 1 .007136 .615828 .552207
6 1 .518077 .450272 .979129
7 1 .481739 .445302 .011363
ITEM: TIMESTEP
1
ITEM: NUMBER OF ATOMS
7
ITEM: BOX BOUNDS ss ss ss
-2.9818 3.2282
-2.5369 3.4767
-1.9862 1.9879
ITEM: ATOMS id type xs ys zs
1 1 .498769 .999358 .464255
2 1 .992982 .618199 .465864
3 1 .805949 .011096 .469481
4 1 .194195 .003577 .522093
5 1 .008257 .616117 .551197
6 1 .517193 .448173 .998898
7 1 .481613 .447540 .015323
ITEM: TIMESTEP
50
ITEM: NUMBER OF ATOMS
7
ITEM: BOX BOUNDS ss ss ss
-2.9818 3.2282
-2.5464 3.5006
-1.9862 2.0196
ITEM: ATOMS id type xs ys zs
1 1 .496573 .996549 .456680
2 1 .992549 .617352 .461197
3 1 .805283 .012345 .468248
4 1 .195083 .003203 .519083
5 1 .008998 .615897 .546857
6 1 .517214 .447817 .990036
7 1 .483013 .446225 .014459
ITEM: TIMESTEP
100
ITEM: NUMBER OF ATOMS
7
ITEM: BOX BOUNDS ss ss ss
-2.9818 3.2282
-2.5594 3.5126
-1.9862 2.0217
ITEM: ATOMS id type xs ys zs
1 1 .500690 .992882 .455812
2 1 .989969 .614765 .464852
3 1 .805821 .012170 .464351
4 1 .195189 .006708 .514297
5 1 .008646 .617147 .546219
6 1 .518434 .445477 .986049
7 1 .481294 .449817 .012920
ITEM: TIMESTEP
150
ITEM: NUMBER OF ATOMS
7
ITEM: BOX BOUNDS ss ss ss
-2.9818 3.2303
-2.5640 3.5360
-1.9862 2.0251
ITEM: ATOMS id type xs ys zs
1 1 .499319 .986947 .458913
2 1 .992948 .617132 .462471
3 1 .805681 .015327 .466924
4 1 .194811 .009369 .518132
5 1 .005367 .610854 .552261
6 1 .514626 .442368 .984378
7 1 .477802 .447297 .013079
ITEM: TIMESTEP
200
ITEM: NUMBER OF ATOMS
7
ITEM: BOX BOUNDS ss ss ss
-2.9818 3.2282
-2.5555 3.5142
-1.9862 2.0144
ITEM: ATOMS id type xs ys zs
1 1 .498289 .992693 .461651
2 1 .989633 .616571 .466959
3 1 .803961 .014175 .466472
4 1 .192345 .010630 .517785
5 1 .009876 .611706 .547672
6 1 .517499 .447693 .990757
7 1 .483959 .449493 .014585
ITEM: TIMESTEP
250
ITEM: NUMBER OF ATOMS
7
ITEM: BOX BOUNDS ss ss ss
-2.9818 3.2282
-2.5625 3.5140
-1.9862 2.0220
ITEM: ATOMS id type xs ys zs
1 1 .502407 .994210 .460932
2 1 .990400 .621757 .467044
3 1 .806217 .015020 .469504
4 1 .198009 .010713 .516726
5 1 .012740 .613308 .555535
6 1 .516566 .447116 .988152
7 1 .483607 .448154 .009309
ITEM: TIMESTEP
300
ITEM: NUMBER OF ATOMS
7
ITEM: BOX BOUNDS ss ss ss
-2.9818 3.2283
-2.5538 3.5108
-1.9862 2.0120
ITEM: ATOMS id type xs ys zs
1 1 .498212 .987321 .461707
2 1 .990677 .614956 .465405
3 1 .810594 .016308 .470578
4 1 .196986 .004285 .515455
5 1 .004644 .608769 .548907
6 1 .514063 .448352 .988287
7 1 .483469 .443903 .014699
ITEM: TIMESTEP
350
ITEM: NUMBER OF ATOMS
7
ITEM: BOX BOUNDS ss ss ss
-2.9834 3.2323
-2.5523 3.5052
-1.9895 2.0086
ITEM: ATOMS id type xs ys zs
1 1 .501325 .989763 .459077
2 1 .992200 .615417 .470660
3 1 .804132 .009667 .468145
4 1 .191462 .007840 .524827
5 1 .010922 .611620 .547272
6 1 .515115 .447341 .986917
7 1 .487265 .444472 .010959
ITEM: TIMESTEP
400
ITEM: NUMBER OF ATOMS
7
ITEM: BOX BOUNDS ss ss ss
-2.9826 3.2324
-2.5551 3.5107
-1.9922 2.0066
ITEM: ATOMS id type xs ys zs
1 1 .501573 .989606 .457436
2 1 .994169 .614785 .466714
3 1 .805964 .012213 .465456
4 1 .192332 .010183 .523378
5 1 .011120 .614032 .550298
6 1 .518875 .443164 .987238
7 1 .484118 .442819 .011979
ITEM: TIMESTEP
1
ITEM: NUMBER OF ATOMS
7
ITEM: BOX BOUNDS ss ss ss
-2.9689 3.2270
-2.5204 3.4771
-1.9814 1.9926
ITEM: ATOMS id type xs ys zs
1 1 .497894 .999201 .463077
2 1 .993345 .617206 .464243
3 1 .805629 .008256 .468911
4 1 .192509 .000591 .521050
5 1 .006136 .615007 .550349
6 1 .516429 .446799 .997993
7 1 .480382 .446165 .013830
ITEM: TIMESTEP
50
ITEM: NUMBER OF ATOMS
7
ITEM: BOX BOUNDS ss ss ss
-2.9689 3.2270
-2.5475 3.5043
-1.9814 2.0138
ITEM: ATOMS id type xs ys zs
1 1 .497516 .995800 .457521
2 1 .992105 .616082 .461730
3 1 .805996 .010214 .468097
4 1 .192459 .004072 .517791
5 1 .007205 .613608 .548301
6 1 .518462 .447681 .994877
7 1 .481458 .446103 .014483
ITEM: TIMESTEP
100
ITEM: NUMBER OF ATOMS
7
ITEM: BOX BOUNDS ss ss ss
-2.9689 3.2270
-2.5588 3.5188
-1.9814 2.0192
ITEM: ATOMS id type xs ys zs
1 1 .501274 .993954 .454051
2 1 .995821 .616357 .464071
3 1 .806998 .014132 .464870
4 1 .192703 .008430 .515583
5 1 .007296 .613519 .550871
6 1 .519560 .448311 .993432
7 1 .481587 .446950 .015073
ITEM: TIMESTEP
150
ITEM: NUMBER OF ATOMS
7
ITEM: BOX BOUNDS ss ss ss
-2.9723 3.2270
-2.5559 3.5154
-1.9814 2.0265
ITEM: ATOMS id type xs ys zs
1 1 .502118 .995260 .453099
2 1 .994525 .619273 .464870
3 1 .806634 .012595 .463483
4 1 .193406 .006677 .515245
5 1 .010052 .611883 .550861
6 1 .519786 .449254 .991634
7 1 .480640 .446281 .016385
ITEM: TIMESTEP
200
ITEM: NUMBER OF ATOMS
7
ITEM: BOX BOUNDS ss ss ss
-2.9760 3.2377
-2.5588 3.5171
-1.9814 2.0192
ITEM: ATOMS id type xs ys zs
1 1 .496631 .993109 .459980
2 1 .990298 .619682 .462886
3 1 .802050 .012857 .468383
4 1 .194357 .008442 .514377
5 1 .008652 .614977 .549499
6 1 .516870 .448047 .987075
7 1 .480584 .444434 .015020
ITEM: TIMESTEP
250
ITEM: NUMBER OF ATOMS
7
ITEM: BOX BOUNDS ss ss ss
-2.9727 3.2339
-2.5586 3.5199
-1.9857 2.0154
ITEM: ATOMS id type xs ys zs
1 1 .492705 .991225 .464241
2 1 .994028 .616788 .464735
3 1 .808613 .014791 .466298
4 1 .191029 .010643 .515908
5 1 .005232 .610352 .554152
6 1 .515121 .444449 .987052
7 1 .481699 .448963 .011682
ITEM: TIMESTEP
300
ITEM: NUMBER OF ATOMS
7
ITEM: BOX BOUNDS ss ss ss
-2.9774 3.2378
-2.5590 3.5068
-1.9927 2.0127
ITEM: ATOMS id type xs ys zs
1 1 .495207 .990177 .461499
2 1 .991140 .622059 .465861
3 1 .808804 .018188 .470915
4 1 .193807 .010859 .515915
5 1 .002073 .614358 .557042
6 1 .511929 .448060 .991354
7 1 .480410 .446421 .011669
ITEM: TIMESTEP
350
ITEM: NUMBER OF ATOMS
7
ITEM: BOX BOUNDS ss ss ss
-2.9834 3.2380
-2.5690 3.4921
-1.9939 2.0036
ITEM: ATOMS id type xs ys zs
1 1 .496604 .993612 .461915
2 1 .990016 .622622 .463634
3 1 .810082 .021593 .471591
4 1 .193884 .013139 .516791
5 1 .005741 .614534 .562161
6 1 .511235 .449530 .991774
7 1 .478177 .447163 .015330
ITEM: TIMESTEP
400
ITEM: NUMBER OF ATOMS
7
ITEM: BOX BOUNDS ss ss ss
-2.9883 3.2415
-2.5659 3.4822
-1.9913 2.0032
ITEM: ATOMS id type xs ys zs
1 1 .497066 .990822 .460040
2 1 .992815 .619402 .472138
3 1 .804750 .011269 .467771
4 1 .192943 .007363 .515162
5 1 .008449 .614803 .551962
6 1 .517167 .449874 .985851
7 1 .483467 .442748 .011795
ITEM: TIMESTEP
1
ITEM: NUMBER OF ATOMS
7
ITEM: BOX BOUNDS ss ss ss
-2.9719 3.2283
-2.5374 3.4767
-1.9816 1.9926
ITEM: ATOMS id type xs ys zs
1 1 .497929 .999514 .463148
2 1 .992858 .618362 .464337
3 1 .805514 .010803 .468428
4 1 .193099 .003653 .520938
5 1 .006637 .616099 .550256
6 1 .516723 .448066 .997859
7 1 .480474 .447423 .014287
ITEM: TIMESTEP
50
ITEM: NUMBER OF ATOMS
7
ITEM: BOX BOUNDS ss ss ss
-2.9719 3.2283
-2.5497 3.5040
-1.9816 2.0140
ITEM: ATOMS id type xs ys zs
1 1 .497944 .994695 .461578
2 1 .991605 .618432 .464361
3 1 .804394 .015282 .467747
4 1 .194111 .004359 .517085
5 1 .007640 .613702 .549486
6 1 .515586 .446749 .990734
7 1 .479906 .446890 .012409
ITEM: TIMESTEP
100
ITEM: NUMBER OF ATOMS
7
ITEM: BOX BOUNDS ss ss ss
-2.9719 3.2283
-2.5547 3.5163
-1.9816 2.0233
ITEM: ATOMS id type xs ys zs
1 1 .498449 .990857 .460189
2 1 .993019 .619177 .464190
3 1 .802217 .016241 .468442
4 1 .193465 .004731 .514587
5 1 .010580 .611886 .548672
6 1 .514756 .448457 .989557
7 1 .480243 .445479 .010574
ITEM: TIMESTEP
150
ITEM: NUMBER OF ATOMS
7
ITEM: BOX BOUNDS ss ss ss
-2.9719 3.2295
-2.5610 3.5227
-1.9816 2.0259
ITEM: ATOMS id type xs ys zs
1 1 .501204 .990983 .455258
2 1 .991343 .617356 .464769
3 1 .801897 .019777 .464621
4 1 .192443 .006194 .511098
5 1 .010453 .614658 .547130
6 1 .514371 .449440 .987978
7 1 .478082 .445022 .011239
ITEM: TIMESTEP
200
ITEM: NUMBER OF ATOMS
7
ITEM: BOX BOUNDS ss ss ss
-2.9719 3.2288
-2.5595 3.5208
-1.9816 2.0325
ITEM: ATOMS id type xs ys zs
1 1 .497096 .993493 .451572
2 1 .993847 .616718 .463947
3 1 .805926 .013928 .463074
4 1 .191017 .006757 .511421
5 1 .001920 .612115 .544661
6 1 .515058 .445279 .990493
7 1 .478754 .446200 .016615
ITEM: TIMESTEP
250
ITEM: NUMBER OF ATOMS
7
ITEM: BOX BOUNDS ss ss ss
-2.9732 3.2283
-2.5616 3.5239
-1.9858 2.0391
ITEM: ATOMS id type xs ys zs
1 1 .498435 .993993 .453807
2 1 .989297 .612287 .461988
3 1 .806104 .014195 .462213
4 1 .193112 .008951 .515504
5 1 .008523 .613445 .551363
6 1 .517734 .450708 .985147
7 1 .480413 .443781 .018419
ITEM: TIMESTEP
300
ITEM: NUMBER OF ATOMS
7
ITEM: BOX BOUNDS ss ss ss
-2.9747 3.2283
-2.5562 3.5167
-1.9816 2.0344
ITEM: ATOMS id type xs ys zs
1 1 .492711 .989823 .455156
2 1 .989243 .619783 .465323
3 1 .811154 .012598 .463368
4 1 .193104 .006014 .516155
5 1 .008189 .618998 .550121
6 1 .515350 .442339 .982643
7 1 .480696 .441806 .010551
ITEM: TIMESTEP
350
ITEM: NUMBER OF ATOMS
7
ITEM: BOX BOUNDS ss ss ss
-2.9828 3.2283
-2.5556 3.5345
-1.9946 2.0267
ITEM: ATOMS id type xs ys zs
1 1 .494262 .989086 .457890
2 1 .989645 .618678 .468070
3 1 .810136 .011254 .466102
4 1 .193155 .006768 .519705
5 1 .010927 .618370 .557580
6 1 .514270 .438363 .988040
7 1 .480325 .442703 .013833
ITEM: TIMESTEP
400
ITEM: NUMBER OF ATOMS
7
ITEM: BOX BOUNDS ss ss ss
-2.9842 3.2283
-2.5555 3.5273
-1.9969 2.0274
ITEM: ATOMS id type xs ys zs
1 1 .491479 .986040 .456227
2 1 .987445 .612237 .459561
3 1 .811600 .010600 .470664
4 1 .197392 .008766 .514076
5 1 .009069 .621746 .559836
6 1 .514125 .444834 .986853
7 1 .477847 .443448 .005479
ITEM: TIMESTEP
450
ITEM: NUMBER OF ATOMS
7
ITEM: BOX BOUNDS ss ss ss
-2.9796 3.2270
-2.5625 3.5234
-2.0014 2.0294
ITEM: ATOMS id type xs ys zs
1 1 .497435 .989397 .449105
2 1 .992951 .612215 .469352
3 1 .805829 .014929 .467096
4 1 .197510 .011716 .519455
5 1 .007328 .613717 .563597
6 1 .515531 .449467 .988649
7 1 .480256 .448577 .008759
ITEM: TIMESTEP
500
ITEM: NUMBER OF ATOMS
7
ITEM: BOX BOUNDS ss ss ss
-2.9790 3.2233
-2.5645 3.5159
-1.9945 2.0318
ITEM: ATOMS id type xs ys zs
1 1 .499619 .987856 .451856
2 1 .992364 .614276 .467916
3 1 .807833 .016597 .457654
4 1 .193770 .014097 .512611
5 1 .007662 .615765 .557399
6 1 .519504 .451977 .988176
7 1 .481637 .445395 .008406
ITEM: TIMESTEP
550
ITEM: NUMBER OF ATOMS
7
ITEM: BOX BOUNDS ss ss ss
-2.9784 3.2298
-2.5573 3.5247
-2.0033 2.0390
ITEM: ATOMS id type xs ys zs
1 1 .502210 .985224 .448389
2 1 .995685 .615145 .481774
3 1 .804263 .015188 .472354
4 1 .191052 .011468 .516151
5 1 .007546 .615673 .565275
6 1 .516613 .446444 .986688
7 1 .482423 .444807 .017548
ITEM: TIMESTEP
600
ITEM: NUMBER OF ATOMS
7
ITEM: BOX BOUNDS ss ss ss
-2.9826 3.2424
-2.5449 3.5072
-2.0122 2.0258
ITEM: ATOMS id type xs ys zs
1 1 .501685 .988852 .450287
2 1 .993756 .617696 .485519
3 1 .802140 .011776 .475261
4 1 .191683 .008348 .520744
5 1 .008449 .615399 .571456
6 1 .515146 .446992 .991334
7 1 .481838 .444737 .018683
ITEM: TIMESTEP
650
ITEM: NUMBER OF ATOMS
7
ITEM: BOX BOUNDS ss ss ss
-2.9886 3.2365
-2.5440 3.5066
-2.0114 2.0318
ITEM: ATOMS id type xs ys zs
1 1 .503823 .985165 .458757
2 1 .992463 .616574 .479182
3 1 .808924 .016186 .462088
4 1 .197053 .006019 .524951
5 1 .006699 .617938 .562073
6 1 .516498 .444709 .984004
7 1 .477334 .440596 .015541
ITEM: TIMESTEP
700
ITEM: NUMBER OF ATOMS
7
ITEM: BOX BOUNDS ss ss ss
-2.9849 3.2404
-2.5481 3.5019
-2.0134 2.0363
ITEM: ATOMS id type xs ys zs
1 1 .502272 .986276 .458438
2 1 .991032 .620328 .479513
3 1 .810002 .017188 .459325
4 1 .198562 .007098 .525196
5 1 .006592 .618325 .563880
6 1 .512151 .443312 .983178
7 1 .478178 .439471 .019295
ITEM: TIMESTEP
750
ITEM: NUMBER OF ATOMS
7
ITEM: BOX BOUNDS ss ss ss
-2.9907 3.2453
-2.5481 3.5141
-2.0066 2.0424
ITEM: ATOMS id type xs ys zs
1 1 .498487 .988063 .459321
2 1 .991336 .617474 .465225
3 1 .803066 .009881 .478210
4 1 .192915 .010837 .512693
5 1 .009158 .618391 .557249
6 1 .517820 .447540 .980798
7 1 .480266 .443531 .015371
ITEM: TIMESTEP
1
ITEM: NUMBER OF ATOMS
7
ITEM: BOX BOUNDS ss ss ss
-2.9657 3.2361
-2.5238 3.4768
-1.9728 2.0052
ITEM: ATOMS id type xs ys zs
1 1 .496741 .999225 .460567
2 1 .991821 .617476 .461953
3 1 .804194 .008862 .465706
4 1 .192018 .001310 .518691
5 1 .005623 .615659 .547927
6 1 .515616 .446764 .994669
7 1 .479749 .446473 .011928
ITEM: TIMESTEP
50
ITEM: NUMBER OF ATOMS
7
ITEM: BOX BOUNDS ss ss ss
-2.9657 3.2361
-2.5478 3.5027
-1.9728 2.0136
ITEM: ATOMS id type xs ys zs
1 1 .494788 .994745 .459323
2 1 .990917 .616770 .461425
3 1 .803335 .013158 .461011
4 1 .190358 .002792 .516507
5 1 .005369 .613502 .548616
6 1 .513099 .447037 .990832
7 1 .481060 .448082 .014143
ITEM: TIMESTEP
100
ITEM: NUMBER OF ATOMS
7
ITEM: BOX BOUNDS ss ss ss
-2.9657 3.2361
-2.5611 3.5165
-1.9728 2.0292
ITEM: ATOMS id type xs ys zs
1 1 .497949 .992418 .456921
2 1 .991070 .615926 .455572
3 1 .805668 .016009 .462304
4 1 .192264 .006294 .513941
5 1 .007222 .612387 .547298
6 1 .516281 .444043 .986822
7 1 .479171 .446905 .009231
ITEM: TIMESTEP
150
ITEM: NUMBER OF ATOMS
7
ITEM: BOX BOUNDS ss ss ss
-2.9657 3.2361
-2.5611 3.5215
-1.9744 2.0208
ITEM: ATOMS id type xs ys zs
1 1 .498455 .992057 .456238
2 1 .990302 .613877 .457748
3 1 .804528 .018104 .460781
4 1 .190360 .004584 .516040
5 1 .009271 .613670 .547293
6 1 .516312 .444466 .990426
7 1 .478490 .447297 .010197
ITEM: TIMESTEP
200
ITEM: NUMBER OF ATOMS
7
ITEM: BOX BOUNDS ss ss ss
-2.9698 3.2361
-2.5627 3.5245
-1.9769 2.0274
ITEM: ATOMS id type xs ys zs
1 1 .497070 .992837 .459707
2 1 .990587 .618631 .457506
3 1 .805652 .015505 .460853
4 1 .191976 .008243 .524690
5 1 .007206 .609145 .542099
6 1 .520497 .444945 .986056
7 1 .481574 .448432 .010582
ITEM: TIMESTEP
250
ITEM: NUMBER OF ATOMS
7
ITEM: BOX BOUNDS ss ss ss
-2.9717 3.2361
-2.5790 3.5286
-1.9804 2.0243
ITEM: ATOMS id type xs ys zs
1 1 .498920 .990752 .458688
2 1 .988950 .625694 .461639
3 1 .802397 .016975 .462895
4 1 .188795 .010103 .518344
5 1 .011043 .617293 .549316
6 1 .514750 .442676 .983529
7 1 .479294 .444809 .010170
ITEM: TIMESTEP
300
ITEM: NUMBER OF ATOMS
7
ITEM: BOX BOUNDS ss ss ss
-2.9761 3.2361
-2.5594 3.5192
-1.9795 2.0225
ITEM: ATOMS id type xs ys zs
1 1 .495663 .992886 .454536
2 1 .987630 .613853 .462230
3 1 .807451 .013116 .464967
4 1 .195011 .011433 .512747
5 1 .011041 .614938 .551629
6 1 .516917 .443414 .989232
7 1 .477968 .448486 .006292
ITEM: TIMESTEP
350
ITEM: NUMBER OF ATOMS
7
ITEM: BOX BOUNDS ss ss ss
-2.9843 3.2361
-2.5528 3.5184
-1.9812 2.0148
ITEM: ATOMS id type xs ys zs
1 1 .499292 .988965 .455940
2 1 .992147 .612780 .466787
3 1 .803533 .014014 .465641
4 1 .196581 .014345 .517288
5 1 .005646 .616637 .546781
6 1 .517390 .447784 .986599
7 1 .485886 .446472 .007854
ITEM: TIMESTEP
400
ITEM: NUMBER OF ATOMS
7
ITEM: BOX BOUNDS ss ss ss
-2.9911 3.2361
-2.5444 3.5052
-1.9975 2.0065
ITEM: ATOMS id type xs ys zs
1 1 .497855 .990204 .457869
2 1 .993029 .615681 .475034
3 1 .809520 .013026 .467720
4 1 .193120 .008684 .524112
5 1 .008319 .615653 .549638
6 1 .517152 .447570 .987671
7 1 .488044 .444940 .011433
ITEM: TIMESTEP
1
ITEM: NUMBER OF ATOMS
7
ITEM: BOX BOUNDS ss ss ss
-2.9657 3.2361
-2.5238 3.4765
-1.9792 2.0052
ITEM: ATOMS id type xs ys zs
1 1 .496729 .999691 .461269
2 1 .991612 .617629 .462415
3 1 .804629 .008823 .466501
4 1 .191854 .001270 .518804
5 1 .005205 .615228 .549030
6 1 .515704 .446818 .994634
7 1 .479826 .446370 .013827
ITEM: TIMESTEP
50
ITEM: NUMBER OF ATOMS
7
ITEM: BOX BOUNDS ss ss ss
-2.9657 3.2361
-2.5479 3.5061
-1.9792 2.0133
ITEM: ATOMS id type xs ys zs
1 1 .498757 .996657 .460001
2 1 .991471 .613911 .461904
3 1 .804585 .012948 .465832
4 1 .193687 .003908 .518474
5 1 .006243 .614888 .544850
6 1 .513968 .446739 .994662
7 1 .479197 .446360 .014249
ITEM: TIMESTEP
100
ITEM: NUMBER OF ATOMS
7
ITEM: BOX BOUNDS ss ss ss
-2.9657 3.2361
-2.5563 3.5157
-1.9792 2.0242
ITEM: ATOMS id type xs ys zs
1 1 .496115 .991487 .457374
2 1 .992348 .617257 .462168
3 1 .803374 .013166 .466937
4 1 .195999 .005794 .511858
5 1 .004658 .611080 .548747
6 1 .513531 .447032 .987039
7 1 .478416 .448183 .011837
ITEM: TIMESTEP
150
ITEM: NUMBER OF ATOMS
7
ITEM: BOX BOUNDS ss ss ss
-2.9657 3.2361
-2.5620 3.5227
-1.9792 2.0302
ITEM: ATOMS id type xs ys zs
1 1 .494757 .991345 .453870
2 1 .993047 .614917 .464531
3 1 .802233 .016243 .464127
4 1 .195784 .005500 .510690
5 1 .003461 .611643 .546859
6 1 .513755 .446103 .985710
7 1 .479455 .449514 .009396
ITEM: TIMESTEP
200
ITEM: NUMBER OF ATOMS
7
ITEM: BOX BOUNDS ss ss ss
-2.9707 3.2361
-2.5577 3.5145
-1.9792 2.0253
ITEM: ATOMS id type xs ys zs
1 1 .495153 .996002 .454222
2 1 .994215 .618032 .467405
3 1 .808578 .016363 .468059
4 1 .193184 .010369 .515058
5 1 .005708 .614246 .551098
6 1 .516889 .447671 .986885
7 1 .482480 .445653 .013709
ITEM: TIMESTEP
250
ITEM: NUMBER OF ATOMS
7
ITEM: BOX BOUNDS ss ss ss
-2.9770 3.2361
-2.5442 3.5100
-1.9792 2.0195
ITEM: ATOMS id type xs ys zs
1 1 .499057 .995294 .453955
2 1 .991063 .619890 .470196
3 1 .810539 .014861 .468730
4 1 .193545 .010397 .514433
5 1 .009366 .617820 .559537
6 1 .515239 .444742 .988795
7 1 .482098 .446265 .015938
ITEM: TIMESTEP
300
ITEM: NUMBER OF ATOMS
7
ITEM: BOX BOUNDS ss ss ss
-2.9735 3.2361
-2.5438 3.5122
-1.9792 2.0199
ITEM: ATOMS id type xs ys zs
1 1 .497786 .997022 .450726
2 1 .990003 .619122 .469210
3 1 .809371 .015516 .469272
4 1 .195658 .009885 .513684
5 1 .010726 .616278 .561688
6 1 .515986 .444775 .989001
7 1 .481878 .447146 .018668
ITEM: TIMESTEP
350
ITEM: NUMBER OF ATOMS
7
ITEM: BOX BOUNDS ss ss ss
-2.9814 3.2361
-2.5472 3.5177
-1.9833 2.0332
ITEM: ATOMS id type xs ys zs
1 1 .496781 .988380 .450474
2 1 .989663 .619869 .463654
3 1 .808080 .011983 .464865
4 1 .198359 .009303 .507313
5 1 .007898 .617044 .558515
6 1 .518662 .448556 .983845
7 1 .483104 .444693 .014741
ITEM: TIMESTEP
400
ITEM: NUMBER OF ATOMS
7
ITEM: BOX BOUNDS ss ss ss
-2.9862 3.2428
-2.5513 3.5132
-1.9887 2.0159
ITEM: ATOMS id type xs ys zs
1 1 .494138 .990224 .462982
2 1 .989050 .618815 .468164
3 1 .809539 .016681 .468395
4 1 .196219 .011095 .511591
5 1 .007686 .618200 .559081
6 1 .515398 .450854 .987769
7 1 .479036 .444862 .010136
ITEM: TIMESTEP
1
ITEM: NUMBER OF ATOMS
7
ITEM: BOX BOUNDS ss ss ss
-2.9807 3.2361
-2.5238 3.4769
-1.9869 2.0052
ITEM: ATOMS id type xs ys zs
1 1 .497615 .999350 .462641