ITEM: TIMESTEP
1
ITEM: NUMBER OF ATOMS
7
ITEM: BOX BOUNDS ss ss ss
-2.9354 3.1889
-2.5203 3.4777
-1.9297 1.9876
ITEM: ATOMS id type xs ys zs
1 1 .498066 .999058 .456767
2 1 .999312 .617133 .457897
3 1 .809523 .008346 .462037
4 1 .189485 .000715 .515422
5 1 .000633 .615016 .545312
6 1 .517069 .446606 .998770
7 1 .480779 .446062 .000976
ITEM: TIMESTEP
50
ITEM: NUMBER OF ATOMS
7
ITEM: BOX BOUNDS ss ss ss
-2.9571 3.2113
-2.5462 3.4991
-1.9533 2.0110
ITEM: ATOMS id type xs ys zs
1 1 .497494 .993296 .461013
2 1 .995830 .616586 .459771
3 1 .807356 .013132 .464550
4 1 .191127 .005487 .515571
5 1 .003743 .614330 .544628
6 1 .518583 .447480 .989601
7 1 .481271 .446240 .006494
ITEM: TIMESTEP
100
ITEM: NUMBER OF ATOMS
7
ITEM: BOX BOUNDS ss ss ss
-2.9623 3.2182
-2.5493 3.5089
-1.9595 2.0174
ITEM: ATOMS id type xs ys zs
1 1 .497285 .991256 .460931
2 1 .993938 .616378 .456509
3 1 .807268 .012390 .462840
4 1 .190923 .007044 .516535
5 1 .004780 .612344 .543842
6 1 .517453 .447797 .987730
7 1 .481654 .445826 .007077
ITEM: TIMESTEP
150
ITEM: NUMBER OF ATOMS
7
ITEM: BOX BOUNDS ss ss ss
-2.9734 3.2204
-2.5511 3.5092
-1.9697 2.0106
ITEM: ATOMS id type xs ys zs
1 1 .497601 .990500 .463708
2 1 .993326 .616591 .460423
3 1 .808054 .012679 .466310
4 1 .192680 .008502 .520615
5 1 .006348 .613435 .545933
6 1 .516778 .448601 .988544
7 1 .482911 .445463 .008780
ITEM: TIMESTEP
200
ITEM: NUMBER OF ATOMS
7
ITEM: BOX BOUNDS ss ss ss
-2.9849 3.2335
-2.5594 3.5030
-1.9763 2.0158
ITEM: ATOMS id type xs ys zs
1 1 .497272 .991844 .467446
2 1 .991856 .616274 .459022
3 1 .807940 .013465 .467458
4 1 .193363 .011435 .517472
5 1 .007633 .614571 .550054
6 1 .517750 .448478 .985398
7 1 .480452 .446543 .009111
ITEM: TIMESTEP
250
ITEM: NUMBER OF ATOMS
7
ITEM: BOX BOUNDS ss ss ss
-2.9803 3.2307
-2.5577 3.5055
-1.9811 2.0111
ITEM: ATOMS id type xs ys zs
1 1 .496834 .990046 .468787
2 1 .994379 .616558 .459090
3 1 .808790 .012425 .466767
4 1 .193324 .010925 .518516
5 1 .005010 .612900 .552871
6 1 .517736 .447611 .984433
7 1 .481494 .445524 .010706
ITEM: TIMESTEP
300
ITEM: NUMBER OF ATOMS
7
ITEM: BOX BOUNDS ss ss ss
-2.9859 3.2296
-2.5531 3.4956
-1.9856 2.0052
ITEM: ATOMS id type xs ys zs
1 1 .498572 .989490 .472107
2 1 .993378 .617331 .460890
3 1 .808004 .014791 .470071
4 1 .193763 .009970 .521999
5 1 .006924 .613697 .547691
6 1 .517965 .448908 .990289
7 1 .482913 .447358 .010425
ITEM: TIMESTEP
350
ITEM: NUMBER OF ATOMS
7
ITEM: BOX BOUNDS ss ss ss
-2.9927 3.2439
-2.5497 3.4977
-1.9904 2.0057
ITEM: ATOMS id type xs ys zs
1 1 .497568 .989663 .472927
2 1 .990732 .617610 .462390
3 1 .807072 .012774 .468755
4 1 .194884 .009152 .524974
5 1 .007344 .615816 .546580
6 1 .515584 .448464 .985181
7 1 .481412 .445945 .010499
ITEM: TIMESTEP
400
ITEM: NUMBER OF ATOMS
7
ITEM: BOX BOUNDS ss ss ss
-2.9906 3.2409
-2.5455 3.4963
-2.0015 2.0051
ITEM: ATOMS id type xs ys zs
1 1 .497808 .989080 .475515
2 1 .993446 .616576 .462859
3 1 .806932 .013455 .470920
4 1 .193884 .009725 .526581
5 1 .006665 .614898 .547878
6 1 .517051 .449354 .984953
7 1 .481504 .445961 .013310
ITEM: TIMESTEP
1
ITEM: NUMBER OF ATOMS
7
ITEM: BOX BOUNDS ss ss ss
-2.9813 3.2300
-2.5207 3.4769
-1.9768 1.9871
ITEM: ATOMS id type xs ys zs
1 1 .498481 .999163 .463315
2 1 .992688 .617227 .464376
3 1 .805595 .008420 .468500
4 1 .194226 .000796 .521255
5 1 .008005 .615115 .550768
6 1 .517200 .446692 .998892
7 1 .481445 .446165 .012824
ITEM: TIMESTEP
50
ITEM: NUMBER OF ATOMS
7
ITEM: BOX BOUNDS ss ss ss
-2.9813 3.2300
-2.5463 3.5002
-1.9768 2.0104
ITEM: ATOMS id type xs ys zs
1 1 .499644 .994176 .462097
2 1 .992606 .615927 .463561
3 1 .806604 .011756 .469271
4 1 .193722 .008249 .518583
5 1 .009624 .614794 .545219
6 1 .516974 .447656 .991763
7 1 .481910 .445942 .010876
ITEM: TIMESTEP
100
ITEM: NUMBER OF ATOMS
7
ITEM: BOX BOUNDS ss ss ss
-2.9813 3.2300
-2.5516 3.5180
-1.9768 2.0171
ITEM: ATOMS id type xs ys zs
1 1 .499234 .989207 .467849
2 1 .993961 .616306 .462807
3 1 .807322 .011940 .467147
4 1 .194531 .006629 .517655
5 1 .009515 .612518 .548235
6 1 .517895 .443982 .988593
7 1 .483222 .443807 .010575
ITEM: TIMESTEP
150
ITEM: NUMBER OF ATOMS
7
ITEM: BOX BOUNDS ss ss ss
-2.9813 3.2300
-2.5544 3.5085
-1.9768 2.0165
ITEM: ATOMS id type xs ys zs
1 1 .498693 .988527 .469277
2 1 .993512 .616945 .463135
3 1 .808370 .013630 .468711
4 1 .193790 .007526 .516126
5 1 .008528 .613233 .548012
6 1 .517810 .445182 .987707
7 1 .482268 .444333 .010947
ITEM: TIMESTEP
200
ITEM: NUMBER OF ATOMS
7
ITEM: BOX BOUNDS ss ss ss
-2.9813 3.2300
-2.5533 3.5045
-1.9768 2.0094
ITEM: ATOMS id type xs ys zs
1 1 .500484 .988791 .470286
2 1 .993724 .613657 .466718
3 1 .808637 .012127 .470024
4 1 .197389 .006665 .520132
5 1 .007233 .611941 .547590
6 1 .516720 .446984 .987623
7 1 .483804 .444066 .006388
ITEM: TIMESTEP
250
ITEM: NUMBER OF ATOMS
7
ITEM: BOX BOUNDS ss ss ss
-2.9813 3.2319
-2.5531 3.4928
-1.9799 2.0133
ITEM: ATOMS id type xs ys zs
1 1 .499380 .989094 .474464
2 1 .994554 .619142 .461404
3 1 .808936 .013475 .468745
4 1 .195984 .007754 .514119
5 1 .009553 .614939 .550863
6 1 .517928 .445073 .986073
7 1 .483593 .447161 .009557
ITEM: TIMESTEP
300
ITEM: NUMBER OF ATOMS
7
ITEM: BOX BOUNDS ss ss ss
-2.9813 3.2418
-2.5510 3.4887
-1.9843 2.0098
ITEM: ATOMS id type xs ys zs
1 1 .496822 .992648 .477406
2 1 .990864 .619275 .462459
3 1 .807018 .016792 .468613
4 1 .192938 .010069 .520903
5 1 .007404 .613578 .548269
6 1 .512705 .447566 .985187
7 1 .480380 .449602 .005479
ITEM: TIMESTEP
350
ITEM: NUMBER OF ATOMS
7
ITEM: BOX BOUNDS ss ss ss
-2.9813 3.2405
-2.5552 3.4845
-1.9900 2.0101
ITEM: ATOMS id type xs ys zs
1 1 .498224 .991790 .482076
2 1 .991363 .619334 .468999
3 1 .808324 .016747 .469871
4 1 .194503 .011497 .523517
5 1 .006623 .616071 .550956
6 1 .513011 .448627 .987423
7 1 .480960 .450443 .008082
ITEM: TIMESTEP
400
ITEM: NUMBER OF ATOMS
7
ITEM: BOX BOUNDS ss ss ss
-2.9727 3.2466
-2.5556 3.4837
-1.9872 2.0163
ITEM: ATOMS id type xs ys zs
1 1 .497862 .990516 .476636
2 1 .992630 .619039 .462097
3 1 .805823 .012218 .471581
4 1 .191163 .012116 .521962
5 1 .007447 .618082 .549748
6 1 .516292 .447531 .987243
7 1 .482926 .446973 .013346
ITEM: TIMESTEP
1
ITEM: NUMBER OF ATOMS
7
ITEM: BOX BOUNDS ss ss ss
-2.9697 3.2270
-2.5256 3.4764
-1.9721 1.9871
ITEM: ATOMS id type xs ys zs
1 1 .497788 .999264 .462668
2 1 .993179 .617601 .463768
3 1 .805599 .009241 .467861
4 1 .192822 .001600 .520696
5 1 .006155 .615485 .550235
6 1 .516557 .447177 .998878
7 1 .480701 .446649 .011676
ITEM: TIMESTEP
50
ITEM: NUMBER OF ATOMS
7
ITEM: BOX BOUNDS ss ss ss
-2.9697 3.2270
-2.5494 3.5039
-1.9721 2.0115
ITEM: ATOMS id type xs ys zs
1 1 .498246 .992527 .460793
2 1 .993179 .616210 .459975
3 1 .805641 .013539 .466436
4 1 .193577 .005112 .519166
5 1 .005218 .613254 .546096
6 1 .515396 .447703 .989157
7 1 .480532 .445824 .008870
ITEM: TIMESTEP
100
ITEM: NUMBER OF ATOMS
7
ITEM: BOX BOUNDS ss ss ss
-2.9697 3.2270
-2.5495 3.5119
-1.9721 2.0165
ITEM: ATOMS id type xs ys zs
1 1 .499577 .990325 .459412
2 1 .993842 .614500 .458038
3 1 .806297 .013095 .467819
4 1 .193735 .006462 .519028
5 1 .005907 .612280 .546835
6 1 .515595 .447736 .987799
7 1 .481431 .444727 .007608
ITEM: TIMESTEP
150
ITEM: NUMBER OF ATOMS
7
ITEM: BOX BOUNDS ss ss ss
-2.9727 3.2270
-2.5541 3.5101
-1.9721 2.0204
ITEM: ATOMS id type xs ys zs
1 1 .498298 .990538 .460065
2 1 .993882 .617117 .457625
3 1 .804988 .012525 .470315
4 1 .194099 .008611 .520805
5 1 .006223 .613435 .545432
6 1 .516598 .448279 .984468
7 1 .482119 .446779 .007151
ITEM: TIMESTEP
200
ITEM: NUMBER OF ATOMS
7
ITEM: BOX BOUNDS ss ss ss
-2.9846 3.2270
-2.5555 3.5105
-1.9771 2.0128
ITEM: ATOMS id type xs ys zs
1 1 .498992 .990243 .463249
2 1 .993625 .617213 .461554
3 1 .806738 .014244 .468263
4 1 .195401 .008188 .521420
5 1 .006854 .613938 .543717
6 1 .518379 .449375 .985851
7 1 .482619 .445478 .008375
ITEM: TIMESTEP
250
ITEM: NUMBER OF ATOMS
7
ITEM: BOX BOUNDS ss ss ss
-2.9842 3.2270
-2.5562 3.5087
-1.9857 2.0137
ITEM: ATOMS id type xs ys zs
1 1 .497650 .989434 .464750
2 1 .993603 .615438 .463158
3 1 .807790 .015562 .475089
4 1 .195313 .008524 .519509
5 1 .007038 .612770 .544615
6 1 .515156 .448600 .985973
7 1 .483245 .445653 .008506
ITEM: TIMESTEP
300
ITEM: NUMBER OF ATOMS
7
ITEM: BOX BOUNDS ss ss ss
-2.9847 3.2270
-2.5510 3.5089
-1.9842 2.0150
ITEM: ATOMS id type xs ys zs
1 1 .499503 .988800 .464713
2 1 .994829 .617347 .463483
3 1 .806126 .017481 .473683
4 1 .194405 .009391 .521791
5 1 .005062 .611259 .544368
6 1 .515551 .451343 .986466
7 1 .481981 .445277 .010616
ITEM: TIMESTEP
350
ITEM: NUMBER OF ATOMS
7
ITEM: BOX BOUNDS ss ss ss
-2.9924 3.2346
-2.5519 3.5029
-1.9924 2.0116
ITEM: ATOMS id type xs ys zs
1 1 .496721 .989191 .466230
2 1 .989669 .616817 .466785
3 1 .804615 .014118 .479943
4 1 .194142 .007899 .520821
5 1 .004960 .613172 .541128
6 1 .512709 .451757 .985908
7 1 .480904 .444514 .009498
ITEM: TIMESTEP
400
ITEM: NUMBER OF ATOMS
7
ITEM: BOX BOUNDS ss ss ss
-2.9901 3.2313
-2.5484 3.4979
-1.9944 2.0106
ITEM: ATOMS id type xs ys zs
1 1 .497138 .990577 .469618
2 1 .992199 .617958 .465797
3 1 .806834 .013819 .479037
4 1 .193856 .009964 .519951
5 1 .005297 .613911 .544497
6 1 .514325 .451077 .987172
7 1 .481121 .445172 .011770
ITEM: TIMESTEP
1
ITEM: NUMBER OF ATOMS
7
ITEM: BOX BOUNDS ss ss ss
-2.9818 3.2153
-2.5369 3.4768
-1.9862 1.9875
ITEM: ATOMS id type xs ys zs
1 1 .499710 .999189 .464469
2 1 .995049 .618274 .465602
3 1 .807497 .011110 .469695
4 1 .194766 .003484 .522321
5 1 .008115 .616162 .551781
6 1 .518478 .448201 .998778
7 1 .482613 .447664 .015152
ITEM: TIMESTEP
50
ITEM: NUMBER OF ATOMS
7
ITEM: BOX BOUNDS ss ss ss
-2.9818 3.2153
-2.5456 3.5020
-1.9862 2.0112
ITEM: ATOMS id type xs ys zs
1 1 .499962 .993673 .462546
2 1 .995432 .616054 .462526
3 1 .807817 .013176 .468345
4 1 .194808 .005784 .519431
5 1 .007711 .613918 .548206
6 1 .517876 .448049 .991069
7 1 .481977 .446451 .014427
ITEM: TIMESTEP
100
ITEM: NUMBER OF ATOMS
7
ITEM: BOX BOUNDS ss ss ss
-2.9818 3.2193
-2.5542 3.5153
-1.9862 2.0225
ITEM: ATOMS id type xs ys zs
1 1 .499498 .987799 .464570
2 1 .993751 .614867 .460779
3 1 .807547 .013599 .463848
4 1 .192652 .008533 .518893
5 1 .008766 .613361 .545564
6 1 .517358 .446249 .989766
7 1 .483213 .445327 .016854
ITEM: TIMESTEP
150
ITEM: NUMBER OF ATOMS
7
ITEM: BOX BOUNDS ss ss ss
-2.9818 3.2229
-2.5624 3.5143
-1.9862 2.0295
ITEM: ATOMS id type xs ys zs
1 1 .501451 .990837 .459189
2 1 .994663 .614277 .455398
3 1 .807447 .014778 .467298
4 1 .194753 .011575 .517572
5 1 .007501 .614572 .545190
6 1 .517585 .449551 .986315
7 1 .481373 .446939 .014420
ITEM: TIMESTEP
200
ITEM: NUMBER OF ATOMS
7
ITEM: BOX BOUNDS ss ss ss
-2.9818 3.2269
-2.5639 3.5180
-1.9862 2.0167
ITEM: ATOMS id type xs ys zs
1 1 .498040 .987844 .466824
2 1 .992982 .614941 .461638
3 1 .805126 .017266 .466181
4 1 .192842 .010605 .517089
5 1 .006737 .612411 .546568
6 1 .517026 .447073 .988497
7 1 .482901 .447624 .014319
ITEM: TIMESTEP
250
ITEM: NUMBER OF ATOMS
7
ITEM: BOX BOUNDS ss ss ss
-2.9818 3.2358
-2.5653 3.5189
-1.9862 2.0145
ITEM: ATOMS id type xs ys zs
1 1 .497468 .987040 .465785
2 1 .990803 .616160 .467049
3 1 .807824 .015465 .468963
4 1 .194624 .011094 .519564
5 1 .003654 .613090 .553251
6 1 .515491 .451779 .988009
7 1 .480781 .445529 .016002
ITEM: TIMESTEP
300
ITEM: NUMBER OF ATOMS
7
ITEM: BOX BOUNDS ss ss ss
-2.9875 3.2287
-2.5616 3.5126
-1.9862 2.0132
ITEM: ATOMS id type xs ys zs
1 1 .496287 .988699 .467303
2 1 .992393 .618454 .462234
3 1 .807028 .011567 .467332
4 1 .195116 .010086 .523987
5 1 .005067 .613963 .548008
6 1 .515344 .449501 .981366
7 1 .483860 .446854 .013387
ITEM: TIMESTEP
350
ITEM: NUMBER OF ATOMS
7
ITEM: BOX BOUNDS ss ss ss
-2.9928 3.2273
-2.5675 3.5039
-1.9862 2.0226
ITEM: ATOMS id type xs ys zs
1 1 .496529 .991323 .470434
2 1 .996898 .617342 .464554
3 1 .808451 .014162 .466119
4 1 .195096 .012118 .520550
5 1 .005133 .615992 .548596
6 1 .517470 .449967 .977480
7 1 .483508 .447884 .011988
ITEM: TIMESTEP
400
ITEM: NUMBER OF ATOMS
7
ITEM: BOX BOUNDS ss ss ss
-2.9944 3.2357
-2.5588 3.5047
-1.9862 2.0068
ITEM: ATOMS id type xs ys zs
1 1 .496394 .990434 .473142
2 1 .996348 .617055 .466519
3 1 .808063 .013009 .471614
4 1 .194375 .011871 .524277
5 1 .006218 .616311 .550572
6 1 .518312 .450933 .983713
7 1 .484562 .447062 .013289
ITEM: TIMESTEP
1
ITEM: NUMBER OF ATOMS
7
ITEM: BOX BOUNDS ss ss ss
-2.9818 3.2282
-2.5369 3.4767
-1.9862 1.9879
ITEM: ATOMS id type xs ys zs
1 1 .498664 .999226 .464455
2 1 .992982 .618305 .465593
3 1 .805819 .011113 .469650
4 1 .194345 .003500 .522280
5 1 .008095 .616188 .551729
6 1 .517404 .448209 .998710
7 1 .481613 .447672 .015132
ITEM: TIMESTEP
50
ITEM: NUMBER OF ATOMS
7
ITEM: BOX BOUNDS ss ss ss
-2.9818 3.2282
-2.5464 3.5006
-1.9862 2.0196
ITEM: ATOMS id type xs ys zs
1 1 .498402 .994170 .462011
2 1 .993213 .614584 .462358
3 1 .806189 .013677 .467419
4 1 .194396 .006026 .518337
5 1 .008008 .612928 .548456
6 1 .518108 .447154 .987484
7 1 .481156 .446005 .011754
ITEM: TIMESTEP
100
ITEM: NUMBER OF ATOMS
7
ITEM: BOX BOUNDS ss ss ss
-2.9818 3.2282
-2.5594 3.5126
-1.9862 2.0217
ITEM: ATOMS id type xs ys zs
1 1 .499087 .990511 .466487
2 1 .990825 .617394 .464778
3 1 .807020 .013610 .465854
4 1 .194106 .008451 .521523
5 1 .008711 .613130 .548181
6 1 .516758 .448068 .987309
7 1 .480545 .448786 .013616
ITEM: TIMESTEP
150
ITEM: NUMBER OF ATOMS
7
ITEM: BOX BOUNDS ss ss ss
-2.9818 3.2303
-2.5640 3.5360
-1.9862 2.0251
ITEM: ATOMS id type xs ys zs
1 1 .498722 .988210 .467962
2 1 .991929 .616630 .459983
3 1 .809602 .018094 .465446
4 1 .196114 .010696 .519708
5 1 .008642 .611399 .547083
6 1 .516950 .445425 .986365
7 1 .481835 .448195 .014723
ITEM: TIMESTEP
200
ITEM: NUMBER OF ATOMS
7
ITEM: BOX BOUNDS ss ss ss
-2.9818 3.2282
-2.5555 3.5142
-1.9862 2.0144
ITEM: ATOMS id type xs ys zs
1 1 .496897 .991433 .472185
2 1 .992768 .617792 .460095
3 1 .809795 .016494 .464719
4 1 .195035 .008824 .522667
5 1 .009486 .612994 .550997
6 1 .516741 .446196 .987097
7 1 .483348 .448745 .015924
ITEM: TIMESTEP
250
ITEM: NUMBER OF ATOMS
7
ITEM: BOX BOUNDS ss ss ss
-2.9818 3.2282
-2.5625 3.5140
-1.9862 2.0220
ITEM: ATOMS id type xs ys zs
1 1 .500613 .989270 .464485
2 1 .992928 .616508 .458754
3 1 .812123 .015134 .468667
4 1 .195128 .007895 .522999
5 1 .005779 .612311 .551669
6 1 .516873 .447714 .982626
7 1 .480716 .446234 .014430
ITEM: TIMESTEP
300
ITEM: NUMBER OF ATOMS
7
ITEM: BOX BOUNDS ss ss ss
-2.9818 3.2283
-2.5538 3.5108
-1.9862 2.0120
ITEM: ATOMS id type xs ys zs
1 1 .501258 .988724 .467592
2 1 .995089 .614619 .462360
3 1 .810582 .011904 .470651
4 1 .194743 .006904 .523172
5 1 .003986 .610952 .550852
6 1 .515878 .448258 .981998
7 1 .481489 .447144 .017231
ITEM: TIMESTEP
350
ITEM: NUMBER OF ATOMS
7
ITEM: BOX BOUNDS ss ss ss
-2.9834 3.2323
-2.5523 3.5052
-1.9895 2.0086
ITEM: ATOMS id type xs ys zs
1 1 .497647 .987821 .464540
2 1 .994555 .615875 .468285
3 1 .806302 .012242 .466656
4 1 .192900 .010168 .518911
5 1 .008053 .611740 .548271
6 1 .518428 .447955 .985423
7 1 .482956 .445059 .011563
ITEM: TIMESTEP
400
ITEM: NUMBER OF ATOMS
7
ITEM: BOX BOUNDS ss ss ss
-2.9826 3.2324
-2.5551 3.5107
-1.9922 2.0066
ITEM: ATOMS id type xs ys zs
1 1 .500222 .987476 .467708
2 1 .996064 .613520 .468060
3 1 .807199 .011710 .466381
4 1 .192568 .008942 .521228
5 1 .007717 .611418 .548480
6 1 .517927 .446063 .984119
7 1 .484592 .444988 .010257
ITEM: TIMESTEP
1
ITEM: NUMBER OF ATOMS
7
ITEM: BOX BOUNDS ss ss ss
-2.9689 3.2270
-2.5204 3.4771
-1.9814 1.9926
ITEM: ATOMS id type xs ys zs
1 1 .497713 .999151 .463271
2 1 .993179 .617200 .464374
3 1 .805577 .008382 .468467
4 1 .192724 .000751 .521100
5 1 .006045 .615070 .550548
6 1 .516507 .446660 .997531
7 1 .480633 .446116 .013957
ITEM: TIMESTEP
50
ITEM: NUMBER OF ATOMS
7
ITEM: BOX BOUNDS ss ss ss
-2.9689 3.2270
-2.5475 3.5043
-1.9814 2.0138
ITEM: ATOMS id type xs ys zs
1 1 .498644 .993150 .461403
2 1 .994570 .615694 .464901
3 1 .806616 .012615 .467947
4 1 .194781 .005283 .517250
5 1 .004951 .614292 .545841
6 1 .515385 .448444 .989410
7 1 .482073 .445260 .011849
ITEM: TIMESTEP
100
ITEM: NUMBER OF ATOMS
7
ITEM: BOX BOUNDS ss ss ss
-2.9689 3.2270
-2.5588 3.5188
-1.9814 2.0192
ITEM: ATOMS id type xs ys zs
1 1 .498137 .991600 .462136
2 1 .995822 .613184 .463504
3 1 .807170 .012818 .467999
4 1 .195555 .008285 .519034
5 1 .005134 .612891 .544589
6 1 .515683 .446796 .984282
7 1 .482345 .444944 .010642
ITEM: TIMESTEP
150
ITEM: NUMBER OF ATOMS
7
ITEM: BOX BOUNDS ss ss ss
-2.9723 3.2270
-2.5559 3.5154
-1.9814 2.0265
ITEM: ATOMS id type xs ys zs
1 1 .498833 .989555 .464205
2 1 .993347 .614423 .458515
3 1 .807580 .012468 .470321
4 1 .193927 .008311 .519313
5 1 .007876 .612413 .547271
6 1 .516554 .446027 .986595
7 1 .482533 .444529 .008444
ITEM: TIMESTEP
200
ITEM: NUMBER OF ATOMS
7
ITEM: BOX BOUNDS ss ss ss
-2.9760 3.2377
-2.5588 3.5171
-1.9814 2.0192
ITEM: ATOMS id type xs ys zs
1 1 .496880 .987243 .461559
2 1 .992305 .613457 .462710
3 1 .805511 .012434 .468324
4 1 .191829 .007630 .517035
5 1 .005751 .611150 .547723
6 1 .514000 .445798 .983870
7 1 .480667 .443614 .007645
ITEM: TIMESTEP
250
ITEM: NUMBER OF ATOMS
7
ITEM: BOX BOUNDS ss ss ss
-2.9727 3.2339
-2.5586 3.5199
-1.9857 2.0154
ITEM: ATOMS id type xs ys zs
1 1 .498121 .984548 .463550
2 1 .994930 .613824 .465745
3 1 .806840 .011229 .468578
4 1 .190716 .008355 .519165
5 1 .004355 .609805 .547787
6 1 .515738 .445361 .983492
7 1 .481619 .442247 .009063
ITEM: TIMESTEP
300
ITEM: NUMBER OF ATOMS
7
ITEM: BOX BOUNDS ss ss ss
-2.9774 3.2378
-2.5590 3.5068
-1.9927 2.0127
ITEM: ATOMS id type xs ys zs
1 1 .500259 .986929 .466697
2 1 .995156 .613007 .467002
3 1 .805816 .010799 .471341
4 1 .190377 .010251 .519735
5 1 .005116 .611314 .547408
6 1 .515368 .446159 .981989
7 1 .481543 .442401 .010992
ITEM: TIMESTEP
350
ITEM: NUMBER OF ATOMS
7
ITEM: BOX BOUNDS ss ss ss
-2.9834 3.2380
-2.5690 3.4921
-1.9939 2.0036
ITEM: ATOMS id type xs ys zs
1 1 .497465 .987326 .467971
2 1 .991168 .614890 .466891
3 1 .805036 .014469 .470634
4 1 .191690 .009726 .521926
5 1 .005423 .613308 .548919
6 1 .515553 .446277 .986143
7 1 .479029 .444505 .009670
ITEM: TIMESTEP
400
ITEM: NUMBER OF ATOMS
7
ITEM: BOX BOUNDS ss ss ss
-2.9883 3.2415
-2.5659 3.4822
-1.9913 2.0032
ITEM: ATOMS id type xs ys zs
1 1 .499085 .988286 .467983
2 1 .989111 .615049 .462570
3 1 .804382 .013130 .468295
4 1 .192136 .011051 .521767
5 1 .005465 .613099 .546893
6 1 .514134 .449638 .985991
7 1 .477695 .445077 .009795
ITEM: TIMESTEP
1
ITEM: NUMBER OF ATOMS
7
ITEM: BOX BOUNDS ss ss ss
-2.9719 3.2283
-2.5374 3.4767
-1.9816 1.9926
ITEM: ATOMS id type xs ys zs
1 1 .497852 .999197 .463328
2 1 .992951 .618335 .464406
3 1 .805520 .011193 .468529
4 1 .193068 .003572 .521103
5 1 .006507 .616208 .550562
6 1 .516619 .448267 .997498
7 1 .480756 .447692 .014001
ITEM: TIMESTEP
50
ITEM: NUMBER OF ATOMS
7
ITEM: BOX BOUNDS ss ss ss
-2.9719 3.2283
-2.5497 3.5040
-1.9816 2.0140
ITEM: ATOMS id type xs ys zs
1 1 .497737 .993605 .465228
2 1 .994798 .617148 .462040
3 1 .804196 .012549 .464410
4 1 .193945 .006500 .519356
5 1 .005174 .613166 .550471
6 1 .517996 .449026 .989152
7 1 .479219 .448408 .014854
ITEM: TIMESTEP
100
ITEM: NUMBER OF ATOMS
7
ITEM: BOX BOUNDS ss ss ss
-2.9719 3.2283
-2.5547 3.5163
-1.9816 2.0233
ITEM: ATOMS id type xs ys zs
1 1 .500810 .991125 .464192
2 1 .993870 .617095 .459568
3 1 .803831 .014643 .466113
4 1 .192160 .008133 .521571
5 1 .007648 .613574 .543312
6 1 .517374 .447265 .987900
7 1 .483641 .445394 .011245
ITEM: TIMESTEP
150
ITEM: NUMBER OF ATOMS
7
ITEM: BOX BOUNDS ss ss ss
-2.9719 3.2295
-2.5610 3.5227
-1.9816 2.0259
ITEM: ATOMS id type xs ys zs
1 1 .496533 .989082 .462647
2 1 .995348 .619609 .459390
3 1 .807491 .013227 .469444
4 1 .190444 .010439 .515268
5 1 .005259 .612158 .546151
6 1 .518177 .448540 .985852
7 1 .481713 .446862 .018179
ITEM: TIMESTEP
200
ITEM: NUMBER OF ATOMS
7
ITEM: BOX BOUNDS ss ss ss
-2.9719 3.2288
-2.5595 3.5208
-1.9816 2.0325
ITEM: ATOMS id type xs ys zs
1 1 .498271 .991389 .461915
2 1 .994715 .613916 .457792
3 1 .807960 .013448 .465174
4 1 .194927 .010883 .515453
5 1 .006519 .611037 .545619
6 1 .518521 .447315 .985620
7 1 .482482 .448533 .014494
ITEM: TIMESTEP
250
ITEM: NUMBER OF ATOMS
7
ITEM: BOX BOUNDS ss ss ss
-2.9732 3.2283
-2.5616 3.5239
-1.9858 2.0391
ITEM: ATOMS id type xs ys zs
1 1 .499463 .991140 .464071
2 1 .995279 .615476 .459838
3 1 .807475 .012271 .465753
4 1 .192949 .007590 .517115
5 1 .007185 .612390 .544177
6 1 .518430 .448159 .981951
7 1 .483001 .448211 .011205
ITEM: TIMESTEP
300
ITEM: NUMBER OF ATOMS
7
ITEM: BOX BOUNDS ss ss ss
-2.9747 3.2283
-2.5562 3.5167
-1.9816 2.0344
ITEM: ATOMS id type xs ys zs
1 1 .498047 .993286 .458582
2 1 .994153 .615594 .456280
3 1 .805333 .013984 .460685
4 1 .193352 .009175 .514754
5 1 .006288 .612318 .543661
6 1 .515779 .449458 .980523
7 1 .482159 .448032 .009665
ITEM: TIMESTEP
350
ITEM: NUMBER OF ATOMS
7
ITEM: BOX BOUNDS ss ss ss
-2.9828 3.2283
-2.5556 3.5345
-1.9946 2.0267
ITEM: ATOMS id type xs ys zs
1 1 .501523 .985006 .461631
2 1 .991095 .613479 .466498
3 1 .805154 .013283 .470714
4 1 .194350 .013651 .516142
5 1 .010772 .615874 .554597
6 1 .518011 .447755 .984591
7 1 .482877 .443843 .011351
ITEM: TIMESTEP
400
ITEM: NUMBER OF ATOMS
7
ITEM: BOX BOUNDS ss ss ss
-2.9842 3.2283
-2.5555 3.5273
-1.9969 2.0274
ITEM: ATOMS id type xs ys zs
1 1 .501084 .984366 .458801
2 1 .993414 .612596 .473643
3 1 .807014 .013331 .473824
4 1 .192889 .013340 .515849
5 1 .009817 .614148 .553348
6 1 .515368 .448023 .986520
7 1 .482465 .442953 .011635
ITEM: TIMESTEP
450
ITEM: NUMBER OF ATOMS
7
ITEM: BOX BOUNDS ss ss ss
-2.9796 3.2270
-2.5625 3.5234
-2.0014 2.0294
ITEM: ATOMS id type xs ys zs
1 1 .501988 .987025 .464132
2 1 .990087 .617019 .463942
3 1 .805827 .014296 .476028
4 1 .190718 .015298 .521549
5 1 .010859 .616854 .553423
6 1 .518855 .448195 .981556
7 1 .481077 .445245 .017326
ITEM: TIMESTEP
500
ITEM: NUMBER OF ATOMS
7
ITEM: BOX BOUNDS ss ss ss
-2.9790 3.2233
-2.5645 3.5159
-1.9945 2.0318
ITEM: ATOMS id type xs ys zs
1 1 .501318 .985644 .461487
2 1 .993875 .612610 .466660
3 1 .807854 .016596 .465768
4 1 .198067 .010612 .524763
5 1 .006106 .617010 .554043
6 1 .516951 .450561 .985304
7 1 .478546 .445531 .013042
ITEM: TIMESTEP
550
ITEM: NUMBER OF ATOMS
7
ITEM: BOX BOUNDS ss ss ss
-2.9784 3.2298
-2.5573 3.5247
-2.0033 2.0390
ITEM: ATOMS id type xs ys zs
1 1 .499567 .984145 .464721
2 1 .992651 .611692 .465555
3 1 .806428 .014048 .466649
4 1 .199882 .009519 .525023
5 1 .005938 .613573 .552770
6 1 .515445 .450141 .981729
7 1 .478615 .445778 .015511
ITEM: TIMESTEP
600
ITEM: NUMBER OF ATOMS
7
ITEM: BOX BOUNDS ss ss ss
-2.9826 3.2424
-2.5449 3.5072
-2.0122 2.0258
ITEM: ATOMS id type xs ys zs
1 1 .501566 .987361 .466917
2 1 .993163 .611787 .472664
3 1 .803546 .014474 .464343
4 1 .195079 .007454 .532153
5 1 .003670 .615035 .551375
6 1 .515764 .450766 .985968
7 1 .477495 .444888 .020084
ITEM: TIMESTEP
650
ITEM: NUMBER OF ATOMS
7
ITEM: BOX BOUNDS ss ss ss
-2.9886 3.2365
-2.5440 3.5066
-2.0114 2.0318
ITEM: ATOMS id type xs ys zs
1 1 .501718 .985081 .463561
2 1 .996549 .609900 .471462
3 1 .803840 .014902 .461001
4 1 .195451 .008316 .531841
5 1 .006534 .614414 .547893
6 1 .517127 .448636 .984799
7 1 .477479 .444159 .016928
ITEM: TIMESTEP
700
ITEM: NUMBER OF ATOMS
7
ITEM: BOX BOUNDS ss ss ss
-2.9849 3.2404
-2.5481 3.5019
-2.0134 2.0363
ITEM: ATOMS id type xs ys zs
1 1 .502022 .987278 .463368
2 1 .995893 .610732 .471091
3 1 .803063 .014625 .459864
4 1 .195745 .010690 .531723
5 1 .006035 .614830 .549270
6 1 .517675 .450687 .983917
7 1 .477203 .445714 .016427
ITEM: TIMESTEP
750
ITEM: NUMBER OF ATOMS
7
ITEM: BOX BOUNDS ss ss ss
-2.9907 3.2453
-2.5481 3.5141
-2.0066 2.0424
ITEM: ATOMS id type xs ys zs
1 1 .502096 .984245 .463851
2 1 .995250 .608478 .469694
3 1 .803448 .013741 .460228
4 1 .197055 .009394 .528046
5 1 .006628 .614159 .549269
6 1 .516754 .450402 .983690
7 1 .478228 .444585 .014820
ITEM: TIMESTEP
1
ITEM: NUMBER OF ATOMS
7
ITEM: BOX BOUNDS ss ss ss
-2.9657 3.2361
-2.5238 3.4768
-1.9728 2.0052
ITEM: ATOMS id type xs ys zs
1 1 .496720 .999187 .460641
2 1 .991702 .617448 .461714
3 1 .804286 .008954 .465803
4 1 .192021 .001316 .518395
5 1 .005506 .615323 .547815
6 1 .515480 .447012 .994275
7 1 .479658 .446451 .011794
ITEM: TIMESTEP
50
ITEM: NUMBER OF ATOMS
7
ITEM: BOX BOUNDS ss ss ss
-2.9657 3.2361
-2.5478 3.5027
-1.9728 2.0136
ITEM: ATOMS id type xs ys zs
1 1 .498482 .993413 .460249
2 1 .991475 .616886 .458382
3 1 .804639 .013250 .465050
4 1 .190805 .006835 .519991
5 1 .005630 .614473 .545069
6 1 .515689 .446621 .988948
7 1 .480705 .447235 .008824
ITEM: TIMESTEP
100
ITEM: NUMBER OF ATOMS
7
ITEM: BOX BOUNDS ss ss ss
-2.9657 3.2361
-2.5611 3.5165
-1.9728 2.0292
ITEM: ATOMS id type xs ys zs
1 1 .498748 .993453 .461511
2 1 .991205 .615390 .464789
3 1 .805786 .014578 .469834
4 1 .190756 .010583 .517674
5 1 .002911 .614146 .541044
6 1 .514185 .447871 .986751
7 1 .479160 .446574 .011861
ITEM: TIMESTEP
150
ITEM: NUMBER OF ATOMS
7
ITEM: BOX BOUNDS ss ss ss
-2.9657 3.2361
-2.5611 3.5215
-1.9744 2.0208
ITEM: ATOMS id type xs ys zs
1 1 .499287 .990349 .461958
2 1 .990851 .616864 .460045
3 1 .805098 .015687 .463913
4 1 .190882 .008019 .517799
5 1 .005578 .614163 .545377
6 1 .516085 .447911 .983226
7 1 .479065 .448437 .007124
ITEM: TIMESTEP
200
ITEM: NUMBER OF ATOMS
7
ITEM: BOX BOUNDS ss ss ss
-2.9698 3.2361
-2.5627 3.5245
-1.9769 2.0274
ITEM: ATOMS id type xs ys zs
1 1 .495803 .988847 .461222
2 1 .992527 .614828 .458502
3 1 .802607 .014888 .464109
4 1 .191068 .011187 .512957
5 1 .005190 .612787 .550238
6 1 .515628 .448141 .981592
7 1 .478281 .446298 .009713
ITEM: TIMESTEP
250
ITEM: NUMBER OF ATOMS
7
ITEM: BOX BOUNDS ss ss ss
-2.9717 3.2361
-2.5790 3.5286
-1.9804 2.0243
ITEM: ATOMS id type xs ys zs
1 1 .495502 .987254 .461540
2 1 .993027 .616307 .459860
3 1 .802452 .018046 .464859
4 1 .190864 .014386 .515294
5 1 .004647 .612704 .549884
6 1 .516283 .452495 .981917
7 1 .477587 .447374 .010539
ITEM: TIMESTEP
300
ITEM: NUMBER OF ATOMS
7
ITEM: BOX BOUNDS ss ss ss
-2.9761 3.2361
-2.5594 3.5192
-1.9795 2.0225
ITEM: ATOMS id type xs ys zs
1 1 .497890 .988389 .459681
2 1 .996223 .614366 .468321
3 1 .804641 .013940 .465461
4 1 .191908 .014520 .518508
5 1 .004521 .610774 .542001
6 1 .514358 .449992 .982543
7 1 .485311 .446321 .004301
ITEM: TIMESTEP
350
ITEM: NUMBER OF ATOMS
7
ITEM: BOX BOUNDS ss ss ss
-2.9843 3.2361
-2.5528 3.5184
-1.9812 2.0148
ITEM: ATOMS id type xs ys zs
1 1 .497377 .989434 .465837
2 1 .991955 .616447 .459478
3 1 .804226 .014054 .466403
4 1 .191376 .013287 .517480
5 1 .006348 .613426 .556486
6 1 .517072 .450130 .984467
7 1 .477117 .448170 .007275
ITEM: TIMESTEP
400
ITEM: NUMBER OF ATOMS
7
ITEM: BOX BOUNDS ss ss ss
-2.9911 3.2361
-2.5444 3.5052
-1.9975 2.0065
ITEM: ATOMS id type xs ys zs
1 1 .497517 .991381 .470765
2 1 .991284 .617553 .460427
3 1 .804370 .014383 .470816
4 1 .192168 .013329 .519490
5 1 .007612 .614472 .561111
6 1 .517355 .449219 .986502
7 1 .477645 .447792 .011241
ITEM: TIMESTEP
1
ITEM: NUMBER OF ATOMS
7
ITEM: BOX BOUNDS ss ss ss
-2.9657 3.2361
-2.5238 3.4765
-1.9792 2.0052
ITEM: ATOMS id type xs ys zs
1 1 .496732 .999249 .461486
2 1 .991715 .617453 .462568
3 1 .804287 .008942 .466678
4 1 .192014 .001316 .519169
5 1 .005502 .615362 .548520
6 1 .515488 .447007 .994347
7 1 .479656 .446477 .013373
ITEM: TIMESTEP
50
ITEM: NUMBER OF ATOMS
7
ITEM: BOX BOUNDS ss ss ss
-2.9657 3.2361
-2.5479 3.5061
-1.9792 2.0133
ITEM: ATOMS id type xs ys zs
1 1 .496918 .993692 .461871
2 1 .989910 .615351 .459987
3 1 .804652 .013364 .464370
4 1 .192505 .006282 .519943
5 1 .004672 .614159 .548766
6 1 .515797 .446329 .990822
7 1 .478204 .447433 .011587
ITEM: TIMESTEP
100
ITEM: NUMBER OF ATOMS
7
ITEM: BOX BOUNDS ss ss ss
-2.9657 3.2361
-2.5563 3.5157
-1.9792 2.0242
ITEM: ATOMS id type xs ys zs
1 1 .495867 .992284 .459460
2 1 .992402 .615057 .460468
3 1 .806301 .014134 .461333
4 1 .193678 .009367 .522056
5 1 .003314 .614543 .546693
6 1 .515133 .448584 .986589
7 1 .478274 .447091 .015712
ITEM: TIMESTEP
150
ITEM: NUMBER OF ATOMS
7
ITEM: BOX BOUNDS ss ss ss
-2.9657 3.2361
-2.5620 3.5227
-1.9792 2.0302
ITEM: ATOMS id type xs ys zs
1 1 .496072 .989591 .458714
2 1 .992215 .615650 .461408
3 1 .807566 .014837 .466735
4 1 .190477 .010966 .513878
5 1 .004732 .615328 .549525
6 1 .516033 .449645 .984589
7 1 .480029 .445777 .012469
ITEM: TIMESTEP
200
ITEM: NUMBER OF ATOMS
7
ITEM: BOX BOUNDS ss ss ss
-2.9707 3.2361
-2.5577 3.5145
-1.9792 2.0253
ITEM: ATOMS id type xs ys zs
1 1 .497709 .989801 .460867
2 1 .992717 .616750 .463742
3 1 .807767 .016185 .472053
4 1 .192156 .011255 .514986
5 1 .005087 .619260 .552217
6 1 .516099 .447429 .985099
7 1 .480310 .447526 .010631
ITEM: TIMESTEP
250
ITEM: NUMBER OF ATOMS
7
ITEM: BOX BOUNDS ss ss ss
-2.9770 3.2361
-2.5442 3.5100
-1.9792 2.0195
ITEM: ATOMS id type xs ys zs
1 1 .497097 .989739 .458360
2 1 .993190 .617995 .465082
3 1 .809036 .015447 .463628
4 1 .192638 .010841 .515078
5 1 .004671 .613363 .551739
6 1 .515815 .446419 .982737
7 1 .480861 .446139 .011171
ITEM: TIMESTEP
300
ITEM: NUMBER OF ATOMS
7
ITEM: BOX BOUNDS ss ss ss
-2.9735 3.2361
-2.5438 3.5122
-1.9792 2.0199
ITEM: ATOMS id type xs ys zs
1 1 .496178 .988356 .457500
2 1 .994460 .617952 .466175
3 1 .809937 .015272 .463242
4 1 .191483 .011570 .518991
5 1 .004121 .614336 .551556
6 1 .514590 .446631 .982264
7 1 .480039 .444587 .012056
ITEM: TIMESTEP
350
ITEM: NUMBER OF ATOMS
7
ITEM: BOX BOUNDS ss ss ss
-2.9814 3.2361
-2.5472 3.5177
-1.9833 2.0332
ITEM: ATOMS id type xs ys zs
1 1 .496033 .988612 .459563
2 1 .991540 .617346 .464754
3 1 .808775 .016705 .465029
4 1 .194217 .010839 .509873
5 1 .006545 .614803 .548384
6 1 .515037 .448904 .977949
7 1 .481148 .445271 .009646
ITEM: TIMESTEP
400
ITEM: NUMBER OF ATOMS
7
ITEM: BOX BOUNDS ss ss ss
-2.9862 3.2428
-2.5513 3.5132
-1.9887 2.0159
ITEM: ATOMS id type xs ys zs
1 1 .498313 .988240 .463386
2 1 .991643 .618202 .465884
3 1 .809689 .016622 .466150
4 1 .194179 .012337 .514534
5 1 .005865 .616071 .551385
6 1 .514849 .448518 .983670
7 1 .479647 .447085 .013595
ITEM: TIMESTEP
1
ITEM: NUMBER OF ATOMS
7
ITEM: BOX BOUNDS ss ss ss
-2.9807 3.2361
-2.5238 3.4769
-1.9869 2.0052
ITEM: ATOMS id type xs ys zs
1 1 .497942 .999164 .462544