ITEM: TIMESTEP
1
ITEM: NUMBER OF ATOMS
7
ITEM: BOX BOUNDS ss ss ss
-2.9354 3.1889
-2.5203 3.4777
-1.9297 1.9876
ITEM: ATOMS id type xs ys zs
1 1 .498066 .999184 .456582
2 1 .999297 .617123 .457918
3 1 .809485 .008344 .461985
4 1 .189500 .000603 .515369
5 1 .000668 .615034 .545320
6 1 .517078 .446551 .998963
7 1 .480781 .446088 .001065
ITEM: TIMESTEP
50
ITEM: NUMBER OF ATOMS
7
ITEM: BOX BOUNDS ss ss ss
-2.9571 3.2113
-2.5462 3.4991
-1.9533 2.0110
ITEM: ATOMS id type xs ys zs
1 1 .498065 .995823 .456548
2 1 .995445 .616632 .458710
3 1 .807193 .012547 .462323
4 1 .191668 .004839 .515103
5 1 .004459 .614469 .545065
6 1 .516856 .447217 .993028
7 1 .480816 .446953 .007264
ITEM: TIMESTEP
100
ITEM: NUMBER OF ATOMS
7
ITEM: BOX BOUNDS ss ss ss
-2.9623 3.2182
-2.5493 3.5089
-1.9595 2.0174
ITEM: ATOMS id type xs ys zs
1 1 .497905 .993807 .456602
2 1 .994059 .616011 .459461
3 1 .806701 .013045 .462498
4 1 .192144 .005861 .515230
5 1 .005414 .613535 .545588
6 1 .516644 .446850 .990194
7 1 .480662 .446422 .008509
ITEM: TIMESTEP
150
ITEM: NUMBER OF ATOMS
7
ITEM: BOX BOUNDS ss ss ss
-2.9734 3.2204
-2.5511 3.5092
-1.9697 2.0106
ITEM: ATOMS id type xs ys zs
1 1 .498409 .993028 .459137
2 1 .993711 .616255 .462272
3 1 .807029 .013269 .464782
4 1 .193338 .006778 .517721
5 1 .007110 .613482 .548046
6 1 .517262 .447043 .990355
7 1 .481473 .446336 .010166
ITEM: TIMESTEP
200
ITEM: NUMBER OF ATOMS
7
ITEM: BOX BOUNDS ss ss ss
-2.9849 3.2335
-2.5594 3.5030
-1.9763 2.0158
ITEM: ATOMS id type xs ys zs
1 1 .497810 .993091 .460190
2 1 .991856 .617466 .463210
3 1 .806137 .014530 .464979
4 1 .194203 .008762 .518510
5 1 .008410 .614585 .548242
6 1 .516966 .448281 .987490
7 1 .481299 .446993 .010684
ITEM: TIMESTEP
250
ITEM: NUMBER OF ATOMS
7
ITEM: BOX BOUNDS ss ss ss
-2.9803 3.2307
-2.5577 3.5055
-1.9811 2.0111
ITEM: ATOMS id type xs ys zs
1 1 .497267 .991730 .462456
2 1 .992586 .617105 .465133
3 1 .807070 .013853 .465973
4 1 .193408 .009087 .520126
5 1 .006889 .614378 .550001
6 1 .516611 .448038 .986766
7 1 .481127 .445971 .011458
ITEM: TIMESTEP
300
ITEM: NUMBER OF ATOMS
7
ITEM: BOX BOUNDS ss ss ss
-2.9859 3.2296
-2.5531 3.4956
-1.9856 2.0052
ITEM: ATOMS id type xs ys zs
1 1 .498004 .992308 .464305
2 1 .993247 .617947 .466713
3 1 .807872 .013001 .467133
4 1 .194204 .008842 .521847
5 1 .007044 .615420 .551596
6 1 .517106 .448815 .986945
7 1 .481711 .445755 .012102
ITEM: TIMESTEP
350
ITEM: NUMBER OF ATOMS
7
ITEM: BOX BOUNDS ss ss ss
-2.9927 3.2439
-2.5497 3.4977
-1.9904 2.0057
ITEM: ATOMS id type xs ys zs
1 1 .497543 .990956 .465298
2 1 .991653 .617588 .467100
3 1 .806569 .012471 .467605
4 1 .194945 .008855 .522786
5 1 .007543 .615084 .552380
6 1 .516670 .449055 .985597
7 1 .481314 .444943 .012396
ITEM: TIMESTEP
400
ITEM: NUMBER OF ATOMS
7
ITEM: BOX BOUNDS ss ss ss
-2.9906 3.2409
-2.5455 3.4963
-2.0015 2.0051
ITEM: ATOMS id type xs ys zs
1 1 .497783 .990373 .467813
2 1 .992781 .617426 .467616
3 1 .807142 .011832 .468977
4 1 .194980 .008790 .524259
5 1 .006826 .614855 .553612
6 1 .517098 .449204 .984765
7 1 .481474 .444596 .014396
ITEM: TIMESTEP
1
ITEM: NUMBER OF ATOMS
7
ITEM: BOX BOUNDS ss ss ss
-2.9813 3.2300
-2.5207 3.4769
-1.9768 1.9871
ITEM: ATOMS id type xs ys zs
1 1 .498482 .999304 .463091
2 1 .992686 .617227 .464411
3 1 .805536 .008420 .468437
4 1 .194238 .000675 .521186
5 1 .008054 .615138 .550787
6 1 .517228 .446649 .999102
7 1 .481437 .446185 .012922
ITEM: TIMESTEP
50
ITEM: NUMBER OF ATOMS
7
ITEM: BOX BOUNDS ss ss ss
-2.9813 3.2300
-2.5463 3.5002
-1.9768 2.0104
ITEM: ATOMS id type xs ys zs
1 1 .498521 .995748 .459730
2 1 .992487 .616504 .461982
3 1 .805487 .012526 .465508
4 1 .194271 .004763 .517938
5 1 .008369 .614393 .547814
6 1 .517179 .447121 .993361
7 1 .481374 .446884 .013233
ITEM: TIMESTEP
100
ITEM: NUMBER OF ATOMS
7
ITEM: BOX BOUNDS ss ss ss
-2.9813 3.2300
-2.5516 3.5180
-1.9768 2.0171
ITEM: ATOMS id type xs ys zs
1 1 .498618 .992541 .458838
2 1 .992207 .615222 .461952
3 1 .805695 .013272 .464816
4 1 .194202 .006083 .517067
5 1 .008610 .612802 .547643
6 1 .517096 .446298 .990778
7 1 .481322 .445938 .013081
ITEM: TIMESTEP
150
ITEM: NUMBER OF ATOMS
7
ITEM: BOX BOUNDS ss ss ss
-2.9813 3.2300
-2.5544 3.5085
-1.9768 2.0165
ITEM: ATOMS id type xs ys zs
1 1 .498665 .992846 .460285
2 1 .992133 .616756 .462877
3 1 .806293 .013649 .465765
4 1 .194208 .007372 .516975
5 1 .008689 .614019 .548544
6 1 .517136 .446897 .989335
7 1 .481439 .446381 .012130
ITEM: TIMESTEP
200
ITEM: NUMBER OF ATOMS
7
ITEM: BOX BOUNDS ss ss ss
-2.9813 3.2300
-2.5533 3.5045
-1.9768 2.0094
ITEM: ATOMS id type xs ys zs
1 1 .498863 .991201 .465905
2 1 .992600 .617494 .464158
3 1 .807523 .013459 .468367
4 1 .193691 .007098 .516732
5 1 .009360 .614325 .550489
6 1 .517626 .445375 .989864
7 1 .482224 .445510 .011199
ITEM: TIMESTEP
250
ITEM: NUMBER OF ATOMS
7
ITEM: BOX BOUNDS ss ss ss
-2.9813 3.2319
-2.5531 3.4928
-1.9799 2.0133
ITEM: ATOMS id type xs ys zs
1 1 .498958 .992137 .467921
2 1 .992542 .618786 .464604
3 1 .807862 .013271 .469134
4 1 .193275 .007136 .515774
5 1 .009398 .615332 .550993
6 1 .517549 .445513 .988399
7 1 .482393 .445835 .011585
ITEM: TIMESTEP
300
ITEM: NUMBER OF ATOMS
7
ITEM: BOX BOUNDS ss ss ss
-2.9813 3.2418
-2.5510 3.4887
-1.9843 2.0098
ITEM: ATOMS id type xs ys zs
1 1 .498232 .992222 .469859
2 1 .991193 .619129 .465733
3 1 .807000 .012734 .470115
4 1 .192962 .007252 .516205
5 1 .009131 .615592 .552446
6 1 .516820 .445388 .988867
7 1 .481806 .445856 .012323
ITEM: TIMESTEP
350
ITEM: NUMBER OF ATOMS
7
ITEM: BOX BOUNDS ss ss ss
-2.9813 3.2405
-2.5552 3.4845
-1.9900 2.0101
ITEM: ATOMS id type xs ys zs
1 1 .498294 .992460 .471472
2 1 .991620 .619912 .466359
3 1 .807504 .013272 .470557
4 1 .193031 .008513 .516633
5 1 .008909 .616364 .553584
6 1 .517061 .445941 .988360
7 1 .482062 .446547 .013377
ITEM: TIMESTEP
400
ITEM: NUMBER OF ATOMS
7
ITEM: BOX BOUNDS ss ss ss
-2.9727 3.2466
-2.5556 3.4837
-1.9872 2.0163
ITEM: ATOMS id type xs ys zs
1 1 .497191 .992053 .470921
2 1 .991088 .619838 .464943
3 1 .806686 .013096 .469331
4 1 .191616 .009310 .515733
5 1 .007314 .616726 .552776
6 1 .515966 .446120 .986272
7 1 .481055 .446557 .012508
ITEM: TIMESTEP
1
ITEM: NUMBER OF ATOMS
7
ITEM: BOX BOUNDS ss ss ss
-2.9697 3.2270
-2.5256 3.4764
-1.9721 1.9871
ITEM: ATOMS id type xs ys zs
1 1 .497782 .999396 .462447
2 1 .993156 .617596 .463779
3 1 .805563 .009231 .467801
4 1 .192823 .001491 .520617
5 1 .006198 .615505 .550248
6 1 .516575 .447138 .999088
7 1 .480698 .446679 .011764
ITEM: TIMESTEP
50
ITEM: NUMBER OF ATOMS
7
ITEM: BOX BOUNDS ss ss ss
-2.9697 3.2270
-2.5494 3.5039
-1.9721 2.0115
ITEM: ATOMS id type xs ys zs
1 1 .497834 .995198 .458804
2 1 .992932 .616303 .461258
3 1 .805468 .013037 .464798
4 1 .192881 .005208 .517206
5 1 .006540 .614207 .547158
6 1 .516526 .447116 .993176
7 1 .480640 .446926 .012095
ITEM: TIMESTEP
100
ITEM: NUMBER OF ATOMS
7
ITEM: BOX BOUNDS ss ss ss
-2.9697 3.2270
-2.5495 3.5119
-1.9721 2.0165
ITEM: ATOMS id type xs ys zs
1 1 .497908 .993594 .458018
2 1 .992619 .615620 .461491
3 1 .805662 .012948 .464359
4 1 .192906 .005599 .516789
5 1 .006711 .613155 .547249
6 1 .516421 .446566 .990800
7 1 .480510 .446237 .011888
ITEM: TIMESTEP
150
ITEM: NUMBER OF ATOMS
7
ITEM: BOX BOUNDS ss ss ss
-2.9727 3.2270
-2.5541 3.5101
-1.9721 2.0204
ITEM: ATOMS id type xs ys zs
1 1 .498318 .992921 .457360
2 1 .992494 .616137 .461257
3 1 .806043 .013652 .464631
4 1 .193340 .006889 .517086
5 1 .006712 .613447 .547359
6 1 .516372 .447431 .988106
7 1 .480724 .446375 .010753
ITEM: TIMESTEP
200
ITEM: NUMBER OF ATOMS
7
ITEM: BOX BOUNDS ss ss ss
-2.9846 3.2270
-2.5555 3.5105
-1.9771 2.0128
ITEM: ATOMS id type xs ys zs
1 1 .499456 .992109 .458518
2 1 .992569 .615901 .463058
3 1 .806732 .013967 .466883
4 1 .194957 .007516 .519336
5 1 .008233 .613722 .549302
6 1 .516820 .447804 .988929
7 1 .481561 .446063 .010930
ITEM: TIMESTEP
250
ITEM: NUMBER OF ATOMS
7
ITEM: BOX BOUNDS ss ss ss
-2.9842 3.2270
-2.5562 3.5087
-1.9857 2.0137
ITEM: ATOMS id type xs ys zs
1 1 .499472 .991928 .459873
2 1 .992729 .616206 .464579
3 1 .807006 .014366 .468639
4 1 .194756 .008099 .520201
5 1 .007851 .614240 .550120
6 1 .516394 .448061 .987957
7 1 .481536 .446036 .012432
ITEM: TIMESTEP
300
ITEM: NUMBER OF ATOMS
7
ITEM: BOX BOUNDS ss ss ss
-2.9847 3.2270
-2.5510 3.5089
-1.9842 2.0150
ITEM: ATOMS id type xs ys zs
1 1 .499489 .991135 .459933
2 1 .993108 .615856 .464703
3 1 .807225 .013880 .469441
4 1 .194939 .007748 .519501
5 1 .007272 .613775 .548977
6 1 .516047 .448048 .986565
7 1 .481778 .445486 .011115
ITEM: TIMESTEP
350
ITEM: NUMBER OF ATOMS
7
ITEM: BOX BOUNDS ss ss ss
-2.9924 3.2346
-2.5519 3.5029
-1.9924 2.0116
ITEM: ATOMS id type xs ys zs
1 1 .499201 .991118 .461531
2 1 .992141 .616467 .466900
3 1 .806524 .014455 .471546
4 1 .195611 .008302 .520396
5 1 .007583 .613893 .548767
6 1 .515360 .449326 .986468
7 1 .481931 .445710 .012061
ITEM: TIMESTEP
400
ITEM: NUMBER OF ATOMS
7
ITEM: BOX BOUNDS ss ss ss
-2.9901 3.2313
-2.5484 3.4979
-1.9944 2.0106
ITEM: ATOMS id type xs ys zs
1 1 .498843 .991162 .461990
2 1 .992678 .617018 .467981
3 1 .807032 .014192 .472378
4 1 .195169 .008149 .520793
5 1 .006649 .614006 .548447
6 1 .515016 .450076 .986132
7 1 .482022 .445326 .011733
ITEM: TIMESTEP
1
ITEM: NUMBER OF ATOMS
7
ITEM: BOX BOUNDS ss ss ss
-2.9818 3.2153
-2.5369 3.4768
-1.9862 1.9875
ITEM: ATOMS id type xs ys zs
1 1 .499704 .999327 .464291
2 1 .995034 .618271 .465621
3 1 .807455 .011096 .469629
4 1 .194768 .003372 .522249
5 1 .008156 .616187 .551779
6 1 .518489 .448146 .998986
7 1 .482620 .447688 .015255
ITEM: TIMESTEP
50
ITEM: NUMBER OF ATOMS
7
ITEM: BOX BOUNDS ss ss ss
-2.9818 3.2153
-2.5456 3.5020
-1.9862 2.0112
ITEM: ATOMS id type xs ys zs
1 1 .499756 .995597 .460624
2 1 .994802 .616261 .463138
3 1 .807345 .012412 .466654
4 1 .194828 .004508 .518906
5 1 .008507 .614168 .548783
6 1 .518463 .446853 .993400
7 1 .482596 .446729 .015609
ITEM: TIMESTEP
100
ITEM: NUMBER OF ATOMS
7
ITEM: BOX BOUNDS ss ss ss
-2.9818 3.2193
-2.5542 3.5153
-1.9862 2.0225
ITEM: ATOMS id type xs ys zs
1 1 .499600 .993292 .458861
2 1 .993785 .615574 .462394
3 1 .807002 .013662 .465467
4 1 .194756 .006184 .517252
5 1 .008716 .613278 .547866
6 1 .517951 .446539 .989604
7 1 .482195 .446499 .015613
ITEM: TIMESTEP
150
ITEM: NUMBER OF ATOMS
7
ITEM: BOX BOUNDS ss ss ss
-2.9818 3.2229
-2.5624 3.5143
-1.9862 2.0295
ITEM: ATOMS id type xs ys zs
1 1 .499355 .993283 .457640
2 1 .993052 .616436 .461835
3 1 .807154 .014714 .465191
4 1 .194396 .008168 .516417
5 1 .008421 .613829 .547934
6 1 .517458 .447353 .985945
7 1 .481808 .447005 .014918
ITEM: TIMESTEP
200
ITEM: NUMBER OF ATOMS
7
ITEM: BOX BOUNDS ss ss ss
-2.9818 3.2269
-2.5639 3.5180
-1.9862 2.0167
ITEM: ATOMS id type xs ys zs
1 1 .498787 .992234 .458946
2 1 .992428 .616415 .463495
3 1 .806968 .014731 .467450
4 1 .194103 .008779 .518409
5 1 .008039 .613058 .551111
6 1 .517104 .447410 .987517
7 1 .481595 .446566 .014345
ITEM: TIMESTEP
250
ITEM: NUMBER OF ATOMS
7
ITEM: BOX BOUNDS ss ss ss
-2.9818 3.2358
-2.5653 3.5189
-1.9862 2.0145
ITEM: ATOMS id type xs ys zs
1 1 .497448 .991173 .459469
2 1 .990964 .616520 .464668
3 1 .805770 .014636 .468360
4 1 .194061 .009047 .518632
5 1 .007436 .612481 .552548
6 1 .516282 .447929 .987550
7 1 .480847 .446320 .014177
ITEM: TIMESTEP
300
ITEM: NUMBER OF ATOMS
7
ITEM: BOX BOUNDS ss ss ss
-2.9875 3.2287
-2.5616 3.5126
-1.9862 2.0132
ITEM: ATOMS id type xs ys zs
1 1 .497884 .991331 .460306
2 1 .992263 .616936 .465753
3 1 .807042 .013636 .468517
4 1 .195041 .008613 .519145
5 1 .007673 .612581 .553205
6 1 .517195 .448400 .987352
7 1 .481764 .446049 .014084
ITEM: TIMESTEP
350
ITEM: NUMBER OF ATOMS
7
ITEM: BOX BOUNDS ss ss ss
-2.9928 3.2273
-2.5675 3.5039
-1.9862 2.0226
ITEM: ATOMS id type xs ys zs
1 1 .497844 .992096 .460723
2 1 .993099 .618276 .465599
3 1 .807703 .014160 .466755
4 1 .195725 .010266 .519212
5 1 .007597 .614209 .551592
6 1 .517657 .449963 .983820
7 1 .482410 .447123 .014178
ITEM: TIMESTEP
400
ITEM: NUMBER OF ATOMS
7
ITEM: BOX BOUNDS ss ss ss
-2.9944 3.2357
-2.5588 3.5047
-1.9862 2.0068
ITEM: ATOMS id type xs ys zs
1 1 .496977 .991674 .464102
2 1 .992507 .617504 .468567
3 1 .807065 .012854 .468100
4 1 .195556 .009724 .522258
5 1 .007052 .614299 .553113
6 1 .516959 .449644 .986213
7 1 .482122 .446338 .014306
ITEM: TIMESTEP
1
ITEM: NUMBER OF ATOMS
7
ITEM: BOX BOUNDS ss ss ss
-2.9818 3.2282
-2.5369 3.4767
-1.9862 1.9879
ITEM: ATOMS id type xs ys zs
1 1 .498666 .999362 .464253
2 1 .992970 .618289 .465588
3 1 .805778 .011097 .469590
4 1 .194362 .003372 .522211
5 1 .008139 .616206 .551735
6 1 .517416 .448158 .998915
7 1 .481617 .447703 .015256
ITEM: TIMESTEP
50
ITEM: NUMBER OF ATOMS
7
ITEM: BOX BOUNDS ss ss ss
-2.9818 3.2282
-2.5464 3.5006
-1.9862 2.0196
ITEM: ATOMS id type xs ys zs
1 1 .498696 .995911 .459523
2 1 .992728 .616459 .462233
3 1 .805640 .012538 .465595
4 1 .194416 .004575 .517785
5 1 .008537 .614376 .547599
6 1 .517380 .446990 .991479
7 1 .481526 .446933 .015643
ITEM: TIMESTEP
100
ITEM: NUMBER OF ATOMS
7
ITEM: BOX BOUNDS ss ss ss
-2.9818 3.2282
-2.5594 3.5126
-1.9862 2.0217
ITEM: ATOMS id type xs ys zs
1 1 .498772 .993926 .458766
2 1 .992251 .616235 .462734
3 1 .805767 .014514 .465228
4 1 .194367 .007029 .517463
5 1 .008808 .613905 .548113
6 1 .517176 .447223 .990031
7 1 .481358 .447233 .015560
ITEM: TIMESTEP
150
ITEM: NUMBER OF ATOMS
7
ITEM: BOX BOUNDS ss ss ss
-2.9818 3.2303
-2.5640 3.5360
-1.9862 2.0251
ITEM: ATOMS id type xs ys zs
1 1 .498579 .989576 .458396
2 1 .991362 .614712 .463166
3 1 .806075 .015298 .464486
4 1 .194289 .008402 .517347
5 1 .008455 .611761 .548826
6 1 .516447 .445901 .987772
7 1 .480868 .445907 .014604
ITEM: TIMESTEP
200
ITEM: NUMBER OF ATOMS
7
ITEM: BOX BOUNDS ss ss ss
-2.9818 3.2282
-2.5555 3.5142
-1.9862 2.0144
ITEM: ATOMS id type xs ys zs
1 1 .498941 .992608 .459775
2 1 .991267 .616728 .465189
3 1 .806969 .014271 .465999
4 1 .194530 .007558 .519023
5 1 .008018 .613413 .550960
6 1 .516158 .446384 .989222
7 1 .480664 .446852 .013726
ITEM: TIMESTEP
250
ITEM: NUMBER OF ATOMS
7
ITEM: BOX BOUNDS ss ss ss
-2.9818 3.2282
-2.5625 3.5140
-1.9862 2.0220
ITEM: ATOMS id type xs ys zs
1 1 .499231 .992041 .459219
2 1 .991529 .616849 .465164
3 1 .807368 .015336 .465670
4 1 .194439 .008970 .518197
5 1 .007688 .613867 .550499
6 1 .516197 .447052 .986440
7 1 .480677 .447231 .013548
ITEM: TIMESTEP
300
ITEM: NUMBER OF ATOMS
7
ITEM: BOX BOUNDS ss ss ss
-2.9818 3.2283
-2.5538 3.5108
-1.9862 2.0120
ITEM: ATOMS id type xs ys zs
1 1 .499469 .991676 .460282
2 1 .992472 .616072 .467319
3 1 .807408 .013106 .467111
4 1 .193741 .008086 .519216
5 1 .007358 .613151 .551760
6 1 .516627 .446610 .987877
7 1 .481397 .446006 .013523
ITEM: TIMESTEP
350
ITEM: NUMBER OF ATOMS
7
ITEM: BOX BOUNDS ss ss ss
-2.9834 3.2323
-2.5523 3.5052
-1.9895 2.0086
ITEM: ATOMS id type xs ys zs
1 1 .499125 .991418 .460414
2 1 .992694 .616310 .469085
3 1 .806703 .012082 .468240
4 1 .193299 .008628 .518919
5 1 .007774 .613086 .551976
6 1 .516828 .446762 .987518
7 1 .482486 .445475 .012936
ITEM: TIMESTEP
400
ITEM: NUMBER OF ATOMS
7
ITEM: BOX BOUNDS ss ss ss
-2.9826 3.2324
-2.5551 3.5107
-1.9922 2.0066
ITEM: ATOMS id type xs ys zs
1 1 .498377 .989359 .460631
2 1 .993285 .615973 .470701
3 1 .806296 .012062 .468629
4 1 .192711 .010169 .518051
5 1 .007879 .612493 .552579
6 1 .517157 .446556 .987156
7 1 .483410 .444932 .012131
ITEM: TIMESTEP
1
ITEM: NUMBER OF ATOMS
7
ITEM: BOX BOUNDS ss ss ss
-2.9689 3.2270
-2.5204 3.4771
-1.9814 1.9926
ITEM: ATOMS id type xs ys zs
1 1 .497721 .999288 .463064
2 1 .993157 .617193 .464402
3 1 .805542 .008367 .468407
4 1 .192726 .000616 .521020
5 1 .006076 .615105 .550551
6 1 .516511 .446605 .997734
7 1 .480634 .446149 .014067
ITEM: TIMESTEP
50
ITEM: NUMBER OF ATOMS
7
ITEM: BOX BOUNDS ss ss ss
-2.9689 3.2270
-2.5475 3.5043
-1.9814 2.0138
ITEM: ATOMS id type xs ys zs
1 1 .497766 .995370 .459488
2 1 .992907 .616127 .462322
3 1 .805398 .012691 .465648
4 1 .192771 .004684 .517889
5 1 .006492 .614080 .547919
6 1 .516483 .446823 .993003
7 1 .480608 .446779 .014561
ITEM: TIMESTEP
100
ITEM: NUMBER OF ATOMS
7
ITEM: BOX BOUNDS ss ss ss
-2.9689 3.2270
-2.5588 3.5188
-1.9814 2.0192
ITEM: ATOMS id type xs ys zs
1 1 .497893 .993015 .458333
2 1 .992518 .615605 .462512
3 1 .805567 .014293 .465349
4 1 .192836 .006788 .517041
5 1 .006806 .613193 .547981
6 1 .516295 .446740 .990675
7 1 .480663 .446750 .014618
ITEM: TIMESTEP
150
ITEM: NUMBER OF ATOMS
7
ITEM: BOX BOUNDS ss ss ss
-2.9723 3.2270
-2.5559 3.5154
-1.9814 2.0265
ITEM: ATOMS id type xs ys zs
1 1 .498310 .993487 .457862
2 1 .992454 .616107 .462304
3 1 .806108 .013456 .465579
4 1 .193494 .006841 .516217
5 1 .007262 .613207 .547775
6 1 .516354 .446387 .987110
7 1 .481174 .446610 .014044
ITEM: TIMESTEP
200
ITEM: NUMBER OF ATOMS
7
ITEM: BOX BOUNDS ss ss ss
-2.9760 3.2377
-2.5588 3.5171
-1.9814 2.0192
ITEM: ATOMS id type xs ys zs
1 1 .497718 .992765 .459320
2 1 .990638 .616269 .463507
3 1 .805348 .013931 .467376
4 1 .193531 .007753 .517090
5 1 .007736 .613165 .549517
6 1 .515558 .446348 .987945
7 1 .480875 .446322 .013154
ITEM: TIMESTEP
250
ITEM: NUMBER OF ATOMS
7
ITEM: BOX BOUNDS ss ss ss
-2.9727 3.2339
-2.5586 3.5199
-1.9857 2.0154
ITEM: ATOMS id type xs ys zs
1 1 .497574 .990032 .460766
2 1 .991851 .614928 .464792
3 1 .806011 .013566 .468969
4 1 .192434 .007590 .517806
5 1 .006640 .612330 .550569
6 1 .515101 .445736 .987214
7 1 .480980 .444801 .011893
ITEM: TIMESTEP
300
ITEM: NUMBER OF ATOMS
7
ITEM: BOX BOUNDS ss ss ss
-2.9774 3.2378
-2.5590 3.5068
-1.9927 2.0127
ITEM: ATOMS id type xs ys zs
1 1 .497314 .989165 .461592
2 1 .992130 .614702 .466770
3 1 .805177 .012963 .469727
4 1 .191934 .007023 .518957
5 1 .006282 .612441 .550864
6 1 .514907 .445846 .985470
7 1 .480763 .444385 .011478
ITEM: TIMESTEP
350
ITEM: NUMBER OF ATOMS
7
ITEM: BOX BOUNDS ss ss ss
-2.9834 3.2380
-2.5690 3.4921
-1.9939 2.0036
ITEM: ATOMS id type xs ys zs
1 1 .498117 .990649 .462834
2 1 .992295 .616676 .468824
3 1 .805534 .014052 .470497
4 1 .192602 .008958 .520371
5 1 .006747 .614042 .552174
6 1 .515518 .447552 .986843
7 1 .481261 .445926 .011879
ITEM: TIMESTEP
400
ITEM: NUMBER OF ATOMS
7
ITEM: BOX BOUNDS ss ss ss
-2.9883 3.2415
-2.5659 3.4822
-1.9913 2.0032
ITEM: ATOMS id type xs ys zs
1 1 .498275 .991383 .462591
2 1 .991833 .617520 .469222
3 1 .805515 .013458 .469687
4 1 .193172 .008906 .520303
5 1 .007224 .614523 .551969
6 1 .515552 .447887 .986527
7 1 .481349 .445981 .011150
ITEM: TIMESTEP
1
ITEM: NUMBER OF ATOMS
7
ITEM: BOX BOUNDS ss ss ss
-2.9719 3.2283
-2.5374 3.4767
-1.9816 1.9926
ITEM: ATOMS id type xs ys zs
1 1 .497854 .999357 .463083
2 1 .992942 .618314 .464417
3 1 .805456 .011171 .468424
4 1 .193070 .003441 .521041
5 1 .006555 .616230 .550563
6 1 .516632 .448196 .997730
7 1 .480779 .447739 .014100
ITEM: TIMESTEP
50
ITEM: NUMBER OF ATOMS
7
ITEM: BOX BOUNDS ss ss ss
-2.9719 3.2283
-2.5497 3.5040
-1.9816 2.0140
ITEM: ATOMS id type xs ys zs
1 1 .497873 .995500 .459373
2 1 .992690 .616297 .462219
3 1 .805275 .013054 .465596
4 1 .193106 .004968 .517837
5 1 .006961 .614227 .547894
6 1 .516604 .447019 .993091
7 1 .480711 .447049 .014650
ITEM: TIMESTEP
100
ITEM: NUMBER OF ATOMS
7
ITEM: BOX BOUNDS ss ss ss
-2.9719 3.2283
-2.5547 3.5163
-1.9816 2.0233
ITEM: ATOMS id type xs ys zs
1 1 .497967 .993634 .457481
2 1 .992260 .615460 .461780
3 1 .805332 .013622 .464376
4 1 .193132 .006013 .516420
5 1 .007367 .613169 .547316
6 1 .516432 .446494 .990012
7 1 .480626 .446694 .014822
ITEM: TIMESTEP
150
ITEM: NUMBER OF ATOMS
7
ITEM: BOX BOUNDS ss ss ss
-2.9719 3.2295
-2.5610 3.5227
-1.9816 2.0259
ITEM: ATOMS id type xs ys zs
1 1 .497828 .992185 .456540
2 1 .991967 .615407 .462544
3 1 .805355 .014001 .464022
4 1 .192930 .007672 .515597
5 1 .007435 .613135 .547851
6 1 .516305 .446876 .987978
7 1 .480758 .446510 .014533
ITEM: TIMESTEP
200
ITEM: NUMBER OF ATOMS
7
ITEM: BOX BOUNDS ss ss ss
-2.9719 3.2288
-2.5595 3.5208
-1.9816 2.0325
ITEM: ATOMS id type xs ys zs
1 1 .497211 .992235 .454656
2 1 .991737 .615699 .462455
3 1 .805783 .013069 .463638
4 1 .192873 .007905 .513990
5 1 .007256 .613656 .548318
6 1 .516219 .447059 .985131
7 1 .480693 .445949 .014197
ITEM: TIMESTEP
250
ITEM: NUMBER OF ATOMS
7
ITEM: BOX BOUNDS ss ss ss
-2.9732 3.2283
-2.5616 3.5239
-1.9858 2.0391
ITEM: ATOMS id type xs ys zs
1 1 .497153 .991521 .453731
2 1 .991410 .615519 .462837
3 1 .806293 .013162 .463960
4 1 .193195 .008643 .512995
5 1 .007479 .613826 .549258
6 1 .516370 .447024 .983102
7 1 .480613 .445423 .014538
ITEM: TIMESTEP
300
ITEM: NUMBER OF ATOMS
7
ITEM: BOX BOUNDS ss ss ss
-2.9747 3.2283
-2.5562 3.5167
-1.9816 2.0344
ITEM: ATOMS id type xs ys zs
1 1 .497835 .991985 .453362
2 1 .991086 .615736 .463697
3 1 .806791 .012579 .465037
4 1 .193506 .008536 .512557
5 1 .007934 .614472 .550866
6 1 .516549 .446885 .984422
7 1 .480648 .445291 .012257
ITEM: TIMESTEP
350
ITEM: NUMBER OF ATOMS
7
ITEM: BOX BOUNDS ss ss ss
-2.9828 3.2283
-2.5556 3.5345
-1.9946 2.0267
ITEM: ATOMS id type xs ys zs
1 1 .498936 .988271 .455265
2 1 .991200 .613575 .467447
3 1 .807666 .012852 .468617
4 1 .195039 .008805 .514594
5 1 .009212 .612825 .554925
6 1 .516942 .445308 .986454
7 1 .481429 .444050 .014521
ITEM: TIMESTEP
400
ITEM: NUMBER OF ATOMS
7
ITEM: BOX BOUNDS ss ss ss
-2.9842 3.2283
-2.5555 3.5273
-1.9969 2.0274
ITEM: ATOMS id type xs ys zs
1 1 .499138 .988963 .454293
2 1 .991563 .614151 .468960
3 1 .808018 .013481 .469629
4 1 .195492 .008905 .514378
5 1 .009430 .613755 .556626
6 1 .516991 .446024 .986312
7 1 .481672 .444425 .014552
ITEM: TIMESTEP
450
ITEM: NUMBER OF ATOMS
7
ITEM: BOX BOUNDS ss ss ss
-2.9796 3.2270
-2.5625 3.5234
-2.0014 2.0294
ITEM: ATOMS id type xs ys zs
1 1 .499323 .989023 .454042
2 1 .992274 .614931 .470473
3 1 .808193 .015230 .470193
4 1 .195005 .010522 .514951
5 1 .008839 .614873 .557913
6 1 .516868 .447220 .986100
7 1 .481299 .445022 .014834
ITEM: TIMESTEP
500
ITEM: NUMBER OF ATOMS
7
ITEM: BOX BOUNDS ss ss ss
-2.9790 3.2233
-2.5645 3.5159
-1.9945 2.0318
ITEM: ATOMS id type xs ys zs
1 1 .500132 .989423 .452640
2 1 .993251 .615636 .470368
3 1 .808563 .016148 .468366
4 1 .194941 .011775 .514395
5 1 .008778 .615910 .557653
6 1 .517231 .448291 .986127
7 1 .481360 .445628 .012104
ITEM: TIMESTEP
550
ITEM: NUMBER OF ATOMS
7
ITEM: BOX BOUNDS ss ss ss
-2.9784 3.2298
-2.5573 3.5247
-2.0033 2.0390
ITEM: ATOMS id type xs ys zs
1 1 .499571 .987255 .453076
2 1 .992320 .614310 .472002
3 1 .807755 .015414 .468140
4 1 .194625 .011128 .515249
5 1 .008412 .614660 .558013
6 1 .516490 .447005 .984806
7 1 .480652 .444280 .013526
ITEM: TIMESTEP
600
ITEM: NUMBER OF ATOMS
7
ITEM: BOX BOUNDS ss ss ss
-2.9826 3.2424
-2.5449 3.5072
-2.0122 2.0258
ITEM: ATOMS id type xs ys zs
1 1 .498899 .989870 .455950
2 1 .990476 .615342 .476191
3 1 .806295 .013636 .470612
4 1 .194666 .009598 .518625
5 1 .008911 .615917 .561149
6 1 .515627 .446900 .988023
7 1 .480049 .444588 .015526
ITEM: TIMESTEP
650
ITEM: NUMBER OF ATOMS
7
ITEM: BOX BOUNDS ss ss ss
-2.9886 3.2365
-2.5440 3.5066
-2.0114 2.0318
ITEM: ATOMS id type xs ys zs
1 1 .500071 .989960 .455350
2 1 .991567 .615318 .476049
3 1 .807247 .013199 .470192
4 1 .195466 .009804 .517852
5 1 .009923 .616238 .560262
6 1 .516615 .446551 .985980
7 1 .481396 .444564 .015190
ITEM: TIMESTEP
700
ITEM: NUMBER OF ATOMS
7
ITEM: BOX BOUNDS ss ss ss
-2.9849 3.2404
-2.5481 3.5019
-2.0134 2.0363
ITEM: ATOMS id type xs ys zs
1 1 .499693 .990855 .455069
2 1 .990987 .616094 .475952
3 1 .806638 .013576 .470295
4 1 .194699 .010623 .517287
5 1 .009299 .617164 .560111
6 1 .515980 .447039 .984398
7 1 .480995 .445187 .015656
ITEM: TIMESTEP
750
ITEM: NUMBER OF ATOMS
7
ITEM: BOX BOUNDS ss ss ss
-2.9907 3.2453
-2.5481 3.5141
-2.0066 2.0424
ITEM: ATOMS id type xs ys zs
1 1 .499872 .988757 .453480
2 1 .990408 .614832 .474290
3 1 .806119 .013390 .468823
4 1 .195012 .010736 .515690
5 1 .010062 .616178 .558687
6 1 .516022 .446195 .982491
7 1 .481189 .444221 .014151
ITEM: TIMESTEP
1
ITEM: NUMBER OF ATOMS
7
ITEM: BOX BOUNDS ss ss ss
-2.9657 3.2361
-2.5238 3.4768
-1.9728 2.0052
ITEM: ATOMS id type xs ys zs
1 1 .496726 .999337 .460421
2 1 .991687 .617437 .461759
3 1 .804247 .008934 .465759
4 1 .192020 .001181 .518326
5 1 .005545 .615351 .547821
6 1 .515500 .446939 .994550
7 1 .479656 .446484 .011881
ITEM: TIMESTEP
50
ITEM: NUMBER OF ATOMS
7
ITEM: BOX BOUNDS ss ss ss
-2.9657 3.2361
-2.5478 3.5027
-1.9728 2.0136
ITEM: ATOMS id type xs ys zs
1 1 .496770 .995780 .458185
2 1 .991444 .616318 .461159
3 1 .804068 .012746 .464458
4 1 .192079 .004594 .516818
5 1 .006001 .614279 .546956
6 1 .515489 .446905 .993253
7 1 .479613 .446948 .012518
ITEM: TIMESTEP
100
ITEM: NUMBER OF ATOMS
7
ITEM: BOX BOUNDS ss ss ss
-2.9657 3.2361
-2.5611 3.5165
-1.9728 2.0292
ITEM: ATOMS id type xs ys zs
1 1 .496869 .993633 .455838
2 1 .990975 .615903 .460092
3 1 .804206 .014825 .462684
4 1 .192018 .007025 .514533
5 1 .006554 .613758 .545502
6 1 .515339 .446981 .988556
7 1 .479558 .447116 .012443
ITEM: TIMESTEP
150
ITEM: NUMBER OF ATOMS
7
ITEM: BOX BOUNDS ss ss ss
-2.9657 3.2361
-2.5611 3.5215
-1.9744 2.0208
ITEM: ATOMS id type xs ys zs
1 1 .497143 .992482 .457591
2 1 .990375 .615609 .461877
3 1 .804368 .014676 .464967
4 1 .191560 .007770 .516152
5 1 .006726 .613448 .547543
6 1 .515084 .446503 .989314
7 1 .479523 .446477 .011469
ITEM: TIMESTEP
200
ITEM: NUMBER OF ATOMS
7
ITEM: BOX BOUNDS ss ss ss
-2.9698 3.2361
-2.5627 3.5245
-1.9769 2.0274
ITEM: ATOMS id type xs ys zs
1 1 .497681 .991414 .457476
2 1 .990007 .615771 .462048
3 1 .804399 .014812 .464795
4 1 .191738 .008298 .515969
5 1 .007544 .613143 .547695
6 1 .515400 .445917 .986997
7 1 .479702 .446268 .010943
ITEM: TIMESTEP
250
ITEM: NUMBER OF ATOMS
7
ITEM: BOX BOUNDS ss ss ss
-2.9717 3.2361
-2.5790 3.5286
-1.9804 2.0243
ITEM: ATOMS id type xs ys zs
1 1 .497524 .990070 .458088
2 1 .990383 .616341 .463017
3 1 .804623 .017588 .465249
4 1 .191887 .011528 .516197
5 1 .007572 .613698 .549281
6 1 .515353 .447054 .987114
7 1 .479858 .447666 .011427
ITEM: TIMESTEP
300
ITEM: NUMBER OF ATOMS
7
ITEM: BOX BOUNDS ss ss ss
-2.9761 3.2361
-2.5594 3.5192
-1.9795 2.0225
ITEM: ATOMS id type xs ys zs
1 1 .497585 .990527 .457608
2 1 .991911 .615179 .463660
3 1 .804285 .014540 .464699
4 1 .192577 .010031 .515921
5 1 .007043 .613443 .549050
6 1 .515261 .447901 .985706
7 1 .480718 .446844 .010641
ITEM: TIMESTEP
350
ITEM: NUMBER OF ATOMS
7
ITEM: BOX BOUNDS ss ss ss
-2.9843 3.2361
-2.5528 3.5184
-1.9812 2.0148
ITEM: ATOMS id type xs ys zs
1 1 .497988 .989630 .457399
2 1 .992914 .614722 .466909
3 1 .804466 .013101 .465163
4 1 .193717 .010854 .517885
5 1 .007621 .612912 .548834
6 1 .515770 .448548 .986551
7 1 .483026 .446288 .009671
ITEM: TIMESTEP
400
ITEM: NUMBER OF ATOMS
7
ITEM: BOX BOUNDS ss ss ss
-2.9911 3.2361
-2.5444 3.5052
-1.9975 2.0065
ITEM: ATOMS id type xs ys zs
1 1 .498123 .990938 .459951
2 1 .993014 .615726 .472223
3 1 .804990 .011563 .468222
4 1 .194128 .010440 .520767
5 1 .008721 .613955 .550803
6 1 .516267 .448855 .988524
7 1 .484396 .445764 .012359
ITEM: TIMESTEP
1
ITEM: NUMBER OF ATOMS
7
ITEM: BOX BOUNDS ss ss ss
-2.9657 3.2361
-2.5238 3.4765
-1.9792 2.0052
ITEM: ATOMS id type xs ys zs
1 1 .496727 .999391 .461279
2 1 .991687 .617468 .462614
3 1 .804249 .008934 .466608
4 1 .192018 .001186 .519090
5 1 .005547 .615386 .548537
6 1 .515500 .446963 .994558
7 1 .479656 .446509 .013461
ITEM: TIMESTEP
50
ITEM: NUMBER OF ATOMS
7
ITEM: BOX BOUNDS ss ss ss
-2.9657 3.2361
-2.5479 3.5061
-1.9792 2.0133
ITEM: ATOMS id type xs ys zs
1 1 .496775 .995242 .458973
2 1 .991389 .615979 .462046
3 1 .804052 .012761 .465323
4 1 .192066 .004578 .517578
5 1 .006000 .613950 .547706
6 1 .515504 .446623 .993405
7 1 .479606 .446726 .014124
ITEM: TIMESTEP
100
ITEM: NUMBER OF ATOMS
7
ITEM: BOX BOUNDS ss ss ss
-2.9657 3.2361
-2.5563 3.5157
-1.9792 2.0242
ITEM: ATOMS id type xs ys zs
1 1 .496888 .993852 .456839
2 1 .990885 .615644 .461431
3 1 .804093 .013915 .463767
4 1 .192112 .006026 .516022
5 1 .006489 .613469 .547111
6 1 .515317 .446486 .990148
7 1 .479466 .446844 .014325
ITEM: TIMESTEP
150
ITEM: NUMBER OF ATOMS
7
ITEM: BOX BOUNDS ss ss ss
-2.9657 3.2361
-2.5620 3.5227
-1.9792 2.0302
ITEM: ATOMS id type xs ys zs
1 1 .496820 .992324 .455476
2 1 .990697 .615529 .461417
3 1 .804714 .014753 .463290
4 1 .191967 .007861 .515243
5 1 .006602 .613600 .547744
6 1 .515133 .446550 .987476
7 1 .479472 .446912 .013746
ITEM: TIMESTEP
200
ITEM: NUMBER OF ATOMS
7
ITEM: BOX BOUNDS ss ss ss
-2.9707 3.2361
-2.5577 3.5145
-1.9792 2.0253
ITEM: ATOMS id type xs ys zs
1 1 .497047 .992656 .455234
2 1 .991374 .617130 .463633
3 1 .807421 .015229 .465058
4 1 .192666 .009360 .514292
5 1 .006684 .615547 .552186
6 1 .515550 .447033 .988126
7 1 .480673 .447027 .013211
ITEM: TIMESTEP
250
ITEM: NUMBER OF ATOMS
7
ITEM: BOX BOUNDS ss ss ss
-2.9770 3.2361
-2.5442 3.5100
-1.9792 2.0195
ITEM: ATOMS id type xs ys zs
1 1 .497548 .993062 .454926
2 1 .991195 .617604 .465330
3 1 .808863 .013314 .466459
4 1 .193903 .007914 .514174
5 1 .007827 .615883 .555607
6 1 .516383 .445883 .988740
7 1 .481354 .445759 .012738
ITEM: TIMESTEP
300
ITEM: NUMBER OF ATOMS
7
ITEM: BOX BOUNDS ss ss ss
-2.9735 3.2361
-2.5438 3.5122
-1.9792 2.0199
ITEM: ATOMS id type xs ys zs
1 1 .497049 .992373 .454308
2 1 .990991 .617891 .465865
3 1 .808938 .013153 .466636
4 1 .193624 .008133 .514000
5 1 .007398 .615789 .556391
6 1 .516209 .445234 .987848
7 1 .481033 .445282 .012363
ITEM: TIMESTEP
350
ITEM: NUMBER OF ATOMS
7
ITEM: BOX BOUNDS ss ss ss
-2.9814 3.2361
-2.5472 3.5177
-1.9833 2.0332
ITEM: ATOMS id type xs ys zs
1 1 .497609 .990796 .453005
2 1 .991446 .617851 .466071
3 1 .809397 .014127 .465184
4 1 .194301 .009299 .512913
5 1 .008367 .615327 .554975
6 1 .516694 .444928 .983549
7 1 .481671 .445063 .012772
ITEM: TIMESTEP
400
ITEM: NUMBER OF ATOMS
7
ITEM: BOX BOUNDS ss ss ss
-2.9862 3.2428
-2.5513 3.5132
-1.9887 2.0159
ITEM: ATOMS id type xs ys zs
1 1 .497123 .990086 .455492
2 1 .991529 .618486 .469769
3 1 .809026 .015753 .465510
4 1 .193821 .010894 .516120
5 1 .007737 .615601 .556182
6 1 .516051 .446378 .985594
7 1 .481265 .445458 .013353
ITEM: TIMESTEP
1
ITEM: NUMBER OF ATOMS
7
ITEM: BOX BOUNDS ss ss ss
-2.9807 3.2361
-2.5238 3.4769
-1.9869 2.0052
ITEM: ATOMS id type xs ys zs
1 1 .497944 .999314 .462326