ITEM: TIMESTEP
1
ITEM: NUMBER OF ATOMS
7
ITEM: BOX BOUNDS ss ss ss
-2.8481 3.4265
-2.8778 3.1490
-1.7401 2.1158
ITEM: ATOMS id type xs ys zs
1 1 .485819 .999095 .469491
2 1 .999726 .637811 .512451
3 1 .818482 .030595 .526668
4 1 .216754 .000839 .484794
5 1 .000354 .612314 .465318
6 1 .485581 .464368 .998883
7 1 .512026 .454100 .001043
ITEM: TIMESTEP
50
ITEM: NUMBER OF ATOMS
7
ITEM: BOX BOUNDS ss ss ss
-2.8719 3.4514
-2.9083 3.1722
-1.7589 2.1372
ITEM: ATOMS id type xs ys zs
1 1 .487412 .995805 .469078
2 1 .995103 .638176 .510914
3 1 .816628 .037085 .523381
4 1 .220012 .005833 .483257
5 1 .003842 .610732 .465940
6 1 .486395 .465127 .995658
7 1 .510518 .455780 .007759
ITEM: TIMESTEP
100
ITEM: NUMBER OF ATOMS
7
ITEM: BOX BOUNDS ss ss ss
-2.8789 3.4553
-2.9207 3.1815
-1.7767 2.1434
ITEM: ATOMS id type xs ys zs
1 1 .489540 .995783 .468850
2 1 .995844 .635935 .512664
3 1 .817414 .037624 .525008
4 1 .219799 .007204 .484778
5 1 .005199 .612010 .466586
6 1 .488342 .464396 .994032
7 1 .509218 .458164 .013058
ITEM: TIMESTEP
150
ITEM: NUMBER OF ATOMS
7
ITEM: BOX BOUNDS ss ss ss
-2.8849 3.4561
-2.9064 3.1897
-1.7756 2.1368
ITEM: ATOMS id type xs ys zs
1 1 .488409 .995443 .472622
2 1 .991799 .634138 .515170
3 1 .815961 .038035 .531514
4 1 .216101 .007494 .489132
5 1 .007437 .609049 .468018
6 1 .486626 .465730 .989012
7 1 .509406 .450350 .005566
ITEM: TIMESTEP
200
ITEM: NUMBER OF ATOMS
7
ITEM: BOX BOUNDS ss ss ss
-2.8833 3.4464
-2.9067 3.1880
-1.7810 2.1417
ITEM: ATOMS id type xs ys zs
1 1 .489959 .996546 .470167
2 1 .993632 .636208 .515270
3 1 .817971 .037612 .530629
4 1 .216716 .006623 .487433
5 1 .007522 .610515 .466834
6 1 .487931 .465736 .988616
7 1 .508373 .448940 .008170
ITEM: TIMESTEP
250
ITEM: NUMBER OF ATOMS
7
ITEM: BOX BOUNDS ss ss ss
-2.8890 3.4325
-2.8980 3.1917
-1.7899 2.1378
ITEM: ATOMS id type xs ys zs
1 1 .488316 .992149 .476311
2 1 .991865 .634771 .518556
3 1 .820389 .035149 .533536
4 1 .218938 .008018 .493144
5 1 .007492 .605431 .474028
6 1 .487856 .467357 .989408
7 1 .512705 .449337 .012578
ITEM: TIMESTEP
300
ITEM: NUMBER OF ATOMS
7
ITEM: BOX BOUNDS ss ss ss
-2.8918 3.4275
-2.8942 3.1943
-1.8036 2.1480
ITEM: ATOMS id type xs ys zs
1 1 .484033 .989677 .476772
2 1 .993022 .635751 .518555
3 1 .822899 .034173 .533942
4 1 .219942 .011243 .493443
5 1 .007000 .603478 .477084
6 1 .492095 .464893 .987610
7 1 .517142 .450706 .011468
ITEM: TIMESTEP
350
ITEM: NUMBER OF ATOMS
7
ITEM: BOX BOUNDS ss ss ss
-2.8880 3.4237
-2.8868 3.1860
-1.8052 2.1535
ITEM: ATOMS id type xs ys zs
1 1 .491669 .996657 .479751
2 1 .989699 .630412 .517508
3 1 .819149 .030731 .526710
4 1 .218699 .007492 .495675
5 1 .010122 .603365 .468454
6 1 .489944 .461357 .987941
7 1 .514338 .452042 .011015
ITEM: TIMESTEP
400
ITEM: NUMBER OF ATOMS
7
ITEM: BOX BOUNDS ss ss ss
-2.8913 3.4212
-2.8849 3.1865
-1.8059 2.1607
ITEM: ATOMS id type xs ys zs
1 1 .487498 .993205 .474747
2 1 .992430 .635331 .516414
3 1 .821288 .032786 .532837
4 1 .221213 .007452 .492419
5 1 .011382 .598234 .471965
6 1 .493654 .466427 .986079
7 1 .518120 .449795 .009933
ITEM: TIMESTEP
1
ITEM: NUMBER OF ATOMS
7
ITEM: BOX BOUNDS ss ss ss
-2.8700 3.4273
-2.8777 3.1652
-1.7956 2.1387
ITEM: ATOMS id type xs ys zs
1 1 .487350 .996633 .474266
2 1 .999463 .636382 .517164
3 1 .819001 .030214 .529740
4 1 .219188 .000305 .489731
5 1 .003628 .610588 .470278
6 1 .487185 .462981 .993224
7 1 .513902 .452795 .015112
ITEM: TIMESTEP
50
ITEM: NUMBER OF ATOMS
7
ITEM: BOX BOUNDS ss ss ss
-2.8780 3.4510
-2.9018 3.1714
-1.7956 2.1387
ITEM: ATOMS id type xs ys zs
1 1 .485183 .994953 .473410
2 1 .995393 .635942 .519040
3 1 .815182 .034669 .528398
4 1 .219121 .004654 .489324
5 1 .003996 .612590 .468652
6 1 .485301 .464575 .992519
7 1 .513546 .453549 .017579
ITEM: TIMESTEP
100
ITEM: NUMBER OF ATOMS
7
ITEM: BOX BOUNDS ss ss ss
-2.8811 3.4589
-2.9131 3.1773
-1.7956 2.1397
ITEM: ATOMS id type xs ys zs
1 1 .486731 .998057 .475596
2 1 .992740 .634025 .515856
3 1 .815100 .038331 .532650
4 1 .218518 .005155 .491052
5 1 .005501 .611949 .468965
6 1 .482183 .467289 .989264
7 1 .511645 .455080 .015318
ITEM: TIMESTEP
150
ITEM: NUMBER OF ATOMS
7
ITEM: BOX BOUNDS ss ss ss
-2.8859 3.4477
-2.9166 3.1858
-1.7956 2.1471
ITEM: ATOMS id type xs ys zs
1 1 .490026 .995697 .468784
2 1 .992655 .638891 .514308
3 1 .817492 .037848 .524215
4 1 .222750 .008957 .492721
5 1 .006284 .612130 .468209
6 1 .490800 .463562 .987004
7 1 .512925 .457431 .013694
ITEM: TIMESTEP
200
ITEM: NUMBER OF ATOMS
7
ITEM: BOX BOUNDS ss ss ss
-2.8846 3.4424
-2.9054 3.1956
-1.7956 2.1421
ITEM: ATOMS id type xs ys zs
1 1 .488711 .995170 .480197
2 1 .988835 .641262 .510931
3 1 .822249 .032156 .527386
4 1 .221378 .006688 .487761
5 1 .006829 .612002 .471007
6 1 .492453 .460539 .989008
7 1 .513289 .449402 .022181
ITEM: TIMESTEP
250
ITEM: NUMBER OF ATOMS
7
ITEM: BOX BOUNDS ss ss ss
-2.8896 3.4339
-2.9134 3.1979
-1.7971 2.1498
ITEM: ATOMS id type xs ys zs
1 1 .488583 .992603 .480740
2 1 .992223 .635542 .513145
3 1 .823657 .033457 .528686
4 1 .221671 .005975 .486737
5 1 .006991 .606185 .475063
6 1 .490731 .461066 .988566
7 1 .511039 .453106 .018616
ITEM: TIMESTEP
300
ITEM: NUMBER OF ATOMS
7
ITEM: BOX BOUNDS ss ss ss
-2.8907 3.4302
-2.9092 3.1921
-1.8064 2.1457
ITEM: ATOMS id type xs ys zs
1 1 .491083 .992731 .478585
2 1 .993529 .632497 .521809
3 1 .822662 .036490 .531105
4 1 .217172 .013143 .486749
5 1 .008679 .606314 .473069
6 1 .488619 .461539 .988245
7 1 .515343 .453729 .012032
ITEM: TIMESTEP
350
ITEM: NUMBER OF ATOMS
7
ITEM: BOX BOUNDS ss ss ss
-2.8847 3.4311
-2.8995 3.1888
-1.8141 2.1529
ITEM: ATOMS id type xs ys zs
1 1 .490672 .994331 .481440
2 1 .994434 .633265 .518498
3 1 .822461 .035674 .531800
4 1 .214741 .009526 .490584
5 1 .008248 .605448 .472410
6 1 .489303 .461175 .986873
7 1 .516276 .455083 .015019
ITEM: TIMESTEP
400
ITEM: NUMBER OF ATOMS
7
ITEM: BOX BOUNDS ss ss ss
-2.8830 3.4253
-2.8903 3.1915
-1.8165 2.1484
ITEM: ATOMS id type xs ys zs
1 1 .492168 .994761 .475784
2 1 .991215 .634793 .514649
3 1 .820694 .035482 .540220
4 1 .218938 .007048 .496495
5 1 .007015 .604550 .469267
6 1 .491953 .468370 .990211
7 1 .514869 .450773 .011859
ITEM: TIMESTEP
1
ITEM: NUMBER OF ATOMS
7
ITEM: BOX BOUNDS ss ss ss
-2.8569 3.4267
-2.8789 3.1595
-1.8023 2.1401
ITEM: ATOMS id type xs ys zs
1 1 .486225 .997330 .475500
2 1 .999302 .636548 .517751
3 1 .818607 .030495 .530646
4 1 .217934 .000576 .490822
5 1 .001721 .611739 .471485
6 1 .485888 .463825 .992356
7 1 .512534 .453350 .016749
ITEM: TIMESTEP
50
ITEM: NUMBER OF ATOMS
7
ITEM: BOX BOUNDS ss ss ss
-2.8749 3.4523
-2.9038 3.1723
-1.8023 2.1401
ITEM: ATOMS id type xs ys zs
1 1 .485342 .997229 .472072
2 1 .996202 .635000 .519584
3 1 .815391 .032849 .532761
4 1 .216200 .004833 .488157
5 1 .003859 .611599 .473634
6 1 .484418 .465317 .993972
7 1 .513026 .455854 .015692
ITEM: TIMESTEP
100
ITEM: NUMBER OF ATOMS
7
ITEM: BOX BOUNDS ss ss ss
-2.8841 3.4547
-2.9162 3.1829
-1.8023 2.1447
ITEM: ATOMS id type xs ys zs
1 1 .489822 .994315 .473448
2 1 .992119 .637195 .517279
3 1 .816482 .032354 .529779
4 1 .220187 .009882 .488413
5 1 .006215 .612571 .470331
6 1 .488054 .465654 .991058
7 1 .512950 .454398 .018646
ITEM: TIMESTEP
150
ITEM: NUMBER OF ATOMS
7
ITEM: BOX BOUNDS ss ss ss
-2.8855 3.4507
-2.9251 3.1873
-1.8023 2.1417
ITEM: ATOMS id type xs ys zs
1 1 .491623 .993456 .473334
2 1 .992602 .636727 .518819
3 1 .819043 .033164 .531463
4 1 .218146 .012496 .488154
5 1 .005745 .614113 .471454
6 1 .487467 .466243 .994417
7 1 .513915 .454325 .018391
ITEM: TIMESTEP
200
ITEM: NUMBER OF ATOMS
7
ITEM: BOX BOUNDS ss ss ss
-2.8902 3.4444
-2.9155 3.1871
-1.8023 2.1418
ITEM: ATOMS id type xs ys zs
1 1 .489694 .996299 .470054
2 1 .993813 .635219 .517183
3 1 .821595 .037519 .529581
4 1 .219040 .005675 .491992
5 1 .003531 .609561 .475534
6 1 .486293 .465107 .984844
7 1 .513811 .453991 .016124
ITEM: TIMESTEP
250
ITEM: NUMBER OF ATOMS
7
ITEM: BOX BOUNDS ss ss ss
-2.8903 3.4417
-2.9145 3.1900
-1.8023 2.1406
ITEM: ATOMS id type xs ys zs
1 1 .493358 .991709 .474840
2 1 .992428 .637529 .516356
3 1 .820525 .038237 .535483
4 1 .220380 .008708 .488828
5 1 .003650 .604818 .474666
6 1 .486485 .466995 .988976
7 1 .515958 .451708 .011248
ITEM: TIMESTEP
300
ITEM: NUMBER OF ATOMS
7
ITEM: BOX BOUNDS ss ss ss
-2.8856 3.4362
-2.9099 3.1890
-1.8023 2.1420
ITEM: ATOMS id type xs ys zs
1 1 .493578 .993227 .473530
2 1 .991634 .636073 .520209
3 1 .823814 .033067 .531782
4 1 .218780 .008171 .491037
5 1 .008532 .606227 .464884
6 1 .488285 .462624 .980196
7 1 .516817 .453452 .011526
ITEM: TIMESTEP
350
ITEM: NUMBER OF ATOMS
7
ITEM: BOX BOUNDS ss ss ss
-2.8923 3.4383
-2.9117 3.1902
-1.8034 2.1432
ITEM: ATOMS id type xs ys zs
1 1 .493655 .992920 .476453
2 1 .994422 .632917 .519622
3 1 .822420 .038806 .536213
4 1 .217401 .008161 .496567
5 1 .008775 .605076 .473539
6 1 .488022 .465036 .992479
7 1 .511136 .452745 .012905
ITEM: TIMESTEP
400
ITEM: NUMBER OF ATOMS
7
ITEM: BOX BOUNDS ss ss ss
-2.8907 3.4400
-2.9087 3.1829
-1.8094 2.1524
ITEM: ATOMS id type xs ys zs
1 1 .489721 .995356 .476314
2 1 .989215 .635617 .526417
3 1 .822179 .036907 .536094
4 1 .215413 .010312 .491640
5 1 .010232 .605046 .471083
6 1 .488411 .464347 .983858
7 1 .515635 .452567 .013603
ITEM: TIMESTEP
1
ITEM: NUMBER OF ATOMS
7
ITEM: BOX BOUNDS ss ss ss
-2.8616 3.4269
-2.8774 3.1595
-1.8051 2.1437
ITEM: ATOMS id type xs ys zs
1 1 .487045 .997708 .475257
2 1 .999196 .636654 .517393
3 1 .818846 .030367 .530743
4 1 .218389 .000446 .490152
5 1 .002717 .611609 .470580
6 1 .486546 .463755 .991781
7 1 .513294 .453694 .017854
ITEM: TIMESTEP
50
ITEM: NUMBER OF ATOMS
7
ITEM: BOX BOUNDS ss ss ss
-2.8750 3.4511
-2.9029 3.1729
-1.8051 2.1437
ITEM: ATOMS id type xs ys zs
1 1 .486743 .996573 .470228
2 1 .996246 .635884 .517211
3 1 .813116 .033621 .532503
4 1 .219317 .004684 .490492
5 1 .004647 .612096 .473514
6 1 .485620 .466017 .991212
7 1 .513166 .455967 .019748
ITEM: TIMESTEP
100
ITEM: NUMBER OF ATOMS
7
ITEM: BOX BOUNDS ss ss ss
-2.8842 3.4558
-2.9139 3.1828
-1.8051 2.1459
ITEM: ATOMS id type xs ys zs
1 1 .483784 .991838 .472379
2 1 .993062 .636777 .522896
3 1 .815612 .036446 .528586
4 1 .220800 .008765 .490037
5 1 .004122 .610664 .475902
6 1 .486467 .464867 .991810
7 1 .515258 .452828 .014422
ITEM: TIMESTEP
150
ITEM: NUMBER OF ATOMS
7
ITEM: BOX BOUNDS ss ss ss
-2.8880 3.4561
-2.9143 3.1965
-1.8051 2.1437
ITEM: ATOMS id type xs ys zs
1 1 .488982 .991765 .476891
2 1 .991507 .632809 .515074
3 1 .815659 .036784 .527724
4 1 .215485 .007957 .489646
5 1 .007051 .609860 .475121
6 1 .487129 .462210 .989598
7 1 .510124 .456281 .018465
ITEM: TIMESTEP
200
ITEM: NUMBER OF ATOMS
7
ITEM: BOX BOUNDS ss ss ss
-2.8891 3.4527
-2.9063 3.1970
-1.8051 2.1437
ITEM: ATOMS id type xs ys zs
1 1 .487769 .992964 .477420
2 1 .991407 .633048 .514058
3 1 .815318 .035417 .530890
4 1 .216828 .007570 .483326
5 1 .007838 .610794 .477512
6 1 .490313 .464374 .985617
7 1 .509300 .452048 .010616
ITEM: TIMESTEP
250
ITEM: NUMBER OF ATOMS
7
ITEM: BOX BOUNDS ss ss ss
-2.8964 3.4349
-2.9104 3.2036
-1.8051 2.1437
ITEM: ATOMS id type xs ys zs
1 1 .493073 .991986 .477305
2 1 .991736 .637182 .515018
3 1 .820010 .037758 .529036
4 1 .217390 .006072 .488160
5 1 .008347 .610733 .473551
6 1 .491789 .460580 .984991
7 1 .510268 .450726 .014001
ITEM: TIMESTEP
300
ITEM: NUMBER OF ATOMS
7
ITEM: BOX BOUNDS ss ss ss
-2.8901 3.4392
-2.9011 3.1996
-1.8051 2.1437
ITEM: ATOMS id type xs ys zs
1 1 .493027 .991511 .479036
2 1 .990484 .635236 .512808
3 1 .817365 .033594 .529847
4 1 .215313 .003553 .490202
5 1 .007554 .608114 .472272
6 1 .489760 .457386 .985828
7 1 .506757 .451242 .011127
ITEM: TIMESTEP
350
ITEM: NUMBER OF ATOMS
7
ITEM: BOX BOUNDS ss ss ss
-2.8874 3.4326
-2.8994 3.2013
-1.8051 2.1411
ITEM: ATOMS id type xs ys zs
1 1 .495347 .991232 .477081
2 1 .995414 .636706 .516260
3 1 .822205 .035144 .538831
4 1 .217630 .006985 .483871
5 1 .004017 .607332 .472783
6 1 .491701 .463763 .985318
7 1 .511455 .449942 .017285
ITEM: TIMESTEP
400
ITEM: NUMBER OF ATOMS
7
ITEM: BOX BOUNDS ss ss ss
-2.8888 3.4282
-2.8974 3.2055
-1.8023 2.1445
ITEM: ATOMS id type xs ys zs
1 1 .494114 .989421 .483700
2 1 .993301 .629873 .515200
3 1 .819855 .034170 .528356
4 1 .217352 .006034 .481672
5 1 .004972 .602448 .471000
6 1 .490964 .458206 .983069
7 1 .511425 .449710 .012533
ITEM: TIMESTEP
1
ITEM: NUMBER OF ATOMS
7
ITEM: BOX BOUNDS ss ss ss
-2.8607 3.4266
-2.8777 3.1779
-1.7758 2.1345
ITEM: ATOMS id type xs ys zs
1 1 .486378 .994633 .472250
2 1 .999413 .634788 .514789
3 1 .818641 .030024 .528595
4 1 .218202 .000577 .487748
5 1 .002881 .609493 .468234
6 1 .486553 .462236 .993356
7 1 .513204 .451786 .009892
ITEM: TIMESTEP
50
ITEM: NUMBER OF ATOMS
7
ITEM: BOX BOUNDS ss ss ss
-2.8735 3.4538
-2.9063 3.1779
-1.7758 2.1389
ITEM: ATOMS id type xs ys zs
1 1 .487539 .994272 .470973
2 1 .994127 .636392 .513802
3 1 .814467 .033059 .526426
4 1 .219505 .004108 .489687
5 1 .004589 .611105 .463562
6 1 .486704 .463823 .995558
7 1 .512804 .454029 .015495
ITEM: TIMESTEP
100
ITEM: NUMBER OF ATOMS
7
ITEM: BOX BOUNDS ss ss ss
-2.8879 3.4608
-2.9176 3.1866
-1.7758 2.1396
ITEM: ATOMS id type xs ys zs
1 1 .487527 .995413 .464973
2 1 .994529 .637905 .516441
3 1 .817762 .037275 .529760
4 1 .220774 .007937 .483207
5 1 .004065 .610592 .468224
6 1 .487713 .468602 .987512
7 1 .511835 .450619 .013585
ITEM: TIMESTEP
150
ITEM: NUMBER OF ATOMS
7
ITEM: BOX BOUNDS ss ss ss
-2.8891 3.4614
-2.9192 3.1898
-1.7758 2.1414
ITEM: ATOMS id type xs ys zs
1 1 .485073 .993797 .470173
2 1 .995176 .637728 .511393
3 1 .816400 .036851 .531317
4 1 .220923 .009601 .484853
5 1 .008103 .609242 .468694
6 1 .489371 .466079 .991801
7 1 .512421 .454303 .013166
ITEM: TIMESTEP
200
ITEM: NUMBER OF ATOMS
7
ITEM: BOX BOUNDS ss ss ss
-2.8894 3.4557
-2.9228 3.2060
-1.7758 2.1461
ITEM: ATOMS id type xs ys zs
1 1 .487739 .993344 .474572
2 1 .989656 .636315 .517867
3 1 .814148 .036770 .528729
4 1 .219320 .009957 .491325
5 1 .009565 .608624 .464667
6 1 .489169 .465968 .985074
7 1 .512455 .450582 .005742
ITEM: TIMESTEP
250
ITEM: NUMBER OF ATOMS
7
ITEM: BOX BOUNDS ss ss ss
-2.8765 3.4543
-2.9056 3.2041
-1.7830 2.1345
ITEM: ATOMS id type xs ys zs
1 1 .485716 .991225 .474872
2 1 .988290 .634009 .515733
3 1 .814797 .033261 .533015
4 1 .216617 .008249 .489837
5 1 .005749 .610812 .473923
6 1 .489030 .465852 .988520
7 1 .512036 .450356 .007026
ITEM: TIMESTEP
300
ITEM: NUMBER OF ATOMS
7
ITEM: BOX BOUNDS ss ss ss
-2.8864 3.4379
-2.8987 3.2070
-1.7850 2.1345
ITEM: ATOMS id type xs ys zs
1 1 .489267 .992485 .475627
2 1 .993096 .629885 .515757
3 1 .819090 .032586 .537724
4 1 .219148 .009540 .487400
5 1 .007539 .606606 .468538
6 1 .494543 .467371 .988598
7 1 .515916 .451092 .012121
ITEM: TIMESTEP
350
ITEM: NUMBER OF ATOMS
7
ITEM: BOX BOUNDS ss ss ss
-2.8873 3.4327
-2.8936 3.2117
-1.7874 2.1345
ITEM: ATOMS id type xs ys zs
1 1 .490055 .992322 .474135
2 1 .995591 .630399 .514353
3 1 .819498 .032521 .536252
4 1 .219839 .009742 .487139
5 1 .008627 .606541 .471556
6 1 .494173 .469493 .990144
7 1 .518522 .449377 .014251
ITEM: TIMESTEP
400
ITEM: NUMBER OF ATOMS
7
ITEM: BOX BOUNDS ss ss ss
-2.8816 3.4348
-2.8892 3.2097
-1.8043 2.1513
ITEM: ATOMS id type xs ys zs
1 1 .490136 .992056 .478578
2 1 .991516 .632209 .518257
3 1 .816607 .031840 .535661
4 1 .220614 .008279 .490753
5 1 .007034 .606913 .461131
6 1 .491934 .467557 .981375
7 1 .515604 .448980 .011698
ITEM: TIMESTEP
1
ITEM: NUMBER OF ATOMS
7
ITEM: BOX BOUNDS ss ss ss
-2.8641 3.4268
-2.8776 3.1845
-1.8040 2.1228
ITEM: ATOMS id type xs ys zs
1 1 .487106 .993551 .477346
2 1 .999599 .634243 .520086
3 1 .818630 .030207 .533475
4 1 .218493 .000717 .492915
5 1 .002891 .608959 .473431
6 1 .486746 .461788 .997160
7 1 .513801 .451390 .017456
ITEM: TIMESTEP
50
ITEM: NUMBER OF ATOMS
7
ITEM: BOX BOUNDS ss ss ss
-2.8798 3.4530
-2.9081 3.1845
-1.8040 2.1405
ITEM: ATOMS id type xs ys zs
1 1 .486317 .993612 .473604
2 1 .996804 .637794 .517573
3 1 .814806 .034879 .528120
4 1 .221615 .004725 .487469
5 1 .006913 .612416 .471251
6 1 .484689 .464995 .992219
7 1 .512801 .455500 .019791
ITEM: TIMESTEP
100
ITEM: NUMBER OF ATOMS
7
ITEM: BOX BOUNDS ss ss ss
-2.8861 3.4576
-2.9152 3.1849
-1.8040 2.1461
ITEM: ATOMS id type xs ys zs
1 1 .488180 .996713 .476088
2 1 .992821 .634037 .514201
3 1 .816848 .037562 .533434
4 1 .222693 .006968 .489274
5 1 .006576 .612680 .466216
6 1 .486476 .464734 .989473
7 1 .513134 .457542 .013411
ITEM: TIMESTEP
150
ITEM: NUMBER OF ATOMS
7
ITEM: BOX BOUNDS ss ss ss
-2.8901 3.4636
-2.9212 3.1937
-1.8040 2.1410
ITEM: ATOMS id type xs ys zs
1 1 .489126 .991734 .476798
2 1 .992775 .632963 .513442
3 1 .818227 .038063 .525459
4 1 .219900 .008550 .487490
5 1 .004248 .611207 .472551
6 1 .485931 .462887 .989669
7 1 .511009 .452621 .011874
ITEM: TIMESTEP
200
ITEM: NUMBER OF ATOMS
7
ITEM: BOX BOUNDS ss ss ss
-2.8876 3.4552
-2.9085 3.1928
-1.8040 2.1314
ITEM: ATOMS id type xs ys zs
1 1 .488598 .991968 .479093
2 1 .993462 .631240 .512211
3 1 .820929 .035334 .525116
4 1 .220716 .004856 .485786
5 1 .002463 .609733 .473816
6 1 .485883 .460554 .993704
7 1 .510541 .453153 .010875
ITEM: TIMESTEP
250
ITEM: NUMBER OF ATOMS
7
ITEM: BOX BOUNDS ss ss ss
-2.9023 3.4558
-2.9149 3.1899
-1.8040 2.1321
ITEM: ATOMS id type xs ys zs
1 1 .493245 .992322 .481416
2 1 .992903 .635728 .517026
3 1 .820786 .037696 .528612
4 1 .219742 .011500 .486038
5 1 .007590 .609699 .474427
6 1 .489640 .465169 .991266
7 1 .515161 .453598 .017504
ITEM: TIMESTEP
300
ITEM: NUMBER OF ATOMS
7
ITEM: BOX BOUNDS ss ss ss
-2.9005 3.4512
-2.9243 3.1845
-1.8040 2.1297
ITEM: ATOMS id type xs ys zs
1 1 .493224 .993187 .482417
2 1 .995728 .634255 .518563
3 1 .822586 .037220 .529058
4 1 .221258 .012834 .487853
5 1 .006451 .612378 .475276
6 1 .489611 .465739 .989817
7 1 .515402 .455715 .017740
ITEM: TIMESTEP
350
ITEM: NUMBER OF ATOMS
7
ITEM: BOX BOUNDS ss ss ss
-2.9043 3.4574
-2.9293 3.1914
-1.8040 2.1287
ITEM: ATOMS id type xs ys zs
1 1 .498184 .989856 .479381
2 1 .992717 .638145 .521633
3 1 .820833 .037213 .529215
4 1 .223413 .010431 .490634
5 1 .007873 .607836 .470269
6 1 .488958 .464351 .985355
7 1 .511881 .450300 .012707
ITEM: TIMESTEP
400
ITEM: NUMBER OF ATOMS
7
ITEM: BOX BOUNDS ss ss ss
-2.8961 3.4545
-2.9098 3.1890
-1.8040 2.1286
ITEM: ATOMS id type xs ys zs
1 1 .490902 .993071 .474237
2 1 .994341 .634537 .523186
3 1 .823401 .035549 .528559
4 1 .217382 .011206 .486044
5 1 .008555 .608898 .480420
6 1 .494019 .466167 .987537
7 1 .509921 .453262 .014276
ITEM: TIMESTEP
1
ITEM: NUMBER OF ATOMS
7
ITEM: BOX BOUNDS ss ss ss
-2.8774 3.4294
-2.8876 3.1845
-1.8040 2.1228
ITEM: ATOMS id type xs ys zs
1 1 .487673 .993768 .476762
2 1 .998808 .634838 .520134
3 1 .818805 .031570 .533737
4 1 .220143 .002581 .493189
5 1 .005285 .609570 .473256
6 1 .487925 .462630 .997010
7 1 .514166 .452324 .017131
ITEM: TIMESTEP
50
ITEM: NUMBER OF ATOMS
7
ITEM: BOX BOUNDS ss ss ss
-2.8774 3.4570
-2.9068 3.1845
-1.8040 2.1377
ITEM: ATOMS id type xs ys zs
1 1 .485889 .992469 .473602
2 1 .994601 .635593 .517981
3 1 .813548 .032046 .533622
4 1 .220060 .006421 .493390
5 1 .006372 .610250 .468351
6 1 .485675 .461869 .993857
7 1 .510271 .454905 .017036
ITEM: TIMESTEP
100
ITEM: NUMBER OF ATOMS
7
ITEM: BOX BOUNDS ss ss ss
-2.8843 3.4600
-2.9155 3.1845
-1.8040 2.1481
ITEM: ATOMS id type xs ys zs
1 1 .486607 .992595 .476701
2 1 .993990 .636399 .516626
3 1 .819956 .036802 .526329
4 1 .220880 .004458 .490652
5 1 .005118 .612032 .469598
6 1 .486573 .464676 .989101
7 1 .512964 .452637 .021286
ITEM: TIMESTEP
150
ITEM: NUMBER OF ATOMS
7
ITEM: BOX BOUNDS ss ss ss
-2.8936 3.4617
-2.9210 3.1930
-1.8040 2.1479
ITEM: ATOMS id type xs ys zs
1 1 .488506 .990450 .479998
2 1 .993096 .634541 .516618
3 1 .821016 .039302 .527585
4 1 .220934 .003548 .488491
5 1 .005270 .612825 .466843
6 1 .486054 .464459 .989791
7 1 .510880 .452685 .019728
ITEM: TIMESTEP
200
ITEM: NUMBER OF ATOMS
7
ITEM: BOX BOUNDS ss ss ss
-2.8947 3.4522
-2.9276 3.2050
-1.8040 2.1370
ITEM: ATOMS id type xs ys zs
1 1 .491855 .994072 .470535
2 1 .990772 .634997 .520157
3 1 .815376 .034375 .536751
4 1 .222002 .008100 .488038
5 1 .008419 .610073 .463436
6 1 .490598 .465488 .989619
7 1 .513980 .453594 .021062
ITEM: TIMESTEP
250
ITEM: NUMBER OF ATOMS
7
ITEM: BOX BOUNDS ss ss ss
-2.8898 3.4479
-2.9398 3.2131
-1.8040 2.1339
ITEM: ATOMS id type xs ys zs
1 1 .487882 .993502 .478204
2 1 .991766 .633511 .518902
3 1 .817019 .036369 .527980
4 1 .220597 .008360 .488481
5 1 .004409 .607342 .466638
6 1 .487018 .464321 .986483
7 1 .511979 .453571 .023597
ITEM: TIMESTEP
300
ITEM: NUMBER OF ATOMS
7
ITEM: BOX BOUNDS ss ss ss
-2.8855 3.4371
-2.9405 3.2032
-1.8040 2.1379
ITEM: ATOMS id type xs ys zs
1 1 .490917 .989822 .472855
2 1 .991994 .630903 .523330
3 1 .818311 .039570 .534462
4 1 .222035 .010548 .482812
5 1 .007365 .611829 .467317
6 1 .486398 .462250 .985211
7 1 .510955 .455431 .012495
ITEM: TIMESTEP
350
ITEM: NUMBER OF ATOMS
7
ITEM: BOX BOUNDS ss ss ss
-2.8960 3.4323
-2.9332 3.2032
-1.8040 2.1416
ITEM: ATOMS id type xs ys zs
1 1 .492344 .994265 .472730
2 1 .994232 .635819 .524828
3 1 .816373 .039678 .532147
4 1 .218338 .011328 .488044
5 1 .011190 .606516 .470554
6 1 .488819 .465106 .992490
7 1 .513214 .454696 .016321
ITEM: TIMESTEP
400
ITEM: NUMBER OF ATOMS
7
ITEM: BOX BOUNDS ss ss ss
-2.8892 3.4280
-2.9284 3.2009
-1.8040 2.1415
ITEM: ATOMS id type xs ys zs
1 1 .492449 .987521 .476327
2 1 .991586 .636385 .517347
3 1 .817478 .040211 .529695
4 1 .217894 .007584 .488413
5 1 .004283 .604306 .477906
6 1 .494816 .464909 .988183
7 1 .508949 .454079 .007684
ITEM: TIMESTEP
1
ITEM: NUMBER OF ATOMS
7
ITEM: BOX BOUNDS ss ss ss
-2.8668 3.4270
-2.8950 3.1702
-1.7875 2.1182
ITEM: ATOMS id type xs ys zs
1 1 .487425 .995823 .476033
2 1 .999481 .636690 .519099
3 1 .818852 .032989 .532196
4 1 .218842 .003558 .491155
5 1 .003743 .611479 .472567
6 1 .487305 .464501 .998414
7 1 .513258 .454236 .012976
ITEM: TIMESTEP
50
ITEM: NUMBER OF ATOMS
7
ITEM: BOX BOUNDS ss ss ss
-2.8737 3.4564
-2.9100 3.1750
-1.7875 2.1394
ITEM: ATOMS id type xs ys zs
1 1 .486920 .995453 .471169
2 1 .996051 .637415 .514257
3 1 .815602 .036293 .529970
4 1 .220299 .005322 .490249
5 1 .005057 .611593 .470798
6 1 .484456 .464210 .989754
7 1 .511013 .454980 .013468
ITEM: TIMESTEP
100
ITEM: NUMBER OF ATOMS
7
ITEM: BOX BOUNDS ss ss ss
-2.8892 3.4660
-2.9200 3.1883
-1.7875 2.1460
ITEM: ATOMS id type xs ys zs
1 1 .486735 .994699 .475144
2 1 .993980 .633730 .507804
3 1 .815238 .037514 .529732
4 1 .221052 .006207 .483804
5 1 .004815 .612200 .470909
6 1 .486072 .466443 .992192
7 1 .510889 .454406 .014875
ITEM: TIMESTEP
150
ITEM: NUMBER OF ATOMS
7
ITEM: BOX BOUNDS ss ss ss
-2.8897 3.4701
-2.9261 3.1951
-1.7875 2.1572
ITEM: ATOMS id type xs ys zs
1 1 .485352 .991239 .474602
2 1 .988692 .633476 .517160
3 1 .816075 .038080 .526662
4 1 .219928 .009898 .480353
5 1 .008960 .611740 .465169
6 1 .480921 .463916 .989603
7 1 .510544 .454056 .007961
ITEM: TIMESTEP
200
ITEM: NUMBER OF ATOMS
7
ITEM: BOX BOUNDS ss ss ss
-2.8931 3.4494
-2.9323 3.1945
-1.7875 2.1652
ITEM: ATOMS id type xs ys zs
1 1 .491021 .989555 .472906
2 1 .993493 .636926 .513419
3 1 .820096 .044800 .527697
4 1 .222393 .006039 .483688
5 1 .002815 .609248 .463532
6 1 .485587 .467425 .982437
7 1 .510558 .452650 .012134
ITEM: TIMESTEP
250
ITEM: NUMBER OF ATOMS
7
ITEM: BOX BOUNDS ss ss ss
-2.8940 3.4483
-2.9328 3.1981
-1.7875 2.1652
ITEM: ATOMS id type xs ys zs
1 1 .488004 .994043 .468697
2 1 .989471 .633290 .514016
3 1 .818853 .041387 .525169
4 1 .222176 .012340 .485681
5 1 .006854 .613802 .462699
6 1 .487559 .466448 .982377
7 1 .508870 .459013 .004215
ITEM: TIMESTEP
300
ITEM: NUMBER OF ATOMS
7
ITEM: BOX BOUNDS ss ss ss
-2.8995 3.4462
-2.9290 3.2012
-1.7956 2.1687
ITEM: ATOMS id type xs ys zs
1 1 .486607 .994436 .468294
2 1 .989498 .632894 .512247
3 1 .820938 .041214 .525361
4 1 .225117 .010727 .484073
5 1 .007577 .611730 .462587
6 1 .486282 .465701 .981871
7 1 .509181 .460029 .007053
ITEM: TIMESTEP
350
ITEM: NUMBER OF ATOMS
7
ITEM: BOX BOUNDS ss ss ss
-2.8999 3.4428
-2.9336 3.1978
-1.8013 2.1684
ITEM: ATOMS id type xs ys zs
1 1 .491629 .989716 .477656
2 1 .987722 .631675 .521623
3 1 .822512 .043020 .536113
4 1 .229526 .009855 .476739
5 1 .004942 .607667 .478525
6 1 .489054 .468866 .986308
7 1 .514668 .454379 .014854
ITEM: TIMESTEP
400
ITEM: NUMBER OF ATOMS
7
ITEM: BOX BOUNDS ss ss ss
-2.8992 3.4358
-2.9313 3.1979
-1.7943 2.1651
ITEM: ATOMS id type xs ys zs
1 1 .494236 .987968 .476612
2 1 .987446 .633653 .524526
3 1 .826657 .042875 .531660
4 1 .224119 .008580 .482867
5 1 .006708 .608601 .475232
6 1 .488236 .463865 .984255
7 1 .512555 .451210 .011703
ITEM: TIMESTEP
1
ITEM: NUMBER OF ATOMS
7
ITEM: BOX BOUNDS ss ss ss
-2.8775 3.4265
-2.8954 3.1702
-1.7875 2.1324
ITEM: ATOMS id type xs ys zs
1 1 .488213 .996058 .474161
2 1 .999389 .636542 .517182
3 1 .819148 .033055 .530012
4 1 .220374 .003719 .489421
5 1 .005208 .611576 .469892
6 1 .487959 .464494 .994634
7 1 .514495 .454188 .013741
ITEM: TIMESTEP
50
ITEM: NUMBER OF ATOMS
7
ITEM: BOX BOUNDS ss ss ss
-2.8775 3.4533
-2.9082 3.1748
-1.7875 2.1434
ITEM: ATOMS id type xs ys zs
1 1 .485696 .995356 .473787
2 1 .997166 .637405 .520747
3 1 .817943 .034797 .528524
4 1 .221099 .005016 .488601
5 1 .004792 .613754 .472010
6 1 .486327 .465346 .995808
7 1 .510780 .454380 .015913
ITEM: TIMESTEP
100
ITEM: NUMBER OF ATOMS
7
ITEM: BOX BOUNDS ss ss ss
-2.8850 3.4688
-2.9196 3.1841
-1.7875 2.1476
ITEM: ATOMS id type xs ys zs
1 1 .486091 .994038 .473454
2 1 .992481 .637659 .513383
3 1 .814037 .035276 .528586
4 1 .220329 .006225 .485107
5 1 .007184 .613445 .469532
6 1 .485772 .466122 .993105
7 1 .510515 .456645 .014470
ITEM: TIMESTEP
150
ITEM: NUMBER OF ATOMS
7
ITEM: BOX BOUNDS ss ss ss
-2.8919 3.4737
-2.9184 3.1843
-1.7875 2.1465
ITEM: ATOMS id type xs ys zs
1 1 .486970 .993174 .471827
2 1 .991006 .635957 .514494
3 1 .812534 .037939 .531386
4 1 .220560 .007001 .486223
5 1 .005120 .607958 .466401
6 1 .486540 .465458 .991153
7 1 .512917 .453882 .018876
ITEM: TIMESTEP
200
ITEM: NUMBER OF ATOMS
7
ITEM: BOX BOUNDS ss ss ss
-2.9027 3.4676
-2.9239 3.1897
-1.7875 2.1528
ITEM: ATOMS id type xs ys zs
1 1 .487928 .991947 .478343
2 1 .991558 .634774 .506506
3 1 .819121 .037109 .524381
4 1 .223476 .008862 .482536
5 1 .006216 .612529 .469447
6 1 .487113 .466608 .989803
7 1 .513844 .457930 .010795
ITEM: TIMESTEP
250
ITEM: NUMBER OF ATOMS
7
ITEM: BOX BOUNDS ss ss ss
-2.9044 3.4654
-2.9277 3.2008
-1.7875 2.1551
ITEM: ATOMS id type xs ys zs
1 1 .488595 .991996 .478676
2 1 .993807 .635533 .519006
3 1 .818685 .039694 .528170
4 1 .220600 .003890 .479647
5 1 .009644 .611779 .471651
6 1 .488068 .465254 .984503
7 1 .513050 .454553 .017440
ITEM: TIMESTEP
300
ITEM: NUMBER OF ATOMS
7
ITEM: BOX BOUNDS ss ss ss
-2.9057 3.4519
-2.9327 3.2012
-1.7875 2.1517
ITEM: ATOMS id type xs ys zs
1 1 .489281 .991782 .484537
2 1 .992285 .632882 .509588
3 1 .813415 .039474 .530310
4 1 .223609 .010258 .482991
5 1 .009076 .606030 .465267
6 1 .487247 .468183 .992067
7 1 .515077 .456276 .013163
ITEM: TIMESTEP
350
ITEM: NUMBER OF ATOMS
7
ITEM: BOX BOUNDS ss ss ss
-2.9022 3.4584
-2.9202 3.1977
-1.7875 2.1603
ITEM: ATOMS id type xs ys zs
1 1 .491159 .987463 .483376
2 1 .989998 .632433 .510991
3 1 .822205 .036207 .532410
4 1 .222014 .010175 .473045
5 1 .006423 .609232 .461368
6 1 .489052 .465915 .985122
7 1 .512975 .455967 .008682
ITEM: TIMESTEP
400
ITEM: NUMBER OF ATOMS
7
ITEM: BOX BOUNDS ss ss ss
-2.9100 3.4549
-2.9054 3.1858
-1.7828 2.1449
ITEM: ATOMS id type xs ys zs
1 1 .491401 .991913 .483784
2 1 .992627 .636736 .505655
3 1 .820038 .033533 .536733
4 1 .220110 .007958 .473946
5 1 .007555 .606738 .463245
6 1 .490375 .461279 .990209
7 1 .512046 .459245 .009060
ITEM: TIMESTEP
1
ITEM: NUMBER OF ATOMS
7
ITEM: BOX BOUNDS ss ss ss
-2.8755 3.4280
-2.8776 3.1737
-1.7736 2.1297
ITEM: ATOMS id type xs ys zs
1 1 .488058 .995119 .472659
2 1 .999320 .635236 .515215
3 1 .818794 .030485 .528555
4 1 .219828 .000440 .488256
5 1 .004908 .610156 .468815
6 1 .487605 .462564 .995378
7 1 .514233 .452352 .009818
ITEM: TIMESTEP
50
ITEM: NUMBER OF ATOMS
7
ITEM: BOX BOUNDS ss ss ss
-2.8772 3.4576
-2.9095 3.1737
-1.7736 2.1410
ITEM: ATOMS id type xs ys zs
1 1 .486759 .996003 .471572
2 1 .996845 .635680 .512568
3 1 .814140 .033581 .527992
4 1 .219254 .003700 .489163
5 1 .001330 .614004 .469007
6 1 .484365 .466715 .991366
7 1 .511364 .455445 .010187
ITEM: TIMESTEP
100
ITEM: NUMBER OF ATOMS
7
ITEM: BOX BOUNDS ss ss ss
-2.8868 3.4683
-2.9164 3.1893
-1.7736 2.1498
ITEM: ATOMS id type xs ys zs
1 1 .483792 .992239 .468575
2 1 .992782 .631679 .516964
3 1 .816322 .036361 .524753
4 1 .220847 .004315 .487634
5 1 .002092 .611156 .467252
6 1 .484969 .463838 .987755
7 1 .510288 .451493 .005887
ITEM: TIMESTEP
150
ITEM: NUMBER OF ATOMS
7
ITEM: BOX BOUNDS ss ss ss
-2.8940 3.4648
-2.9171 3.1865
-1.7742 2.1594
ITEM: ATOMS id type xs ys zs
1 1 .483863 .993731 .472077
2 1 .991673 .634549 .509344
3 1 .817166 .039394 .526247
4 1 .220270 .008056 .487429
5 1 .008877 .612570 .470153
6 1 .488365 .467063 .985874
7 1 .510366 .455311 .013034
ITEM: TIMESTEP
200
ITEM: NUMBER OF ATOMS
7
ITEM: BOX BOUNDS ss ss ss
-2.9040 3.4682
-2.9113 3.1948
-1.7742 2.1489
ITEM: ATOMS id type xs ys zs
1 1 .484445 .992078 .472974
2 1 .991684 .633179 .515213
3 1 .816565 .038340 .525518
4 1 .222482 .003236 .487004
5 1 .009769 .611690 .473022
6 1 .488669 .464633 .989570
7 1 .509661 .454327 .014317
ITEM: TIMESTEP
250
ITEM: NUMBER OF ATOMS
7
ITEM: BOX BOUNDS ss ss ss
-2.9005 3.4648
-2.9086 3.2017
-1.7914 2.1557
ITEM: ATOMS id type xs ys zs
1 1 .487427 .991877 .478288
2 1 .990113 .629759 .521042
3 1 .816808 .035370 .526409
4 1 .220010 .009860 .490460
5 1 .005899 .610084 .463953
6 1 .490146 .468161 .991831
7 1 .513325 .456609 .013773
ITEM: TIMESTEP
300
ITEM: NUMBER OF ATOMS
7
ITEM: BOX BOUNDS ss ss ss
-2.9070 3.4611
-2.9080 3.2032
-1.7848 2.1551
ITEM: ATOMS id type xs ys zs
1 1 .487029 .992172 .475896
2 1 .991429 .631330 .519902
3 1 .815441 .035924 .524466
4 1 .221628 .012723 .487622
5 1 .009365 .610004 .460865
6 1 .490631 .462405 .990213
7 1 .514387 .453617 .015373
ITEM: TIMESTEP
350
ITEM: NUMBER OF ATOMS
7
ITEM: BOX BOUNDS ss ss ss
-2.9059 3.4590
-2.9065 3.2054
-1.7792 2.1517
ITEM: ATOMS id type xs ys zs
1 1 .487859 .993352 .477385