ITEM: TIMESTEP
1
ITEM: NUMBER OF ATOMS
7
ITEM: BOX BOUNDS ss ss ss
-2.8481 3.4265
-2.8778 3.1490
-1.7401 2.1158
ITEM: ATOMS id type xs ys zs
1 1 .485833 .999294 .469634
2 1 .999423 .637896 .513150
3 1 .818473 .030308 .526600
4 1 .216673 .000650 .485345
5 1 .000574 .612534 .465750
6 1 .485504 .464512 .998921
7 1 .512181 .454136 .001166
ITEM: TIMESTEP
50
ITEM: NUMBER OF ATOMS
7
ITEM: BOX BOUNDS ss ss ss
-2.8719 3.4514
-2.9083 3.1722
-1.7589 2.1372
ITEM: ATOMS id type xs ys zs
1 1 .485950 .995580 .469605
2 1 .995442 .637090 .512569
3 1 .816039 .035187 .526051
4 1 .218720 .005462 .485040
5 1 .004182 .612245 .465860
6 1 .485531 .465513 .993150
7 1 .511958 .455158 .006359
ITEM: TIMESTEP
100
ITEM: NUMBER OF ATOMS
7
ITEM: BOX BOUNDS ss ss ss
-2.8789 3.4553
-2.9207 3.1815
-1.7767 2.1434
ITEM: ATOMS id type xs ys zs
1 1 .486805 .994332 .471618
2 1 .993431 .636362 .513670
3 1 .816364 .037434 .528329
4 1 .218867 .008073 .486516
5 1 .005237 .611237 .467710
6 1 .486368 .466261 .989917
7 1 .511505 .455050 .010047
ITEM: TIMESTEP
150
ITEM: NUMBER OF ATOMS
7
ITEM: BOX BOUNDS ss ss ss
-2.8849 3.4561
-2.9064 3.1897
-1.7756 2.1368
ITEM: ATOMS id type xs ys zs
1 1 .486943 .993363 .472156
2 1 .991518 .634871 .514248
3 1 .817042 .035628 .529153
4 1 .219495 .007068 .487878
5 1 .006243 .608439 .468385
6 1 .487824 .465252 .990460
7 1 .511480 .452747 .008280
ITEM: TIMESTEP
200
ITEM: NUMBER OF ATOMS
7
ITEM: BOX BOUNDS ss ss ss
-2.8833 3.4464
-2.9067 3.1880
-1.7810 2.1417
ITEM: ATOMS id type xs ys zs
1 1 .487554 .993758 .472786
2 1 .991580 .635957 .514985
3 1 .818959 .036261 .529057
4 1 .219471 .008092 .489899
5 1 .006087 .607742 .467844
6 1 .489318 .466070 .989063
7 1 .512182 .452680 .008783
ITEM: TIMESTEP
250
ITEM: NUMBER OF ATOMS
7
ITEM: BOX BOUNDS ss ss ss
-2.8890 3.4325
-2.8980 3.1917
-1.7899 2.1378
ITEM: ATOMS id type xs ys zs
1 1 .489081 .993058 .474816
2 1 .992722 .635630 .517042
3 1 .821375 .035232 .531721
4 1 .220232 .007843 .491738
5 1 .006973 .605656 .468904
6 1 .491212 .465028 .990072
7 1 .513909 .451423 .009934
ITEM: TIMESTEP
300
ITEM: NUMBER OF ATOMS
7
ITEM: BOX BOUNDS ss ss ss
-2.8918 3.4275
-2.8942 3.1943
-1.8036 2.1480
ITEM: ATOMS id type xs ys zs
1 1 .488921 .992098 .476655
2 1 .992613 .635622 .518345
3 1 .821922 .034676 .532879
4 1 .220095 .008281 .491979
5 1 .007420 .603360 .469632
6 1 .491748 .464140 .988002
7 1 .514967 .450872 .012073
ITEM: TIMESTEP
350
ITEM: NUMBER OF ATOMS
7
ITEM: BOX BOUNDS ss ss ss
-2.8880 3.4237
-2.8868 3.1860
-1.8052 2.1535
ITEM: ATOMS id type xs ys zs
1 1 .487874 .992722 .477277
2 1 .992309 .636322 .518980
3 1 .821855 .033297 .532437
4 1 .218941 .007830 .491320
5 1 .007046 .602346 .469935
6 1 .492029 .463747 .987345
7 1 .515241 .450571 .011383
ITEM: TIMESTEP
400
ITEM: NUMBER OF ATOMS
7
ITEM: BOX BOUNDS ss ss ss
-2.8913 3.4212
-2.8849 3.1865
-1.8059 2.1607
ITEM: ATOMS id type xs ys zs
1 1 .487581 .992207 .477122
2 1 .991875 .636385 .518727
3 1 .821853 .032619 .531773
4 1 .218787 .008151 .490384
5 1 .007841 .601448 .469682
6 1 .493039 .463313 .986072
7 1 .515830 .450134 .010633
ITEM: TIMESTEP
1
ITEM: NUMBER OF ATOMS
7
ITEM: BOX BOUNDS ss ss ss
-2.8700 3.4273
-2.8777 3.1652
-1.7956 2.1387
ITEM: ATOMS id type xs ys zs
1 1 .487551 .996624 .474379
2 1 .999289 .636190 .517028
3 1 .818989 .030218 .530204
4 1 .219363 .000635 .489778
5 1 .004041 .610894 .470579
6 1 .487220 .463261 .993106
7 1 .513805 .452915 .015260
ITEM: TIMESTEP
50
ITEM: NUMBER OF ATOMS
7
ITEM: BOX BOUNDS ss ss ss
-2.8780 3.4510
-2.9018 3.1714
-1.7956 2.1387
ITEM: ATOMS id type xs ys zs
1 1 .486432 .995741 .474263
2 1 .995693 .636776 .516870
3 1 .816235 .034185 .530247
4 1 .219609 .004291 .489604
5 1 .005107 .611965 .470621
6 1 .485950 .464962 .992907
7 1 .512481 .454631 .015792
ITEM: TIMESTEP
100
ITEM: NUMBER OF ATOMS
7
ITEM: BOX BOUNDS ss ss ss
-2.8811 3.4589
-2.9131 3.1773
-1.7956 2.1397
ITEM: ATOMS id type xs ys zs
1 1 .486660 .995153 .475192
2 1 .993101 .636572 .516936
3 1 .816289 .036172 .531016
4 1 .219543 .006583 .489438
5 1 .005472 .611786 .471250
6 1 .486484 .465625 .991600
7 1 .511655 .455129 .015526
ITEM: TIMESTEP
150
ITEM: NUMBER OF ATOMS
7
ITEM: BOX BOUNDS ss ss ss
-2.8859 3.4477
-2.9166 3.1858
-1.7956 2.1471
ITEM: ATOMS id type xs ys zs
1 1 .487994 .994204 .475827
2 1 .993164 .636043 .515886
3 1 .819095 .036705 .530800
4 1 .220024 .007682 .488488
5 1 .006277 .611156 .471235
6 1 .488908 .465101 .988445
7 1 .511977 .454769 .015219
ITEM: TIMESTEP
200
ITEM: NUMBER OF ATOMS
7
ITEM: BOX BOUNDS ss ss ss
-2.8846 3.4424
-2.9054 3.1956
-1.7956 2.1421
ITEM: ATOMS id type xs ys zs
1 1 .488851 .992928 .477323
2 1 .992593 .633908 .517344
3 1 .820105 .035070 .531980
4 1 .219990 .006491 .488579
5 1 .006230 .609037 .471692
6 1 .489477 .463602 .989291
7 1 .512197 .452665 .014481
ITEM: TIMESTEP
250
ITEM: NUMBER OF ATOMS
7
ITEM: BOX BOUNDS ss ss ss
-2.8896 3.4339
-2.9134 3.1979
-1.7971 2.1498
ITEM: ATOMS id type xs ys zs
1 1 .490291 .992176 .476540
2 1 .992913 .633577 .516640
3 1 .821249 .036615 .532175
4 1 .220545 .008818 .487681
5 1 .007645 .608157 .470180
6 1 .490838 .464473 .987343
7 1 .513514 .452555 .012536
ITEM: TIMESTEP
300
ITEM: NUMBER OF ATOMS
7
ITEM: BOX BOUNDS ss ss ss
-2.8907 3.4302
-2.9092 3.1921
-1.8064 2.1457
ITEM: ATOMS id type xs ys zs
1 1 .490681 .992186 .477982
2 1 .992902 .633758 .518039
3 1 .821324 .036327 .534623
4 1 .219983 .009280 .488981
5 1 .008369 .606933 .471059
6 1 .491326 .464434 .988777
7 1 .514342 .451988 .012603
ITEM: TIMESTEP
350
ITEM: NUMBER OF ATOMS
7
ITEM: BOX BOUNDS ss ss ss
-2.8847 3.4311
-2.8995 3.1888
-1.8141 2.1529
ITEM: ATOMS id type xs ys zs
1 1 .490505 .992296 .478474
2 1 .992143 .633663 .517892
3 1 .820871 .034900 .535273
4 1 .218666 .008589 .489089
5 1 .007905 .605378 .470748
6 1 .491152 .463866 .987126
7 1 .513999 .451078 .013096
ITEM: TIMESTEP
400
ITEM: NUMBER OF ATOMS
7
ITEM: BOX BOUNDS ss ss ss
-2.8830 3.4253
-2.8903 3.1915
-1.8165 2.1484
ITEM: ATOMS id type xs ys zs
1 1 .490838 .991417 .480324
2 1 .992434 .633342 .518680
3 1 .822046 .033495 .536751
4 1 .218670 .007811 .490804
5 1 .008069 .603927 .471514
6 1 .492029 .462692 .988631
7 1 .514322 .449687 .012770
ITEM: TIMESTEP
1
ITEM: NUMBER OF ATOMS
7
ITEM: BOX BOUNDS ss ss ss
-2.8569 3.4267
-2.8789 3.1595
-1.8023 2.1401
ITEM: ATOMS id type xs ys zs
1 1 .486525 .997561 .475107
2 1 .999389 .636859 .517666
3 1 .818688 .030424 .530819
4 1 .217753 .000826 .490468
5 1 .001958 .611544 .471316
6 1 .486194 .463801 .992786
7 1 .512839 .453446 .016920
ITEM: TIMESTEP
50
ITEM: NUMBER OF ATOMS
7
ITEM: BOX BOUNDS ss ss ss
-2.8749 3.4523
-2.9038 3.1723
-1.8023 2.1401
ITEM: ATOMS id type xs ys zs
1 1 .485989 .995636 .474930
2 1 .995546 .636801 .517481
3 1 .815954 .034465 .530760
4 1 .219237 .004486 .490321
5 1 .004546 .612087 .471385
6 1 .485527 .465085 .992534
7 1 .512158 .454804 .017538
ITEM: TIMESTEP
100
ITEM: NUMBER OF ATOMS
7
ITEM: BOX BOUNDS ss ss ss
-2.8841 3.4547
-2.9162 3.1829
-1.8023 2.1447
ITEM: ATOMS id type xs ys zs
1 1 .486964 .993821 .474722
2 1 .993946 .635944 .516827
3 1 .816894 .036782 .530585
4 1 .219868 .006839 .489715
5 1 .005822 .611197 .470910
6 1 .486641 .465572 .990328
7 1 .512964 .454682 .017483
ITEM: TIMESTEP
150
ITEM: NUMBER OF ATOMS
7
ITEM: BOX BOUNDS ss ss ss
-2.8855 3.4507
-2.9251 3.1873
-1.8023 2.1417
ITEM: ATOMS id type xs ys zs
1 1 .488260 .993353 .474789
2 1 .992458 .636112 .517180
3 1 .818008 .038287 .531845
4 1 .220024 .008832 .490091
5 1 .006467 .610501 .471066
6 1 .487413 .466021 .990129
7 1 .513478 .454894 .016429
ITEM: TIMESTEP
200
ITEM: NUMBER OF ATOMS
7
ITEM: BOX BOUNDS ss ss ss
-2.8902 3.4444
-2.9155 3.1871
-1.8023 2.1418
ITEM: ATOMS id type xs ys zs
1 1 .490192 .993694 .474442
2 1 .991767 .636054 .517506
3 1 .819840 .037100 .533096
4 1 .221317 .007398 .489648
5 1 .007243 .609154 .471005
6 1 .488002 .465260 .989015
7 1 .513905 .453733 .014919
ITEM: TIMESTEP
250
ITEM: NUMBER OF ATOMS
7
ITEM: BOX BOUNDS ss ss ss
-2.8903 3.4417
-2.9145 3.1900
-1.8023 2.1406
ITEM: ATOMS id type xs ys zs
1 1 .491176 .992764 .474430
2 1 .991362 .635609 .518365
3 1 .820824 .036974 .533859
4 1 .221788 .008077 .490202
5 1 .007164 .607650 .471238
6 1 .488666 .464950 .988833
7 1 .513902 .452912 .013504
ITEM: TIMESTEP
300
ITEM: NUMBER OF ATOMS
7
ITEM: BOX BOUNDS ss ss ss
-2.8856 3.4362
-2.9099 3.1890
-1.8023 2.1420
ITEM: ATOMS id type xs ys zs
1 1 .491651 .992290 .474286
2 1 .991909 .635168 .519097
3 1 .821465 .036283 .534050
4 1 .221000 .008090 .490346
5 1 .006468 .606313 .471000
6 1 .489393 .464623 .988406
7 1 .513576 .452240 .011919
ITEM: TIMESTEP
350
ITEM: NUMBER OF ATOMS
7
ITEM: BOX BOUNDS ss ss ss
-2.8923 3.4383
-2.9117 3.1902
-1.8034 2.1432
ITEM: ATOMS id type xs ys zs
1 1 .491924 .991835 .474374
2 1 .991216 .634803 .520121
3 1 .820966 .036756 .534107
4 1 .220802 .009222 .490834
5 1 .007901 .605078 .471860
6 1 .490328 .464797 .988136
7 1 .513566 .452300 .010702
ITEM: TIMESTEP
400
ITEM: NUMBER OF ATOMS
7
ITEM: BOX BOUNDS ss ss ss
-2.8907 3.4400
-2.9087 3.1829
-1.8094 2.1524
ITEM: ATOMS id type xs ys zs
1 1 .491274 .992749 .474882
2 1 .990782 .635196 .520807
3 1 .820400 .036265 .534066
4 1 .219417 .009832 .491254
5 1 .008112 .604572 .471919
6 1 .490825 .464790 .985878
7 1 .513647 .452523 .011083
ITEM: TIMESTEP
1
ITEM: NUMBER OF ATOMS
7
ITEM: BOX BOUNDS ss ss ss
-2.8616 3.4269
-2.8774 3.1595
-1.8051 2.1437
ITEM: ATOMS id type xs ys zs
1 1 .486891 .997564 .475040
2 1 .999351 .636772 .517530
3 1 .818793 .030193 .530663
4 1 .218332 .000584 .490385
5 1 .002700 .611451 .471256
6 1 .486558 .463673 .991876
7 1 .513184 .453318 .017603
ITEM: TIMESTEP
50
ITEM: NUMBER OF ATOMS
7
ITEM: BOX BOUNDS ss ss ss
-2.8750 3.4511
-2.9029 3.1729
-1.8051 2.1437
ITEM: ATOMS id type xs ys zs
1 1 .486095 .995535 .474776
2 1 .995852 .636695 .517336
3 1 .816047 .034262 .530611
4 1 .219348 .004265 .490236
5 1 .004543 .612028 .471354
6 1 .485584 .464920 .991678
7 1 .512273 .454730 .018334
ITEM: TIMESTEP
100
ITEM: NUMBER OF ATOMS
7
ITEM: BOX BOUNDS ss ss ss
-2.8842 3.4558
-2.9139 3.1828
-1.8051 2.1459
ITEM: ATOMS id type xs ys zs
1 1 .486943 .994023 .474675
2 1 .994356 .635950 .517574
3 1 .816402 .036472 .530589
4 1 .219729 .006495 .489762
5 1 .005659 .611263 .471451
6 1 .486507 .465113 .989868
7 1 .512585 .454623 .018119
ITEM: TIMESTEP
150
ITEM: NUMBER OF ATOMS
7
ITEM: BOX BOUNDS ss ss ss
-2.8880 3.4561
-2.9143 3.1965
-1.8051 2.1437
ITEM: ATOMS id type xs ys zs
1 1 .487932 .992718 .475736
2 1 .993132 .634516 .517038
3 1 .816559 .037036 .530630
4 1 .218139 .007406 .489285
5 1 .006503 .610049 .474014
6 1 .487652 .464097 .988831
7 1 .512038 .452993 .017032
ITEM: TIMESTEP
200
ITEM: NUMBER OF ATOMS
7
ITEM: BOX BOUNDS ss ss ss
-2.8891 3.4527
-2.9063 3.1970
-1.8051 2.1437
ITEM: ATOMS id type xs ys zs
1 1 .488857 .993623 .476913
2 1 .991790 .633615 .515411
3 1 .816592 .035710 .530559
4 1 .216896 .006694 .487758
5 1 .007142 .609885 .475824
6 1 .488596 .463672 .987538
7 1 .510912 .452232 .015874
ITEM: TIMESTEP
250
ITEM: NUMBER OF ATOMS
7
ITEM: BOX BOUNDS ss ss ss
-2.8964 3.4349
-2.9104 3.2036
-1.8051 2.1437
ITEM: ATOMS id type xs ys zs
1 1 .491199 .992527 .477721
2 1 .993308 .633110 .515081
3 1 .818973 .035957 .530407
4 1 .218043 .008031 .486759
5 1 .008536 .609143 .476047
6 1 .491039 .463710 .986967
7 1 .512371 .452165 .014822
ITEM: TIMESTEP
300
ITEM: NUMBER OF ATOMS
7
ITEM: BOX BOUNDS ss ss ss
-2.8901 3.4392
-2.9011 3.1996
-1.8051 2.1437
ITEM: ATOMS id type xs ys zs
1 1 .490838 .993176 .478273
2 1 .991601 .632943 .514862
3 1 .818146 .033793 .530808
4 1 .216923 .007539 .486119
5 1 .007359 .608041 .476171
6 1 .490671 .463250 .986909
7 1 .511566 .451713 .014580
ITEM: TIMESTEP
350
ITEM: NUMBER OF ATOMS
7
ITEM: BOX BOUNDS ss ss ss
-2.8874 3.4326
-2.8994 3.2013
-1.8051 2.1411
ITEM: ATOMS id type xs ys zs
1 1 .491479 .992805 .479785
2 1 .991623 .632733 .515802
3 1 .818800 .032883 .532039
4 1 .216372 .008305 .486424
5 1 .006881 .607141 .476860
6 1 .491245 .462690 .988185
7 1 .511769 .451536 .014808
ITEM: TIMESTEP
400
ITEM: NUMBER OF ATOMS
7
ITEM: BOX BOUNDS ss ss ss
-2.8888 3.4282
-2.8974 3.2055
-1.8023 2.1445
ITEM: ATOMS id type xs ys zs
1 1 .491910 .991851 .480730
2 1 .990996 .632130 .517123
3 1 .818773 .032060 .531801
4 1 .215897 .009213 .485848
5 1 .007379 .606387 .477059
6 1 .491806 .461428 .988867
7 1 .512056 .451295 .014126
ITEM: TIMESTEP
1
ITEM: NUMBER OF ATOMS
7
ITEM: BOX BOUNDS ss ss ss
-2.8607 3.4266
-2.8777 3.1779
-1.7758 2.1345
ITEM: ATOMS id type xs ys zs
1 1 .486853 .994525 .472229
2 1 .999414 .634849 .515139
3 1 .818820 .030146 .528406
4 1 .218245 .000625 .487726
5 1 .002574 .609612 .468405
6 1 .486521 .462287 .994154
7 1 .513151 .451965 .010294
ITEM: TIMESTEP
50
ITEM: NUMBER OF ATOMS
7
ITEM: BOX BOUNDS ss ss ss
-2.8735 3.4538
-2.9063 3.1779
-1.7758 2.1389
ITEM: ATOMS id type xs ys zs
1 1 .485751 .994724 .471384
2 1 .995580 .636405 .514287
3 1 .815631 .034754 .527761
4 1 .219120 .004742 .486935
5 1 .004317 .611812 .467990
6 1 .485151 .464820 .992940
7 1 .511910 .454675 .011110
ITEM: TIMESTEP
100
ITEM: NUMBER OF ATOMS
7
ITEM: BOX BOUNDS ss ss ss
-2.8879 3.4608
-2.9176 3.1866
-1.7758 2.1396
ITEM: ATOMS id type xs ys zs
1 1 .486627 .993360 .471344
2 1 .993769 .635670 .513966
3 1 .815747 .036866 .527873
4 1 .220254 .006560 .486338
5 1 .006254 .611583 .467713
6 1 .485959 .465164 .991726
7 1 .512440 .454691 .011565
ITEM: TIMESTEP
150
ITEM: NUMBER OF ATOMS
7
ITEM: BOX BOUNDS ss ss ss
-2.8891 3.4614
-2.9192 3.1898
-1.7758 2.1414
ITEM: ATOMS id type xs ys zs
1 1 .487038 .992946 .471270
2 1 .992657 .635045 .513726
3 1 .815934 .037139 .528015
4 1 .219900 .007121 .485944
5 1 .006507 .610848 .467185
6 1 .486380 .465136 .990403
7 1 .512344 .454286 .011622
ITEM: TIMESTEP
200
ITEM: NUMBER OF ATOMS
7
ITEM: BOX BOUNDS ss ss ss
-2.8894 3.4557
-2.9228 3.2060
-1.7758 2.1461
ITEM: ATOMS id type xs ys zs
1 1 .488051 .992279 .471750
2 1 .992427 .634268 .514737
3 1 .816296 .036482 .528059
4 1 .218864 .009174 .486824
5 1 .007844 .608931 .466683
6 1 .488194 .466666 .987060
7 1 .512787 .452277 .009478
ITEM: TIMESTEP
250
ITEM: NUMBER OF ATOMS
7
ITEM: BOX BOUNDS ss ss ss
-2.8765 3.4543
-2.9056 3.2041
-1.7830 2.1345
ITEM: ATOMS id type xs ys zs
1 1 .487397 .993064 .475518
2 1 .990891 .634356 .518616
3 1 .816039 .033193 .531495
4 1 .216125 .007934 .490715
5 1 .005959 .608231 .469314
6 1 .488211 .466734 .987736
7 1 .512321 .450649 .009489
ITEM: TIMESTEP
300
ITEM: NUMBER OF ATOMS
7
ITEM: BOX BOUNDS ss ss ss
-2.8864 3.4379
-2.8987 3.2070
-1.7850 2.1345
ITEM: ATOMS id type xs ys zs
1 1 .489534 .992815 .475429
2 1 .992818 .633374 .518288
3 1 .818907 .032407 .533123
4 1 .217831 .007728 .491263
5 1 .007335 .607226 .469237
6 1 .490758 .466005 .987680
7 1 .514472 .450300 .009624
ITEM: TIMESTEP
350
ITEM: NUMBER OF ATOMS
7
ITEM: BOX BOUNDS ss ss ss
-2.8873 3.4327
-2.8936 3.2117
-1.7874 2.1345
ITEM: ATOMS id type xs ys zs
1 1 .490082 .992345 .474755
2 1 .993161 .632335 .517564
3 1 .819889 .031835 .534252
4 1 .218326 .008054 .491500
5 1 .007676 .605884 .469258
6 1 .491794 .465168 .987921
7 1 .514866 .449824 .009559
ITEM: TIMESTEP
400
ITEM: NUMBER OF ATOMS
7
ITEM: BOX BOUNDS ss ss ss
-2.8816 3.4348
-2.8892 3.2097
-1.8043 2.1513
ITEM: ATOMS id type xs ys zs
1 1 .489483 .992866 .473848
2 1 .992136 .632290 .516290
3 1 .819521 .031000 .534149
4 1 .217591 .008673 .491657
5 1 .007157 .605442 .468957
6 1 .491799 .465108 .983869
7 1 .514086 .449349 .012661
ITEM: TIMESTEP
1
ITEM: NUMBER OF ATOMS
7
ITEM: BOX BOUNDS ss ss ss
-2.8641 3.4268
-2.8776 3.1845
-1.8040 2.1228
ITEM: ATOMS id type xs ys zs
1 1 .487107 .993444 .477422
2 1 .999376 .634157 .520153
3 1 .818879 .030102 .533358
4 1 .218658 .000615 .492849
5 1 .003112 .608945 .473611
6 1 .486775 .461778 .997165
7 1 .513393 .451466 .017419
ITEM: TIMESTEP
50
ITEM: NUMBER OF ATOMS
7
ITEM: BOX BOUNDS ss ss ss
-2.8798 3.4530
-2.9081 3.1845
-1.8040 2.1405
ITEM: ATOMS id type xs ys zs
1 1 .486269 .993636 .474903
2 1 .995821 .635801 .517528
3 1 .815860 .035035 .530833
4 1 .219931 .004959 .490371
5 1 .005250 .611302 .471605
6 1 .485644 .464536 .992653
7 1 .512471 .454358 .018190
ITEM: TIMESTEP
100
ITEM: NUMBER OF ATOMS
7
ITEM: BOX BOUNDS ss ss ss
-2.8861 3.4576
-2.9152 3.1849
-1.8040 2.1461
ITEM: ATOMS id type xs ys zs
1 1 .486942 .993579 .475126
2 1 .994247 .635683 .516614
3 1 .816040 .036712 .530363
4 1 .220154 .006205 .488928
5 1 .005996 .611672 .470391
6 1 .486027 .465295 .990183
7 1 .512595 .454665 .018682
ITEM: TIMESTEP
150
ITEM: NUMBER OF ATOMS
7
ITEM: BOX BOUNDS ss ss ss
-2.8901 3.4636
-2.9212 3.1937
-1.8040 2.1410
ITEM: ATOMS id type xs ys zs
1 1 .488508 .991027 .477441
2 1 .992687 .634339 .516108
3 1 .817324 .037516 .529648
4 1 .220123 .008169 .487291
5 1 .006096 .611366 .470274
6 1 .486672 .464376 .988596
7 1 .512146 .454183 .017007
ITEM: TIMESTEP
200
ITEM: NUMBER OF ATOMS
7
ITEM: BOX BOUNDS ss ss ss
-2.8876 3.4552
-2.9085 3.1928
-1.8040 2.1314
ITEM: ATOMS id type xs ys zs
1 1 .490319 .990621 .479085
2 1 .993690 .633603 .517665
3 1 .819324 .035385 .530341
4 1 .219770 .006408 .487495
5 1 .005419 .610663 .471477
6 1 .487968 .462860 .989565
7 1 .512108 .452512 .016249
ITEM: TIMESTEP
250
ITEM: NUMBER OF ATOMS
7
ITEM: BOX BOUNDS ss ss ss
-2.9023 3.4558
-2.9149 3.1899
-1.8040 2.1321
ITEM: ATOMS id type xs ys zs
1 1 .492866 .991184 .478629
2 1 .992829 .634583 .518420
3 1 .820310 .036345 .530860
4 1 .220930 .008041 .487180
5 1 .007645 .611186 .470987
6 1 .489642 .463876 .989032
7 1 .512504 .452851 .015819
ITEM: TIMESTEP
300
ITEM: NUMBER OF ATOMS
7
ITEM: BOX BOUNDS ss ss ss
-2.9005 3.4512
-2.9243 3.1845
-1.8040 2.1297
ITEM: ATOMS id type xs ys zs
1 1 .493757 .992284 .478750
2 1 .992749 .635620 .519138
3 1 .821543 .037567 .532158
4 1 .220907 .010004 .487899
5 1 .007361 .611706 .471838
6 1 .490378 .464992 .989075
7 1 .512365 .453661 .014972
ITEM: TIMESTEP
350
ITEM: NUMBER OF ATOMS
7
ITEM: BOX BOUNDS ss ss ss
-2.9043 3.4574
-2.9293 3.1914
-1.8040 2.1287
ITEM: ATOMS id type xs ys zs
1 1 .493456 .990969 .478809
2 1 .991548 .635216 .519240
3 1 .821518 .038198 .532647
4 1 .221309 .011300 .488602
5 1 .008209 .610433 .473603
6 1 .490978 .464756 .988817
7 1 .512101 .453224 .013907
ITEM: TIMESTEP
400
ITEM: NUMBER OF ATOMS
7
ITEM: BOX BOUNDS ss ss ss
-2.8961 3.4545
-2.9098 3.1890
-1.8040 2.1286
ITEM: ATOMS id type xs ys zs
1 1 .493229 .991032 .479161
2 1 .991854 .634461 .519362
3 1 .821752 .035292 .532981
4 1 .220357 .008446 .489110
5 1 .007173 .609016 .474702
6 1 .491256 .463073 .988639
7 1 .511686 .451413 .012990
ITEM: TIMESTEP
1
ITEM: NUMBER OF ATOMS
7
ITEM: BOX BOUNDS ss ss ss
-2.8774 3.4294
-2.8876 3.1845
-1.8040 2.1228
ITEM: ATOMS id type xs ys zs
1 1 .487986 .993457 .477420
2 1 .998972 .634760 .520153
3 1 .818927 .031704 .533360
4 1 .220209 .002260 .492852
5 1 .005205 .609591 .473619
6 1 .487655 .462663 .997166
7 1 .514206 .452373 .017421
ITEM: TIMESTEP
50
ITEM: NUMBER OF ATOMS
7
ITEM: BOX BOUNDS ss ss ss
-2.8774 3.4570
-2.9068 3.1845
-1.8040 2.1377
ITEM: ATOMS id type xs ys zs
1 1 .485710 .993678 .475197
2 1 .995309 .635716 .517814
3 1 .815249 .034778 .531253
4 1 .219553 .004645 .490664
5 1 .004870 .611267 .472001
6 1 .485117 .464394 .993417
7 1 .511955 .454338 .018311
ITEM: TIMESTEP
100
ITEM: NUMBER OF ATOMS
7
ITEM: BOX BOUNDS ss ss ss
-2.8843 3.4600
-2.9155 3.1845
-1.8040 2.1481
ITEM: ATOMS id type xs ys zs
1 1 .486614 .993989 .474452
2 1 .994121 .635916 .516866
3 1 .816000 .036609 .530217
4 1 .220018 .005948 .488846
5 1 .005621 .611887 .470506
6 1 .485546 .465220 .989687
7 1 .512140 .454756 .018776
ITEM: TIMESTEP
150
ITEM: NUMBER OF ATOMS
7
ITEM: BOX BOUNDS ss ss ss
-2.8936 3.4617
-2.9210 3.1930
-1.8040 2.1479
ITEM: ATOMS id type xs ys zs
1 1 .487932 .993730 .473077
2 1 .992491 .634567 .517698
3 1 .816643 .036914 .531179
4 1 .220629 .006097 .487557
5 1 .007118 .610954 .469558
6 1 .486607 .465044 .987778
7 1 .512319 .454117 .018993
ITEM: TIMESTEP
200
ITEM: NUMBER OF ATOMS
7
ITEM: BOX BOUNDS ss ss ss
-2.8947 3.4522
-2.9276 3.2050
-1.8040 2.1370
ITEM: ATOMS id type xs ys zs
1 1 .488873 .992974 .472549
2 1 .991984 .632859 .520701
3 1 .817316 .036900 .532591
4 1 .220556 .006960 .488171
5 1 .007820 .609258 .470002
6 1 .487973 .464646 .989451
7 1 .512339 .453727 .018821
ITEM: TIMESTEP
250
ITEM: NUMBER OF ATOMS
7
ITEM: BOX BOUNDS ss ss ss
-2.8898 3.4479
-2.9398 3.2131
-1.8040 2.1339
ITEM: ATOMS id type xs ys zs
1 1 .488821 .991874 .473560
2 1 .991215 .632455 .522241
3 1 .817395 .038393 .532644
4 1 .219867 .009136 .488976
5 1 .007120 .608601 .470365
6 1 .488014 .464842 .989919
7 1 .511209 .453808 .017723
ITEM: TIMESTEP
300
ITEM: NUMBER OF ATOMS
7
ITEM: BOX BOUNDS ss ss ss
-2.8855 3.4371
-2.9405 3.2032
-1.8040 2.1379
ITEM: ATOMS id type xs ys zs
1 1 .489373 .992972 .473827
2 1 .991716 .633710 .522196
3 1 .818819 .038300 .532449
4 1 .219483 .009572 .489129
5 1 .006411 .609080 .470589
6 1 .488567 .465476 .988349
7 1 .511138 .454071 .015737
ITEM: TIMESTEP
350
ITEM: NUMBER OF ATOMS
7
ITEM: BOX BOUNDS ss ss ss
-2.8960 3.4323
-2.9332 3.2032
-1.8040 2.1416
ITEM: ATOMS id type xs ys zs
1 1 .491375 .992213 .474008
2 1 .991674 .633684 .521992
3 1 .819813 .037091 .533468
4 1 .220814 .008834 .488516
5 1 .008223 .608086 .470876
6 1 .490372 .465327 .986887
7 1 .512127 .452759 .013793
ITEM: TIMESTEP
400
ITEM: NUMBER OF ATOMS
7
ITEM: BOX BOUNDS ss ss ss
-2.8892 3.4280
-2.9284 3.2009
-1.8040 2.1415
ITEM: ATOMS id type xs ys zs
1 1 .492285 .991393 .473986
2 1 .992108 .634165 .521979
3 1 .820170 .036962 .536543
4 1 .219933 .008639 .487466
5 1 .007457 .606784 .473056
6 1 .491111 .465126 .986868
7 1 .511487 .451570 .012410
ITEM: TIMESTEP
1
ITEM: NUMBER OF ATOMS
7
ITEM: BOX BOUNDS ss ss ss
-2.8668 3.4270
-2.8950 3.1702
-1.7875 2.1182
ITEM: ATOMS id type xs ys zs
1 1 .487305 .995805 .475774
2 1 .999346 .636698 .518736
3 1 .818930 .032953 .532004
4 1 .218979 .003474 .491287
5 1 .003528 .611497 .471948
6 1 .486974 .464407 .998320
7 1 .513582 .454104 .013295
ITEM: TIMESTEP
50
ITEM: NUMBER OF ATOMS
7
ITEM: BOX BOUNDS ss ss ss
-2.8737 3.4564
-2.9100 3.1750
-1.7875 2.1394
ITEM: ATOMS id type xs ys zs
1 1 .485468 .995241 .472754
2 1 .995453 .636896 .515558
3 1 .815205 .035335 .528971
4 1 .219175 .005097 .488396
5 1 .004276 .612492 .469554
6 1 .484806 .465384 .992959
7 1 .511763 .455291 .014257
ITEM: TIMESTEP
100
ITEM: NUMBER OF ATOMS
7
ITEM: BOX BOUNDS ss ss ss
-2.8892 3.4660
-2.9200 3.1883
-1.7875 2.1460
ITEM: ATOMS id type xs ys zs
1 1 .486550 .993302 .472579
2 1 .992887 .635442 .515301
3 1 .814932 .037318 .528137
4 1 .220439 .006300 .486310
5 1 .006542 .612171 .468808
6 1 .485361 .465262 .990690
7 1 .511953 .454788 .014319
ITEM: TIMESTEP
150
ITEM: NUMBER OF ATOMS
7
ITEM: BOX BOUNDS ss ss ss
-2.8897 3.4701
-2.9261 3.1951
-1.7875 2.1572
ITEM: ATOMS id type xs ys zs
1 1 .486795 .991943 .472266
2 1 .989713 .634143 .516045
3 1 .815330 .038326 .526987
4 1 .221253 .006847 .482837
5 1 .006734 .612773 .466821
6 1 .484610 .464933 .987672
7 1 .511217 .454327 .012432
ITEM: TIMESTEP
200
ITEM: NUMBER OF ATOMS
7
ITEM: BOX BOUNDS ss ss ss
-2.8931 3.4494
-2.9323 3.1945
-1.7875 2.1652
ITEM: ATOMS id type xs ys zs
1 1 .488984 .992129 .472074
2 1 .991629 .634504 .515945
3 1 .819194 .039765 .525843
4 1 .222795 .007864 .480872
5 1 .007187 .613343 .465394
6 1 .486363 .465481 .985319
7 1 .512948 .454524 .012460
ITEM: TIMESTEP
250
ITEM: NUMBER OF ATOMS
7
ITEM: BOX BOUNDS ss ss ss
-2.8940 3.4483
-2.9328 3.1981
-1.7875 2.1652
ITEM: ATOMS id type xs ys zs
1 1 .489096 .991611 .472777
2 1 .990608 .633944 .516741
3 1 .819924 .040277 .526160
4 1 .222940 .008295 .480538
5 1 .007053 .613070 .465405
6 1 .486703 .465022 .984867
7 1 .512362 .454283 .012367
ITEM: TIMESTEP
300
ITEM: NUMBER OF ATOMS
7
ITEM: BOX BOUNDS ss ss ss
-2.8995 3.4462
-2.9290 3.2012
-1.7956 2.1687
ITEM: ATOMS id type xs ys zs
1 1 .490209 .991083 .473949
2 1 .989701 .633034 .517429
3 1 .820583 .040055 .527489
4 1 .223472 .008610 .482181
5 1 .007537 .611240 .466842
6 1 .487126 .464660 .984633
7 1 .512214 .454169 .013717
ITEM: TIMESTEP
350
ITEM: NUMBER OF ATOMS
7
ITEM: BOX BOUNDS ss ss ss
-2.8999 3.4428
-2.9336 3.1978
-1.8013 2.1684
ITEM: ATOMS id type xs ys zs
1 1 .491335 .991113 .474392
2 1 .989105 .634293 .519850
3 1 .822569 .041431 .529804
4 1 .224004 .009702 .484338
5 1 .007638 .610305 .469317
6 1 .487161 .465169 .985215
7 1 .512435 .454275 .015017
ITEM: TIMESTEP
400
ITEM: NUMBER OF ATOMS
7
ITEM: BOX BOUNDS ss ss ss
-2.8992 3.4358
-2.9313 3.1979
-1.7943 2.1651
ITEM: ATOMS id type xs ys zs
1 1 .492288 .990816 .473898
2 1 .989472 .635057 .520903
3 1 .824312 .041141 .531061
4 1 .224392 .009191 .483924
5 1 .007805 .609522 .469558
6 1 .487853 .464439 .985960
7 1 .513036 .453422 .013474
ITEM: TIMESTEP
1
ITEM: NUMBER OF ATOMS
7
ITEM: BOX BOUNDS ss ss ss
-2.8775 3.4265
-2.8954 3.1702
-1.7875 2.1324
ITEM: ATOMS id type xs ys zs
1 1 .488218 .995803 .474047
2 1 .999433 .636720 .516860
3 1 .819307 .033010 .530089
4 1 .220324 .003537 .489516
5 1 .005222 .611525 .470245
6 1 .487887 .464440 .994712
7 1 .514452 .454136 .013248
ITEM: TIMESTEP
50
ITEM: NUMBER OF ATOMS
7
ITEM: BOX BOUNDS ss ss ss
-2.8775 3.4533
-2.9082 3.1748
-1.7875 2.1434
ITEM: ATOMS id type xs ys zs
1 1 .485977 .995264 .472248
2 1 .996048 .636796 .515051
3 1 .815683 .035018 .528442
4 1 .219762 .004745 .487863
5 1 .004821 .612459 .469124
6 1 .485308 .465235 .991899
7 1 .512311 .455201 .014283
ITEM: TIMESTEP
100
ITEM: NUMBER OF ATOMS
7
ITEM: BOX BOUNDS ss ss ss
-2.8850 3.4688
-2.9196 3.1841
-1.7875 2.1476
ITEM: ATOMS id type xs ys zs
1 1 .485699 .994041 .471780
2 1 .993420 .635875 .514682
3 1 .814478 .037515 .528389
4 1 .219822 .006451 .487287
5 1 .005548 .612117 .468396
6 1 .485031 .465717 .990054
7 1 .511628 .455622 .015081
ITEM: TIMESTEP
150
ITEM: NUMBER OF ATOMS
7
ITEM: BOX BOUNDS ss ss ss
-2.8919 3.4737
-2.9184 3.1843
-1.7875 2.1465
ITEM: ATOMS id type xs ys zs
1 1 .486277 .994279 .472703
2 1 .992267 .635145 .515110
3 1 .814972 .038398 .529020
4 1 .220539 .006870 .487029
5 1 .006020 .611705 .467682
6 1 .485715 .466616 .990622
7 1 .511438 .455516 .015691
ITEM: TIMESTEP
200
ITEM: NUMBER OF ATOMS
7
ITEM: BOX BOUNDS ss ss ss
-2.9027 3.4676
-2.9239 3.1897
-1.7875 2.1528
ITEM: ATOMS id type xs ys zs
1 1 .488274 .993518 .473488
2 1 .992678 .634815 .513822
3 1 .816666 .039166 .528470
4 1 .222604 .008030 .485139
5 1 .007166 .610925 .466760
6 1 .487242 .466990 .989578
7 1 .512555 .455591 .016199
ITEM: TIMESTEP
250
ITEM: NUMBER OF ATOMS
7
ITEM: BOX BOUNDS ss ss ss
-2.9044 3.4654
-2.9277 3.2008
-1.7875 2.1551
ITEM: ATOMS id type xs ys zs
1 1 .489425 .991987 .476457
2 1 .992211 .634363 .513851
3 1 .817030 .039077 .529123
4 1 .223040 .008860 .483256
5 1 .006934 .609431 .466403
6 1 .487761 .466513 .988963
7 1 .512670 .455398 .016578
ITEM: TIMESTEP
300
ITEM: NUMBER OF ATOMS
7
ITEM: BOX BOUNDS ss ss ss
-2.9057 3.4519
-2.9327 3.2012
-1.7875 2.1517
ITEM: ATOMS id type xs ys zs
1 1 .490717 .991111 .479120
2 1 .993447 .634853 .513473
3 1 .818472 .039297 .531843
4 1 .223223 .010742 .480483
5 1 .006749 .608483 .466114
6 1 .489392 .467076 .989397
7 1 .513744 .455919 .014575
ITEM: TIMESTEP
350
ITEM: NUMBER OF ATOMS
7
ITEM: BOX BOUNDS ss ss ss
-2.9022 3.4584
-2.9202 3.1977
-1.7875 2.1603
ITEM: ATOMS id type xs ys zs
1 1 .491813 .990261 .480887
2 1 .991853 .634255 .510752
3 1 .818319 .037504 .532818
4 1 .221281 .010225 .474271
5 1 .006078 .607286 .464050
6 1 .488786 .465889 .985801
7 1 .513412 .455321 .012708
ITEM: TIMESTEP
400
ITEM: NUMBER OF ATOMS
7
ITEM: BOX BOUNDS ss ss ss
-2.9100 3.4549
-2.9054 3.1858
-1.7828 2.1449
ITEM: ATOMS id type xs ys zs
1 1 .493129 .992704 .483669
2 1 .992034 .635523 .510887
3 1 .818918 .035660 .534193
4 1 .221551 .008704 .474316
5 1 .007717 .606399 .466119
6 1 .490052 .464414 .988641
7 1 .514085 .455694 .010857
ITEM: TIMESTEP
1
ITEM: NUMBER OF ATOMS
7
ITEM: BOX BOUNDS ss ss ss
-2.8755 3.4280
-2.8776 3.1737
-1.7736 2.1297
ITEM: ATOMS id type xs ys zs
1 1 .487937 .995225 .472509
2 1 .999197 .635292 .515502
3 1 .819052 .030159 .528788
4 1 .220022 .000611 .488034
5 1 .004901 .610041 .468685
6 1 .487603 .462604 .995387
7 1 .514170 .452278 .009754
ITEM: TIMESTEP
50
ITEM: NUMBER OF ATOMS
7
ITEM: BOX BOUNDS ss ss ss
-2.8772 3.4576
-2.9095 3.1737
-1.7736 2.1410
ITEM: ATOMS id type xs ys zs
1 1 .485564 .995487 .470665
2 1 .995443 .637036 .513574
3 1 .815092 .035211 .527010
4 1 .219651 .004968 .486311
5 1 .004786 .612673 .467534
6 1 .484952 .465440 .992618
7 1 .511925 .455421 .010837
ITEM: TIMESTEP
100
ITEM: NUMBER OF ATOMS
7
ITEM: BOX BOUNDS ss ss ss
-2.8868 3.4683
-2.9164 3.1893
-1.7736 2.1498
ITEM: ATOMS id type xs ys zs
1 1 .485447 .993238 .470146
2 1 .993401 .635413 .512734
3 1 .814504 .036503 .525480
4 1 .220274 .006609 .484863
5 1 .005869 .611415 .467309
6 1 .485704 .465443 .989690
7 1 .511773 .454347 .011178
ITEM: TIMESTEP
150
ITEM: NUMBER OF ATOMS
7
ITEM: BOX BOUNDS ss ss ss
-2.8940 3.4648
-2.9171 3.1865
-1.7742 2.1594
ITEM: ATOMS id type xs ys zs
1 1 .485313 .993981 .469989
2 1 .993288 .634437 .512481
3 1 .816048 .037335 .524108
4 1 .220713 .008517 .484842
5 1 .006334 .611533 .467632
6 1 .487482 .467060 .987117
7 1 .512247 .454723 .011328
ITEM: TIMESTEP
200
ITEM: NUMBER OF ATOMS
7
ITEM: BOX BOUNDS ss ss ss
-2.9040 3.4682
-2.9113 3.1948
-1.7742 2.1489
ITEM: ATOMS id type xs ys zs
1 1 .485539 .992983 .472456
2 1 .992399 .631927 .514378
3 1 .816836 .036873 .525509
4 1 .221419 .008557 .487249
5 1 .007472 .610227 .469109
6 1 .488570 .466068 .989577
7 1 .512407 .454103 .011586
ITEM: TIMESTEP
250
ITEM: NUMBER OF ATOMS
7
ITEM: BOX BOUNDS ss ss ss
-2.9005 3.4648
-2.9086 3.2017
-1.7914 2.1557
ITEM: ATOMS id type xs ys zs
1 1 .486045 .991744 .474534
2 1 .992455 .630703 .515588
3 1 .817584 .036512 .527323
4 1 .221029 .008636 .488673
5 1 .006780 .609247 .469834
6 1 .489108 .465392 .988053
7 1 .512374 .453734 .015787
ITEM: TIMESTEP
300
ITEM: NUMBER OF ATOMS
7
ITEM: BOX BOUNDS ss ss ss
-2.9070 3.4611
-2.9080 3.2032
-1.7848 2.1551
ITEM: ATOMS id type xs ys zs
1 1 .487663 .991668 .474304
2 1 .991946 .630686 .515350
3 1 .817957 .035600 .527257
4 1 .221750 .009524 .488480
5 1 .008385 .608986 .466849
6 1 .490441 .464627 .988141
7 1 .513710 .453809 .013769
ITEM: TIMESTEP
350
ITEM: NUMBER OF ATOMS
7
ITEM: BOX BOUNDS ss ss ss
-2.9059 3.4590
-2.9065 3.2054
-1.7792 2.1517
ITEM: ATOMS id type xs ys zs
1 1 .488068 .991951 .474496