ITEM: TIMESTEP
1
ITEM: NUMBER OF ATOMS
7
ITEM: BOX BOUNDS ss ss ss
-2.8481 3.4265
-2.8778 3.1490
-1.7401 2.1158
ITEM: ATOMS id type xs ys zs
1 1 .485924 .999255 .469720
2 1 .999209 .637901 .513217
3 1 .818553 .030359 .526609
4 1 .216567 .000781 .485387
5 1 .000616 .612439 .465752
6 1 .485611 .464514 .998817
7 1 .512187 .454061 .001054
ITEM: TIMESTEP
50
ITEM: NUMBER OF ATOMS
7
ITEM: BOX BOUNDS ss ss ss
-2.8719 3.4514
-2.9083 3.1722
-1.7589 2.1372
ITEM: ATOMS id type xs ys zs
1 1 .485087 .996193 .469741
2 1 .992972 .637361 .513156
3 1 .816719 .035321 .527356
4 1 .218828 .007303 .486730
5 1 .004378 .609882 .466815
6 1 .486639 .466933 .990400
7 1 .510875 .453504 .004352
ITEM: TIMESTEP
100
ITEM: NUMBER OF ATOMS
7
ITEM: BOX BOUNDS ss ss ss
-2.8789 3.4553
-2.9207 3.1815
-1.7767 2.1434
ITEM: ATOMS id type xs ys zs
1 1 .485039 .994174 .470710
2 1 .990791 .639062 .514485
3 1 .816760 .038946 .530203
4 1 .220375 .011380 .488332
5 1 .006060 .609056 .466816
6 1 .489101 .467168 .989420
7 1 .511854 .454932 .006730
ITEM: TIMESTEP
150
ITEM: NUMBER OF ATOMS
7
ITEM: BOX BOUNDS ss ss ss
-2.8849 3.4561
-2.9064 3.1897
-1.7756 2.1368
ITEM: ATOMS id type xs ys zs
1 1 .485815 .992349 .473645
2 1 .989557 .636255 .515745
3 1 .817641 .036083 .529173
4 1 .218589 .009989 .490543
5 1 .006695 .606309 .466788
6 1 .488102 .464848 .991509
7 1 .512994 .452417 .005903
ITEM: TIMESTEP
200
ITEM: NUMBER OF ATOMS
7
ITEM: BOX BOUNDS ss ss ss
-2.8833 3.4464
-2.9067 3.1880
-1.7810 2.1417
ITEM: ATOMS id type xs ys zs
1 1 .485651 .992851 .476387
2 1 .987706 .636833 .515456
3 1 .818039 .037365 .530568
4 1 .217724 .011700 .491992
5 1 .005036 .603896 .468311
6 1 .489198 .464281 .993696
7 1 .513580 .452022 .006350
ITEM: TIMESTEP
250
ITEM: NUMBER OF ATOMS
7
ITEM: BOX BOUNDS ss ss ss
-2.8890 3.4325
-2.8980 3.1917
-1.7899 2.1378
ITEM: ATOMS id type xs ys zs
1 1 .484668 .990713 .479764
2 1 .991251 .637232 .521488
3 1 .820483 .034839 .532694
4 1 .218507 .009694 .490648
5 1 .007821 .600863 .471303
6 1 .491084 .462798 .991950
7 1 .514858 .450884 .006473
ITEM: TIMESTEP
300
ITEM: NUMBER OF ATOMS
7
ITEM: BOX BOUNDS ss ss ss
-2.8918 3.4275
-2.8942 3.1943
-1.8036 2.1480
ITEM: ATOMS id type xs ys zs
1 1 .485799 .990139 .479189
2 1 .989993 .637087 .521078
3 1 .821636 .034471 .528952
4 1 .218049 .011078 .492327
5 1 .008901 .599506 .468353
6 1 .493491 .463711 .990473
7 1 .515978 .450977 .009878
ITEM: TIMESTEP
350
ITEM: NUMBER OF ATOMS
7
ITEM: BOX BOUNDS ss ss ss
-2.8880 3.4237
-2.8868 3.1860
-1.8052 2.1535
ITEM: ATOMS id type xs ys zs
1 1 .485847 .992301 .477469
2 1 .988360 .637449 .520070
3 1 .821047 .032888 .533832
4 1 .216453 .009866 .491485
5 1 .007905 .603227 .469316
6 1 .492020 .463627 .988513
7 1 .515443 .449440 .008563
ITEM: TIMESTEP
400
ITEM: NUMBER OF ATOMS
7
ITEM: BOX BOUNDS ss ss ss
-2.8913 3.4212
-2.8849 3.1865
-1.8059 2.1607
ITEM: ATOMS id type xs ys zs
1 1 .485892 .991859 .479604
2 1 .990395 .639295 .516726
3 1 .821792 .034396 .528032
4 1 .217896 .009435 .492447
5 1 .009644 .601293 .465144
6 1 .493577 .461896 .988287
7 1 .516638 .450389 .006201
ITEM: TIMESTEP
1
ITEM: NUMBER OF ATOMS
7
ITEM: BOX BOUNDS ss ss ss
-2.8700 3.4273
-2.8777 3.1652
-1.7956 2.1387
ITEM: ATOMS id type xs ys zs
1 1 .487596 .996603 .474487
2 1 .999093 .636178 .517100
3 1 .819041 .030252 .530237
4 1 .219278 .000785 .489806
5 1 .004086 .610787 .470534
6 1 .487338 .463281 .993058
7 1 .513807 .452869 .015153
ITEM: TIMESTEP
50
ITEM: NUMBER OF ATOMS
7
ITEM: BOX BOUNDS ss ss ss
-2.8780 3.4510
-2.9018 3.1714
-1.7956 2.1387
ITEM: ATOMS id type xs ys zs
1 1 .486873 .995987 .476527
2 1 .993372 .637379 .517152
3 1 .818116 .033874 .531238
4 1 .218758 .005342 .490394
5 1 .005899 .611175 .472040
6 1 .487677 .464560 .991486
7 1 .511401 .454875 .014076
ITEM: TIMESTEP
100
ITEM: NUMBER OF ATOMS
7
ITEM: BOX BOUNDS ss ss ss
-2.8811 3.4589
-2.9131 3.1773
-1.7956 2.1397
ITEM: ATOMS id type xs ys zs
1 1 .487191 .993871 .477381
2 1 .991581 .636564 .516754
3 1 .815546 .037074 .528291
4 1 .216565 .008147 .492903
5 1 .007496 .611261 .467171
6 1 .486685 .466224 .989880
7 1 .513463 .453206 .011052
ITEM: TIMESTEP
150
ITEM: NUMBER OF ATOMS
7
ITEM: BOX BOUNDS ss ss ss
-2.8859 3.4477
-2.9166 3.1858
-1.7956 2.1471
ITEM: ATOMS id type xs ys zs
1 1 .487555 .993117 .475215
2 1 .990957 .632914 .516222
3 1 .818849 .037466 .533525
4 1 .220057 .009685 .488484
5 1 .008535 .608169 .468325
6 1 .489768 .466913 .991600
7 1 .514413 .450950 .010700
ITEM: TIMESTEP
200
ITEM: NUMBER OF ATOMS
7
ITEM: BOX BOUNDS ss ss ss
-2.8846 3.4424
-2.9054 3.1956
-1.7956 2.1421
ITEM: ATOMS id type xs ys zs
1 1 .487336 .989357 .475200
2 1 .991463 .631490 .519371
3 1 .818749 .036357 .534059
4 1 .218872 .008990 .488667
5 1 .008076 .605670 .466232
6 1 .490374 .463053 .991776
7 1 .514128 .451447 .006766
ITEM: TIMESTEP
250
ITEM: NUMBER OF ATOMS
7
ITEM: BOX BOUNDS ss ss ss
-2.8896 3.4339
-2.9134 3.1979
-1.7971 2.1498
ITEM: ATOMS id type xs ys zs
1 1 .489384 .989951 .476114
2 1 .992131 .632865 .518094
3 1 .819167 .038337 .529967
4 1 .218612 .011959 .490471
5 1 .009369 .604325 .465877
6 1 .491095 .463435 .988295
7 1 .513424 .449790 .008334
ITEM: TIMESTEP
300
ITEM: NUMBER OF ATOMS
7
ITEM: BOX BOUNDS ss ss ss
-2.8907 3.4302
-2.9092 3.1921
-1.8064 2.1457
ITEM: ATOMS id type xs ys zs
1 1 .489317 .988764 .477724
2 1 .991248 .634498 .518092
3 1 .819922 .038214 .535290
4 1 .218320 .011605 .491011
5 1 .008938 .604804 .468714
6 1 .491659 .465882 .988801
7 1 .513521 .450772 .007757
ITEM: TIMESTEP
350
ITEM: NUMBER OF ATOMS
7
ITEM: BOX BOUNDS ss ss ss
-2.8847 3.4311
-2.8995 3.1888
-1.8141 2.1529
ITEM: ATOMS id type xs ys zs
1 1 .489296 .990108 .480318
2 1 .990326 .633733 .522266
3 1 .820695 .035827 .532043
4 1 .218580 .010145 .492168
5 1 .009069 .604309 .467326
6 1 .491491 .462539 .989468
7 1 .513398 .450473 .008555
ITEM: TIMESTEP
400
ITEM: NUMBER OF ATOMS
7
ITEM: BOX BOUNDS ss ss ss
-2.8830 3.4253
-2.8903 3.1915
-1.8165 2.1484
ITEM: ATOMS id type xs ys zs
1 1 .489501 .989192 .479992
2 1 .991105 .635103 .524785
3 1 .821238 .035024 .531541
4 1 .216084 .010087 .494786
5 1 .008578 .603138 .463595
6 1 .492273 .460427 .990089
7 1 .513917 .449218 .007267
ITEM: TIMESTEP
1
ITEM: NUMBER OF ATOMS
7
ITEM: BOX BOUNDS ss ss ss
-2.8569 3.4267
-2.8789 3.1595
-1.8023 2.1401
ITEM: ATOMS id type xs ys zs
1 1 .486569 .997544 .475212
2 1 .999198 .636866 .517743
3 1 .818759 .030472 .530886
4 1 .217676 .000976 .490507
5 1 .002005 .611432 .471282
6 1 .486301 .463826 .992695
7 1 .512844 .453411 .016828
ITEM: TIMESTEP
50
ITEM: NUMBER OF ATOMS
7
ITEM: BOX BOUNDS ss ss ss
-2.8749 3.4523
-2.9038 3.1723
-1.8023 2.1401
ITEM: ATOMS id type xs ys zs
1 1 .486103 .995684 .475821
2 1 .993054 .637222 .517621
3 1 .816977 .035046 .530065
4 1 .218574 .006644 .491083
5 1 .004298 .610786 .471318
6 1 .487647 .465889 .990935
7 1 .513234 .454748 .017202
ITEM: TIMESTEP
100
ITEM: NUMBER OF ATOMS
7
ITEM: BOX BOUNDS ss ss ss
-2.8841 3.4547
-2.9162 3.1829
-1.8023 2.1447
ITEM: ATOMS id type xs ys zs
1 1 .488361 .991758 .475677
2 1 .991125 .635987 .516797
3 1 .817905 .036310 .529103
4 1 .219041 .008012 .487446
5 1 .006983 .610654 .470753
6 1 .488473 .464818 .989087
7 1 .512489 .452891 .014301
ITEM: TIMESTEP
150
ITEM: NUMBER OF ATOMS
7
ITEM: BOX BOUNDS ss ss ss
-2.8855 3.4507
-2.9251 3.1873
-1.8023 2.1417
ITEM: ATOMS id type xs ys zs
1 1 .489524 .991216 .476897
2 1 .992010 .636230 .521516
3 1 .819731 .037281 .524961
4 1 .220564 .012301 .490539
5 1 .006884 .609781 .471369
6 1 .488603 .464530 .992079
7 1 .515224 .454434 .012356
ITEM: TIMESTEP
200
ITEM: NUMBER OF ATOMS
7
ITEM: BOX BOUNDS ss ss ss
-2.8902 3.4444
-2.9155 3.1871
-1.8023 2.1418
ITEM: ATOMS id type xs ys zs
1 1 .491410 .991677 .472598
2 1 .991267 .635212 .520742
3 1 .818816 .036468 .534851
4 1 .221073 .010595 .492616
5 1 .007546 .605768 .470668
6 1 .489456 .465131 .989442
7 1 .514068 .452863 .011198
ITEM: TIMESTEP
250
ITEM: NUMBER OF ATOMS
7
ITEM: BOX BOUNDS ss ss ss
-2.8903 3.4417
-2.9145 3.1900
-1.8023 2.1406
ITEM: ATOMS id type xs ys zs
1 1 .489387 .990983 .472351
2 1 .990467 .635527 .520251
3 1 .820431 .036884 .530358
4 1 .220114 .010406 .494649
5 1 .009496 .604566 .473607
6 1 .490871 .466723 .990759
7 1 .512417 .452605 .010174
ITEM: TIMESTEP
300
ITEM: NUMBER OF ATOMS
7
ITEM: BOX BOUNDS ss ss ss
-2.8856 3.4362
-2.9099 3.1890
-1.8023 2.1420
ITEM: ATOMS id type xs ys zs
1 1 .489292 .990820 .472288
2 1 .990518 .636156 .520158
3 1 .822165 .037556 .530916
4 1 .220776 .009918 .493972
5 1 .008961 .603690 .475402
6 1 .493044 .465578 .990982
7 1 .512702 .451513 .009488
ITEM: TIMESTEP
350
ITEM: NUMBER OF ATOMS
7
ITEM: BOX BOUNDS ss ss ss
-2.8923 3.4383
-2.9117 3.1902
-1.8034 2.1432
ITEM: ATOMS id type xs ys zs
1 1 .490481 .990525 .480048
2 1 .990819 .634645 .520388
3 1 .819607 .036557 .534482
4 1 .219409 .012106 .491022
5 1 .009856 .603237 .469812
6 1 .491957 .463526 .988811
7 1 .515146 .451589 .005676
ITEM: TIMESTEP
400
ITEM: NUMBER OF ATOMS
7
ITEM: BOX BOUNDS ss ss ss
-2.8907 3.4400
-2.9087 3.1829
-1.8094 2.1524
ITEM: ATOMS id type xs ys zs
1 1 .489414 .991020 .472773
2 1 .989076 .638241 .516588
3 1 .820994 .036861 .530571
4 1 .219313 .010987 .498952
5 1 .009926 .604145 .473060
6 1 .494272 .464697 .990042
7 1 .513435 .449346 .012362
ITEM: TIMESTEP
1
ITEM: NUMBER OF ATOMS
7
ITEM: BOX BOUNDS ss ss ss
-2.8616 3.4269
-2.8774 3.1595
-1.8051 2.1437
ITEM: ATOMS id type xs ys zs
1 1 .486942 .997529 .475160
2 1 .999169 .636764 .517594
3 1 .818847 .030226 .530719
4 1 .218261 .000734 .490420
5 1 .002733 .611359 .471241
6 1 .486675 .463674 .991805
7 1 .513197 .453264 .017487
ITEM: TIMESTEP
50
ITEM: NUMBER OF ATOMS
7
ITEM: BOX BOUNDS ss ss ss
-2.8750 3.4511
-2.9029 3.1729
-1.8051 2.1437
ITEM: ATOMS id type xs ys zs
1 1 .486230 .994965 .473620
2 1 .994005 .637198 .518994
3 1 .816922 .033744 .530974
4 1 .217754 .006510 .492995
5 1 .004111 .610125 .472352
6 1 .486520 .465703 .991767
7 1 .513024 .453429 .017346
ITEM: TIMESTEP
100
ITEM: NUMBER OF ATOMS
7
ITEM: BOX BOUNDS ss ss ss
-2.8842 3.4558
-2.9139 3.1828
-1.8051 2.1459
ITEM: ATOMS id type xs ys zs
1 1 .487281 .991001 .473779
2 1 .991604 .639237 .519103
3 1 .818485 .034721 .530154
4 1 .219612 .008275 .491251
5 1 .007028 .609795 .471198
6 1 .487479 .467220 .989222
7 1 .514279 .452568 .011898
ITEM: TIMESTEP
150
ITEM: NUMBER OF ATOMS
7
ITEM: BOX BOUNDS ss ss ss
-2.8880 3.4561
-2.9143 3.1965
-1.8051 2.1437
ITEM: ATOMS id type xs ys zs
1 1 .488076 .993524 .477019
2 1 .989660 .634768 .515987
3 1 .815942 .034751 .530021
4 1 .216093 .009896 .486687
5 1 .008060 .608963 .475418
6 1 .488303 .465309 .987739
7 1 .511436 .451682 .012271
ITEM: TIMESTEP
200
ITEM: NUMBER OF ATOMS
7
ITEM: BOX BOUNDS ss ss ss
-2.8891 3.4527
-2.9063 3.1970
-1.8051 2.1437
ITEM: ATOMS id type xs ys zs
1 1 .488040 .992414 .480433
2 1 .990171 .634577 .513780
3 1 .815358 .034768 .529407
4 1 .216828 .008445 .486522
5 1 .006784 .607205 .474291
6 1 .490621 .463497 .986547
7 1 .510050 .451666 .012313
ITEM: TIMESTEP
250
ITEM: NUMBER OF ATOMS
7
ITEM: BOX BOUNDS ss ss ss
-2.8964 3.4349
-2.9104 3.2036
-1.8051 2.1437
ITEM: ATOMS id type xs ys zs
1 1 .491095 .992596 .480505
2 1 .989754 .632666 .515249
3 1 .817202 .033877 .531177
4 1 .216066 .012160 .486446
5 1 .008263 .608107 .475802
6 1 .490467 .462898 .986862
7 1 .514011 .451794 .012514
ITEM: TIMESTEP
300
ITEM: NUMBER OF ATOMS
7
ITEM: BOX BOUNDS ss ss ss
-2.8901 3.4392
-2.9011 3.1996
-1.8051 2.1437
ITEM: ATOMS id type xs ys zs
1 1 .490170 .993588 .482848
2 1 .987298 .633007 .520106
3 1 .816808 .032520 .533288
4 1 .215386 .011575 .488967
5 1 .007804 .606908 .480688
6 1 .491469 .461897 .989929
7 1 .512340 .452582 .015771
ITEM: TIMESTEP
350
ITEM: NUMBER OF ATOMS
7
ITEM: BOX BOUNDS ss ss ss
-2.8874 3.4326
-2.8994 3.2013
-1.8051 2.1411
ITEM: ATOMS id type xs ys zs
1 1 .490333 .991487 .485025
2 1 .989215 .633175 .521212
3 1 .816986 .032952 .532431
4 1 .214967 .011225 .488683
5 1 .007948 .606076 .479760
6 1 .491791 .462027 .992613
7 1 .513059 .451767 .013778
ITEM: TIMESTEP
400
ITEM: NUMBER OF ATOMS
7
ITEM: BOX BOUNDS ss ss ss
-2.8888 3.4282
-2.8974 3.2055
-1.8023 2.1445
ITEM: ATOMS id type xs ys zs
1 1 .489912 .989977 .483924
2 1 .989093 .631884 .519150
3 1 .818566 .033066 .534244
4 1 .216118 .012074 .487682
5 1 .007843 .604310 .477305
6 1 .492976 .460717 .992139
7 1 .514167 .451086 .011496
ITEM: TIMESTEP
1
ITEM: NUMBER OF ATOMS
7
ITEM: BOX BOUNDS ss ss ss
-2.8607 3.4266
-2.8777 3.1779
-1.7758 2.1345
ITEM: ATOMS id type xs ys zs
1 1 .486899 .994487 .472333
2 1 .999212 .634832 .515229
3 1 .818874 .030175 .528484
4 1 .218174 .000778 .487737
5 1 .002600 .609518 .468396
6 1 .486620 .462294 .994070
7 1 .513156 .451908 .010158
ITEM: TIMESTEP
50
ITEM: NUMBER OF ATOMS
7
ITEM: BOX BOUNDS ss ss ss
-2.8735 3.4538
-2.9063 3.1779
-1.7758 2.1389
ITEM: ATOMS id type xs ys zs
1 1 .486448 .993291 .471664
2 1 .994082 .636544 .514132
3 1 .817426 .034996 .530990
4 1 .218946 .007638 .485640
5 1 .006636 .609804 .468819
6 1 .486064 .463414 .991085
7 1 .511735 .454135 .010527
ITEM: TIMESTEP
100
ITEM: NUMBER OF ATOMS
7
ITEM: BOX BOUNDS ss ss ss
-2.8879 3.4608
-2.9176 3.1866
-1.7758 2.1396
ITEM: ATOMS id type xs ys zs
1 1 .487834 .995592 .474588
2 1 .993064 .637542 .516360
3 1 .814705 .034329 .528726
4 1 .218927 .010481 .488658
5 1 .007462 .610766 .466777
6 1 .487633 .468159 .990052
7 1 .514059 .453608 .007249
ITEM: TIMESTEP
150
ITEM: NUMBER OF ATOMS
7
ITEM: BOX BOUNDS ss ss ss
-2.8891 3.4614
-2.9192 3.1898
-1.7758 2.1414
ITEM: ATOMS id type xs ys zs
1 1 .487055 .995472 .474533
2 1 .990409 .637270 .517070
3 1 .815359 .035338 .528603
4 1 .217591 .010063 .489471
5 1 .008761 .610240 .467426
6 1 .488816 .468952 .987741
7 1 .512589 .452023 .006225
ITEM: TIMESTEP
200
ITEM: NUMBER OF ATOMS
7
ITEM: BOX BOUNDS ss ss ss
-2.8894 3.4557
-2.9228 3.2060
-1.7758 2.1461
ITEM: ATOMS id type xs ys zs
1 1 .487821 .992291 .472694
2 1 .989732 .634965 .515354
3 1 .817255 .036800 .531149
4 1 .217311 .012422 .489132
5 1 .008129 .608516 .466390
6 1 .490395 .468783 .987866
7 1 .514113 .452820 .006853
ITEM: TIMESTEP
250
ITEM: NUMBER OF ATOMS
7
ITEM: BOX BOUNDS ss ss ss
-2.8765 3.4543
-2.9056 3.2041
-1.7830 2.1345
ITEM: ATOMS id type xs ys zs
1 1 .487564 .991650 .475027
2 1 .989016 .634802 .515666
3 1 .814393 .033689 .532286
4 1 .214491 .010745 .491772
5 1 .006962 .608858 .467337
6 1 .489688 .466941 .989319
7 1 .512603 .451596 .006867
ITEM: TIMESTEP
300
ITEM: NUMBER OF ATOMS
7
ITEM: BOX BOUNDS ss ss ss
-2.8864 3.4379
-2.8987 3.2070
-1.7850 2.1345
ITEM: ATOMS id type xs ys zs
1 1 .488698 .992889 .475070
2 1 .991572 .634252 .516879
3 1 .819055 .032567 .532288
4 1 .216995 .011674 .492310
5 1 .008793 .605790 .467319
6 1 .492412 .466001 .988212
7 1 .514234 .450957 .006646
ITEM: TIMESTEP
350
ITEM: NUMBER OF ATOMS
7
ITEM: BOX BOUNDS ss ss ss
-2.8873 3.4327
-2.8936 3.2117
-1.7874 2.1345
ITEM: ATOMS id type xs ys zs
1 1 .489869 .991913 .472929
2 1 .991005 .633156 .512132
3 1 .820243 .030977 .533767
4 1 .218515 .012223 .493616
5 1 .009199 .605617 .465228
6 1 .493203 .465643 .984377
7 1 .515600 .447210 .002741
ITEM: TIMESTEP
400
ITEM: NUMBER OF ATOMS
7
ITEM: BOX BOUNDS ss ss ss
-2.8816 3.4348
-2.8892 3.2097
-1.8043 2.1513
ITEM: ATOMS id type xs ys zs
1 1 .489555 .990167 .473785
2 1 .989747 .632629 .511058
3 1 .819281 .031121 .534278
4 1 .217162 .011752 .493887
5 1 .008371 .605000 .465278
6 1 .492163 .465520 .982070
7 1 .513839 .446264 .006130
ITEM: TIMESTEP
1
ITEM: NUMBER OF ATOMS
7
ITEM: BOX BOUNDS ss ss ss
-2.8641 3.4268
-2.8776 3.1845
-1.8040 2.1228
ITEM: ATOMS id type xs ys zs
1 1 .487139 .993403 .477509
2 1 .999188 .634143 .520236
3 1 .818948 .030131 .533384
4 1 .218553 .000783 .492847
5 1 .003146 .608841 .473573
6 1 .486892 .461794 .997079
7 1 .513391 .451403 .017293
ITEM: TIMESTEP
50
ITEM: NUMBER OF ATOMS
7
ITEM: BOX BOUNDS ss ss ss
-2.8798 3.4530
-2.9081 3.1845
-1.8040 2.1405
ITEM: ATOMS id type xs ys zs
1 1 .486752 .991889 .476659
2 1 .994057 .636858 .519499
3 1 .816220 .035950 .530088
4 1 .219575 .007103 .489150
5 1 .007222 .610834 .470367
6 1 .486122 .463483 .993418
7 1 .513123 .452076 .013181
ITEM: TIMESTEP
100
ITEM: NUMBER OF ATOMS
7
ITEM: BOX BOUNDS ss ss ss
-2.8861 3.4576
-2.9152 3.1849
-1.8040 2.1461
ITEM: ATOMS id type xs ys zs
1 1 .487863 .992030 .477952
2 1 .993132 .635864 .516844
3 1 .818435 .036847 .527430
4 1 .218550 .008506 .486992
5 1 .006349 .610805 .469849
6 1 .487837 .463066 .987733
7 1 .513525 .454403 .013294
ITEM: TIMESTEP
150
ITEM: NUMBER OF ATOMS
7
ITEM: BOX BOUNDS ss ss ss
-2.8901 3.4636
-2.9212 3.1937
-1.8040 2.1410
ITEM: ATOMS id type xs ys zs
1 1 .490794 .989817 .477154
2 1 .992080 .634784 .518475
3 1 .818288 .037361 .528027
4 1 .218198 .010626 .487521
5 1 .005977 .610382 .468983
6 1 .489349 .464792 .987952
7 1 .510688 .452164 .013666
ITEM: TIMESTEP
200
ITEM: NUMBER OF ATOMS
7
ITEM: BOX BOUNDS ss ss ss
-2.8876 3.4552
-2.9085 3.1928
-1.8040 2.1314
ITEM: ATOMS id type xs ys zs
1 1 .491023 .989906 .478474
2 1 .991188 .633121 .517878
3 1 .819245 .035864 .529653
4 1 .217762 .008790 .486923
5 1 .006148 .608892 .470345
6 1 .489239 .464135 .989485
7 1 .512607 .453763 .010667
ITEM: TIMESTEP
250
ITEM: NUMBER OF ATOMS
7
ITEM: BOX BOUNDS ss ss ss
-2.9023 3.4558
-2.9149 3.1899
-1.8040 2.1321
ITEM: ATOMS id type xs ys zs
1 1 .491809 .990741 .478116
2 1 .992511 .634427 .516220
3 1 .821499 .036914 .530244
4 1 .221202 .011320 .489108
5 1 .008045 .608386 .475409
6 1 .493019 .463695 .988349
7 1 .511883 .452640 .013727
ITEM: TIMESTEP
300
ITEM: NUMBER OF ATOMS
7
ITEM: BOX BOUNDS ss ss ss
-2.9005 3.4512
-2.9243 3.1845
-1.8040 2.1297
ITEM: ATOMS id type xs ys zs
1 1 .492507 .990692 .479728
2 1 .991667 .636239 .518020
3 1 .821764 .037117 .532242
4 1 .219550 .011935 .489626
5 1 .009667 .610843 .474670
6 1 .493778 .465846 .989627
7 1 .512572 .452127 .012998
ITEM: TIMESTEP
350
ITEM: NUMBER OF ATOMS
7
ITEM: BOX BOUNDS ss ss ss
-2.9043 3.4574
-2.9293 3.1914
-1.8040 2.1287
ITEM: ATOMS id type xs ys zs
1 1 .492905 .990107 .478980
2 1 .990102 .636947 .520465
3 1 .821406 .037062 .531981
4 1 .220168 .011383 .491217
5 1 .011280 .609183 .475635
6 1 .495299 .465289 .990886
7 1 .512304 .451946 .012540
ITEM: TIMESTEP
400
ITEM: NUMBER OF ATOMS
7
ITEM: BOX BOUNDS ss ss ss
-2.8961 3.4545
-2.9098 3.1890
-1.8040 2.1286
ITEM: ATOMS id type xs ys zs
1 1 .491827 .990284 .480112
2 1 .991155 .635693 .517775
3 1 .822065 .035219 .533008
4 1 .218312 .010060 .491453
5 1 .008720 .607336 .475151
6 1 .492849 .462917 .987932
7 1 .512670 .450444 .010550
ITEM: TIMESTEP
1
ITEM: NUMBER OF ATOMS
7
ITEM: BOX BOUNDS ss ss ss
-2.8774 3.4294
-2.8876 3.1845
-1.8040 2.1228
ITEM: ATOMS id type xs ys zs
1 1 .488039 .993419 .477514
2 1 .998793 .634767 .520231
3 1 .819027 .031753 .533434
4 1 .220121 .002406 .492872
5 1 .005270 .609474 .473562
6 1 .487764 .462682 .997043
7 1 .514215 .452312 .017243
ITEM: TIMESTEP
50
ITEM: NUMBER OF ATOMS
7
ITEM: BOX BOUNDS ss ss ss
-2.8774 3.4570
-2.9068 3.1845
-1.8040 2.1377
ITEM: ATOMS id type xs ys zs
1 1 .487802 .994608 .478596
2 1 .994027 .635575 .520723
3 1 .815115 .035379 .535623
4 1 .218479 .006943 .489546
5 1 .006045 .610330 .471572
6 1 .484803 .464067 .992277
7 1 .511483 .451975 .016434
ITEM: TIMESTEP
100
ITEM: NUMBER OF ATOMS
7
ITEM: BOX BOUNDS ss ss ss
-2.8843 3.4600
-2.9155 3.1845
-1.8040 2.1481
ITEM: ATOMS id type xs ys zs
1 1 .488812 .994466 .477706
2 1 .994075 .637785 .519473
3 1 .814667 .037710 .534398
4 1 .218436 .007190 .489969
5 1 .007199 .609414 .471302
6 1 .487015 .465958 .987814
7 1 .510686 .454182 .015307
ITEM: TIMESTEP
150
ITEM: NUMBER OF ATOMS
7
ITEM: BOX BOUNDS ss ss ss
-2.8936 3.4617
-2.9210 3.1930
-1.8040 2.1479
ITEM: ATOMS id type xs ys zs
1 1 .487295 .993855 .473785
2 1 .988888 .633731 .521562
3 1 .815206 .035388 .530907
4 1 .219379 .007572 .486857
5 1 .009547 .608559 .467462
6 1 .487208 .463583 .986480
7 1 .510318 .452989 .016160
ITEM: TIMESTEP
200
ITEM: NUMBER OF ATOMS
7
ITEM: BOX BOUNDS ss ss ss
-2.8947 3.4522
-2.9276 3.2050
-1.8040 2.1370
ITEM: ATOMS id type xs ys zs
1 1 .488557 .991546 .473237
2 1 .990107 .634838 .522782
3 1 .816497 .037698 .536029
4 1 .219857 .008362 .490223
5 1 .008397 .606574 .471003
6 1 .489332 .463852 .990742
7 1 .510010 .451947 .012316
ITEM: TIMESTEP
250
ITEM: NUMBER OF ATOMS
7
ITEM: BOX BOUNDS ss ss ss
-2.8898 3.4479
-2.9398 3.2131
-1.8040 2.1339
ITEM: ATOMS id type xs ys zs
1 1 .488719 .990039 .478042
2 1 .989423 .635264 .523749
3 1 .815263 .039205 .536466
4 1 .218923 .009724 .490281
5 1 .008327 .605324 .470430
6 1 .487634 .464137 .992234
7 1 .511280 .451660 .013507
ITEM: TIMESTEP
300
ITEM: NUMBER OF ATOMS
7
ITEM: BOX BOUNDS ss ss ss
-2.8855 3.4371
-2.9405 3.2032
-1.8040 2.1379
ITEM: ATOMS id type xs ys zs
1 1 .487488 .992103 .473933
2 1 .990607 .636318 .523744
3 1 .819317 .036957 .531129
4 1 .218920 .014391 .490457
5 1 .007789 .609566 .469321
6 1 .490751 .466755 .985569
7 1 .511851 .454495 .010646
ITEM: TIMESTEP
350
ITEM: NUMBER OF ATOMS
7
ITEM: BOX BOUNDS ss ss ss
-2.8960 3.4323
-2.9332 3.2032
-1.8040 2.1416
ITEM: ATOMS id type xs ys zs
1 1 .491841 .990252 .474517
2 1 .990784 .635071 .521850
3 1 .819900 .037611 .537570
4 1 .219846 .011585 .487585
5 1 .009163 .606457 .472806
6 1 .491902 .465165 .986960
7 1 .512000 .451033 .010667
ITEM: TIMESTEP
400
ITEM: NUMBER OF ATOMS
7
ITEM: BOX BOUNDS ss ss ss
-2.8892 3.4280
-2.9284 3.2009
-1.8040 2.1415
ITEM: ATOMS id type xs ys zs
1 1 .491804 .990215 .478043
2 1 .991234 .632300 .522578
3 1 .821154 .036576 .538460
4 1 .218995 .011499 .487519
5 1 .008670 .607043 .473866
6 1 .490788 .463171 .990433
7 1 .513524 .450977 .011345
ITEM: TIMESTEP
1
ITEM: NUMBER OF ATOMS
7
ITEM: BOX BOUNDS ss ss ss
-2.8668 3.4270
-2.8950 3.1702
-1.7875 2.1182
ITEM: ATOMS id type xs ys zs
1 1 .487372 .995785 .475902
2 1 .999152 .636698 .518793
3 1 .818982 .033015 .532040
4 1 .218881 .003627 .491319
5 1 .003574 .611372 .471897
6 1 .487090 .464403 .998232
7 1 .513611 .454030 .013160
ITEM: TIMESTEP
50
ITEM: NUMBER OF ATOMS
7
ITEM: BOX BOUNDS ss ss ss
-2.8737 3.4564
-2.9100 3.1750
-1.7875 2.1394
ITEM: ATOMS id type xs ys zs
1 1 .485561 .995632 .475127
2 1 .991087 .635249 .520543
3 1 .815860 .035575 .528799
4 1 .218634 .005799 .486509
5 1 .005164 .613420 .471256
6 1 .484369 .464049 .993586
7 1 .511382 .453329 .011192
ITEM: TIMESTEP
100
ITEM: NUMBER OF ATOMS
7
ITEM: BOX BOUNDS ss ss ss
-2.8892 3.4660
-2.9200 3.1883
-1.7875 2.1460
ITEM: ATOMS id type xs ys zs
1 1 .486017 .992302 .477128
2 1 .988086 .634309 .518899
3 1 .816151 .036024 .529786
4 1 .221071 .008534 .485008
5 1 .007520 .612049 .466338
6 1 .485685 .465053 .994734
7 1 .511761 .453608 .010197
ITEM: TIMESTEP
150
ITEM: NUMBER OF ATOMS
7
ITEM: BOX BOUNDS ss ss ss
-2.8897 3.4701
-2.9261 3.1951
-1.7875 2.1572
ITEM: ATOMS id type xs ys zs
1 1 .486284 .992479 .477278
2 1 .986724 .634282 .517812
3 1 .817048 .037248 .525886
4 1 .220465 .010061 .483362
5 1 .007697 .612024 .467694
6 1 .485223 .463829 .991710
7 1 .511819 .454607 .010005
ITEM: TIMESTEP
200
ITEM: NUMBER OF ATOMS
7
ITEM: BOX BOUNDS ss ss ss
-2.8931 3.4494
-2.9323 3.1945
-1.7875 2.1652
ITEM: ATOMS id type xs ys zs
1 1 .487807 .992572 .474413
2 1 .988438 .633697 .513802
3 1 .816511 .040199 .525798
4 1 .221314 .011652 .482603
5 1 .006870 .612161 .464169
6 1 .488512 .465450 .986253
7 1 .510627 .457400 .008840
ITEM: TIMESTEP
250
ITEM: NUMBER OF ATOMS
7
ITEM: BOX BOUNDS ss ss ss
-2.8940 3.4483
-2.9328 3.1981
-1.7875 2.1652
ITEM: ATOMS id type xs ys zs
1 1 .489212 .990414 .477983
2 1 .988232 .633966 .519190
3 1 .820529 .040906 .526625
4 1 .220849 .011860 .483179
5 1 .008698 .610074 .464777
6 1 .487600 .463292 .991292
7 1 .511360 .455853 .014622
ITEM: TIMESTEP
300
ITEM: NUMBER OF ATOMS
7
ITEM: BOX BOUNDS ss ss ss
-2.8995 3.4462
-2.9290 3.2012
-1.7956 2.1687
ITEM: ATOMS id type xs ys zs
1 1 .491096 .989379 .476888
2 1 .988568 .634055 .518196
3 1 .820159 .040846 .526916
4 1 .221571 .011971 .487605
5 1 .009389 .608981 .464708
6 1 .488738 .462483 .988116
7 1 .511740 .455823 .014916
ITEM: TIMESTEP
350
ITEM: NUMBER OF ATOMS
7
ITEM: BOX BOUNDS ss ss ss
-2.8999 3.4428
-2.9336 3.1978
-1.8013 2.1684
ITEM: ATOMS id type xs ys zs
1 1 .492725 .989698 .479151
2 1 .990367 .634475 .518314
3 1 .820537 .041457 .528442
4 1 .219892 .013053 .490472
5 1 .011351 .610075 .464369
6 1 .490215 .463414 .990819
7 1 .512637 .453831 .016652
ITEM: TIMESTEP
400
ITEM: NUMBER OF ATOMS
7
ITEM: BOX BOUNDS ss ss ss
-2.8992 3.4358
-2.9313 3.1979
-1.7943 2.1651
ITEM: ATOMS id type xs ys zs
1 1 .491911 .991142 .476269
2 1 .989261 .634900 .521763
3 1 .821578 .041254 .532252
4 1 .221678 .012984 .488384
5 1 .009821 .608609 .464171
6 1 .489362 .463758 .987121
7 1 .514020 .454465 .014293
ITEM: TIMESTEP
1
ITEM: NUMBER OF ATOMS
7
ITEM: BOX BOUNDS ss ss ss
-2.8775 3.4265
-2.8954 3.1702
-1.7875 2.1324
ITEM: ATOMS id type xs ys zs
1 1 .488279 .995777 .474197
2 1 .999250 .636688 .516906
3 1 .819380 .033037 .530104
4 1 .220227 .003690 .489535
5 1 .005270 .611413 .470207
6 1 .488019 .464434 .994631
7 1 .514449 .454067 .013123
ITEM: TIMESTEP
50
ITEM: NUMBER OF ATOMS
7
ITEM: BOX BOUNDS ss ss ss
-2.8775 3.4533
-2.9082 3.1748
-1.7875 2.1434
ITEM: ATOMS id type xs ys zs
1 1 .486333 .994056 .472666
2 1 .994342 .636841 .515591
3 1 .816326 .035299 .528967
4 1 .218675 .006447 .490219
5 1 .004947 .610949 .468285
6 1 .486600 .465227 .992857
7 1 .512547 .455749 .011597
ITEM: TIMESTEP
100
ITEM: NUMBER OF ATOMS
7
ITEM: BOX BOUNDS ss ss ss
-2.8850 3.4688
-2.9196 3.1841
-1.7875 2.1476
ITEM: ATOMS id type xs ys zs
1 1 .486420 .993838 .472777
2 1 .993113 .635940 .514379
3 1 .815277 .038986 .529764
4 1 .218600 .010627 .488527
5 1 .006315 .610904 .465866
6 1 .485514 .467374 .988853
7 1 .509300 .454203 .009520
ITEM: TIMESTEP
150
ITEM: NUMBER OF ATOMS
7
ITEM: BOX BOUNDS ss ss ss
-2.8919 3.4737
-2.9184 3.1843
-1.7875 2.1465
ITEM: ATOMS id type xs ys zs
1 1 .487148 .993621 .477700
2 1 .989433 .636117 .515305
3 1 .814477 .037190 .529645
4 1 .220657 .008597 .486657
5 1 .006278 .610017 .468636
6 1 .487539 .465737 .992649
7 1 .511841 .455216 .014990
ITEM: TIMESTEP
200
ITEM: NUMBER OF ATOMS
7
ITEM: BOX BOUNDS ss ss ss
-2.9027 3.4676
-2.9239 3.1897
-1.7875 2.1528
ITEM: ATOMS id type xs ys zs
1 1 .486764 .992616 .479504
2 1 .989679 .636439 .513721
3 1 .814161 .036762 .532889
4 1 .223363 .010420 .481678
5 1 .006519 .607222 .463840
6 1 .488318 .466562 .989511
7 1 .512832 .455900 .010749
ITEM: TIMESTEP
250
ITEM: NUMBER OF ATOMS
7
ITEM: BOX BOUNDS ss ss ss
-2.9044 3.4654
-2.9277 3.2008
-1.7875 2.1551
ITEM: ATOMS id type xs ys zs
1 1 .490460 .989164 .481202
2 1 .990284 .635428 .512176
3 1 .817439 .038633 .532367
4 1 .220322 .012053 .476025
5 1 .007689 .608045 .464540
6 1 .488752 .466171 .988744
7 1 .513557 .456236 .010527
ITEM: TIMESTEP
300
ITEM: NUMBER OF ATOMS
7
ITEM: BOX BOUNDS ss ss ss
-2.9057 3.4519
-2.9327 3.2012
-1.7875 2.1517
ITEM: ATOMS id type xs ys zs
1 1 .492143 .988909 .483721
2 1 .992189 .636082 .511915
3 1 .818735 .040041 .533029
4 1 .220121 .013898 .477958
5 1 .007198 .606346 .466046
6 1 .490417 .465249 .987091
7 1 .514324 .456375 .011916
ITEM: TIMESTEP
350
ITEM: NUMBER OF ATOMS
7
ITEM: BOX BOUNDS ss ss ss
-2.9022 3.4584
-2.9202 3.1977
-1.7875 2.1603
ITEM: ATOMS id type xs ys zs
1 1 .492059 .991216 .481223
2 1 .989272 .636547 .511738
3 1 .817696 .038544 .529249
4 1 .219070 .012577 .473049
5 1 .007440 .605490 .464128
6 1 .489153 .463551 .984003
7 1 .513931 .456503 .008888
ITEM: TIMESTEP
400
ITEM: NUMBER OF ATOMS
7
ITEM: BOX BOUNDS ss ss ss
-2.9100 3.4549
-2.9054 3.1858
-1.7828 2.1449
ITEM: ATOMS id type xs ys zs
1 1 .491754 .993008 .484017
2 1 .989932 .637251 .510774
3 1 .818762 .036607 .530097
4 1 .220803 .009560 .477939
5 1 .009394 .606216 .467967
6 1 .491888 .464049 .988775
7 1 .514687 .455821 .007773
ITEM: TIMESTEP
1
ITEM: NUMBER OF ATOMS
7
ITEM: BOX BOUNDS ss ss ss
-2.8755 3.4280
-2.8776 3.1737
-1.7736 2.1297
ITEM: ATOMS id type xs ys zs
1 1 .488063 .995156 .472703
2 1 .998897 .635214 .515627
3 1 .819122 .030199 .528795
4 1 .219938 .000825 .488054
5 1 .004952 .609946 .468771
6 1 .487735 .462648 .995360
7 1 .514173 .452166 .009625
ITEM: TIMESTEP
50
ITEM: NUMBER OF ATOMS
7
ITEM: BOX BOUNDS ss ss ss
-2.8772 3.4576
-2.9095 3.1737
-1.7736 2.1410
ITEM: ATOMS id type xs ys zs
1 1 .484998 .995949 .473741
2 1 .992905 .637181 .514437
3 1 .815663 .034501 .525665
4 1 .218830 .008520 .486250
5 1 .005193 .611236 .469595
6 1 .487136 .466393 .992880
7 1 .511650 .455009 .009523
ITEM: TIMESTEP
100
ITEM: NUMBER OF ATOMS
7
ITEM: BOX BOUNDS ss ss ss
-2.8868 3.4683
-2.9164 3.1893
-1.7736 2.1498
ITEM: ATOMS id type xs ys zs
1 1 .485221 .993504 .471074
2 1 .991712 .636471 .512034
3 1 .816191 .036675 .526727
4 1 .219073 .008969 .485962
5 1 .007817 .608831 .467608
6 1 .487584 .466454 .991181
7 1 .511829 .454233 .007035
ITEM: TIMESTEP
150
ITEM: NUMBER OF ATOMS
7
ITEM: BOX BOUNDS ss ss ss
-2.8940 3.4648
-2.9171 3.1865
-1.7742 2.1594
ITEM: ATOMS id type xs ys zs
1 1 .485467 .993284 .472465
2 1 .992177 .633708 .515255
3 1 .816285 .037386 .523547
4 1 .219225 .012736 .488675
5 1 .005682 .610592 .465379
6 1 .489973 .467248 .989916
7 1 .513503 .454413 .009822
ITEM: TIMESTEP
200
ITEM: NUMBER OF ATOMS
7
ITEM: BOX BOUNDS ss ss ss
-2.9040 3.4682
-2.9113 3.1948
-1.7742 2.1489
ITEM: ATOMS id type xs ys zs
1 1 .486954 .992589 .475263
2 1 .989739 .631657 .516801
3 1 .816063 .036124 .528084
4 1 .221061 .011549 .491531
5 1 .008047 .609037 .462577
6 1 .491618 .466415 .992615
7 1 .514146 .454869 .009873
ITEM: TIMESTEP
250
ITEM: NUMBER OF ATOMS
7
ITEM: BOX BOUNDS ss ss ss
-2.9005 3.4648
-2.9086 3.2017
-1.7914 2.1557
ITEM: ATOMS id type xs ys zs
1 1 .487507 .992627 .475827
2 1 .988920 .631459 .519055
3 1 .816660 .034006 .525464
4 1 .219637 .013384 .490926
5 1 .009603 .609768 .463775
6 1 .490172 .463331 .989354
7 1 .514550 .454219 .014703
ITEM: TIMESTEP
300
ITEM: NUMBER OF ATOMS
7
ITEM: BOX BOUNDS ss ss ss
-2.9070 3.4611
-2.9080 3.2032
-1.7848 2.1551
ITEM: ATOMS id type xs ys zs
1 1 .487743 .990997 .473927
2 1 .987952 .631763 .521352
3 1 .817936 .034592 .525226
4 1 .222571 .014036 .487825
5 1 .012282 .607215 .463329
6 1 .489641 .463749 .987622
7 1 .515821 .453559 .012463
ITEM: TIMESTEP
350
ITEM: NUMBER OF ATOMS
7
ITEM: BOX BOUNDS ss ss ss
-2.9059 3.4590
-2.9065 3.2054
-1.7792 2.1517
ITEM: ATOMS id type xs ys zs
1 1 .488942 .991864 .472727