ITEM: TIMESTEP
1
ITEM: NUMBER OF ATOMS
7
ITEM: BOX BOUNDS ss ss ss
-2.8930 3.3389
-2.6154 3.3727
-1.9042 1.8852
ITEM: ATOMS id type xs ys zs
1 1 .524255 .999265 .398646
2 1 .999367 .604125 .571641
3 1 .776160 .000755 .617003
4 1 .169843 .019060 .525697
5 1 .000889 .626201 .392722
6 1 .464308 .493037 .999179
7 1 .524898 .420161 .000984
ITEM: TIMESTEP
50
ITEM: NUMBER OF ATOMS
7
ITEM: BOX BOUNDS ss ss ss
-2.9153 3.3636
-2.6425 3.3975
-1.9266 1.9049
ITEM: ATOMS id type xs ys zs
1 1 .521670 .992881 .399442
2 1 .996462 .602990 .570152
3 1 .775107 .007894 .614857
4 1 .173118 .022339 .524093
5 1 .006307 .626400 .392280
6 1 .464033 .491652 .993117
7 1 .525934 .420405 .002456
ITEM: TIMESTEP
100
ITEM: NUMBER OF ATOMS
7
ITEM: BOX BOUNDS ss ss ss
-2.9212 3.3754
-2.6455 3.4094
-1.9415 1.9141
ITEM: ATOMS id type xs ys zs
1 1 .521750 .990631 .400637
2 1 .993077 .597200 .567933
3 1 .772342 .007729 .618576
4 1 .172175 .024875 .526280
5 1 .008227 .624909 .394173
6 1 .461745 .491612 .995269
7 1 .524379 .420525 .010843
ITEM: TIMESTEP
150
ITEM: NUMBER OF ATOMS
7
ITEM: BOX BOUNDS ss ss ss
-2.9300 3.3811
-2.6467 3.4075
-1.9471 1.9203
ITEM: ATOMS id type xs ys zs
1 1 .521288 .989262 .401460
2 1 .992664 .597779 .568409
3 1 .772528 .008394 .616969
4 1 .174019 .024722 .526939
5 1 .010780 .626724 .393958
6 1 .461310 .491344 .994255
7 1 .524515 .420069 .011049
ITEM: TIMESTEP
200
ITEM: NUMBER OF ATOMS
7
ITEM: BOX BOUNDS ss ss ss
-2.9241 3.3725
-2.6465 3.3987
-1.9515 1.9290
ITEM: ATOMS id type xs ys zs
1 1 .518924 .990491 .402606
2 1 .992228 .598574 .564370
3 1 .775188 .007640 .619928
4 1 .174006 .029057 .524809
5 1 .010142 .626437 .392847
6 1 .461972 .491499 .993461
7 1 .524052 .421208 .012449
ITEM: TIMESTEP
250
ITEM: NUMBER OF ATOMS
7
ITEM: BOX BOUNDS ss ss ss
-2.9191 3.3782
-2.6423 3.3946
-1.9591 1.9342
ITEM: ATOMS id type xs ys zs
1 1 .519442 .990588 .406965
2 1 .991809 .595558 .561446
3 1 .773869 .006209 .618557
4 1 .171661 .025790 .523365
5 1 .010391 .626186 .393075
6 1 .461131 .488920 .991184
7 1 .523579 .420284 .010578
ITEM: TIMESTEP
300
ITEM: NUMBER OF ATOMS
7
ITEM: BOX BOUNDS ss ss ss
-2.9322 3.3841
-2.6385 3.3939
-1.9575 1.9462
ITEM: ATOMS id type xs ys zs
1 1 .519450 .988447 .408437
2 1 .991577 .596301 .561908
3 1 .774276 .005472 .615863
4 1 .171916 .025169 .521162
5 1 .011655 .628582 .394292
6 1 .462142 .487815 .987625
7 1 .525002 .420353 .008134
ITEM: TIMESTEP
350
ITEM: NUMBER OF ATOMS
7
ITEM: BOX BOUNDS ss ss ss
-2.9184 3.3743
-2.6480 3.4063
-1.9628 1.9436
ITEM: ATOMS id type xs ys zs
1 1 .519541 .986175 .407506
2 1 .992832 .596202 .560258
3 1 .775190 .007686 .617248
4 1 .174182 .028430 .525033
5 1 .009418 .629388 .389855
6 1 .461113 .489526 .987564
7 1 .524109 .419521 .008859
ITEM: TIMESTEP
400
ITEM: NUMBER OF ATOMS
7
ITEM: BOX BOUNDS ss ss ss
-2.9210 3.3810
-2.6451 3.3869
-1.9661 1.9488
ITEM: ATOMS id type xs ys zs
1 1 .518117 .988640 .408623
2 1 .991317 .596184 .560452
3 1 .775203 .006502 .615453
4 1 .174213 .027449 .522384
5 1 .009928 .630840 .388862
6 1 .461166 .489070 .986301
7 1 .524227 .419369 .007867
ITEM: TIMESTEP
1
ITEM: NUMBER OF ATOMS
7
ITEM: BOX BOUNDS ss ss ss
-2.9010 3.3549
-2.6302 3.3731
-1.9550 1.9268
ITEM: ATOMS id type xs ys zs
1 1 .523517 .999199 .402243
2 1 .996810 .605073 .571137
3 1 .774476 .003245 .615407
4 1 .170454 .021483 .526296
5 1 .002160 .627060 .396480
6 1 .463814 .494253 .988504
7 1 .524172 .421576 .014067
ITEM: TIMESTEP
50
ITEM: NUMBER OF ATOMS
7
ITEM: BOX BOUNDS ss ss ss
-2.9150 3.3688
-2.6368 3.3963
-1.9550 1.9268
ITEM: ATOMS id type xs ys zs
1 1 .521759 .994488 .401919
2 1 .994300 .601233 .570069
3 1 .774748 .004837 .613872
4 1 .170992 .022775 .526415
5 1 .005787 .625657 .395401
6 1 .462988 .492970 .990341
7 1 .523504 .419488 .011928
ITEM: TIMESTEP
100
ITEM: NUMBER OF ATOMS
7
ITEM: BOX BOUNDS ss ss ss
-2.9250 3.3777
-2.6483 3.4152
-1.9550 1.9268
ITEM: ATOMS id type xs ys zs
1 1 .522692 .992010 .401716
2 1 .992191 .600959 .568805
3 1 .774377 .008003 .611669
4 1 .177302 .026674 .530697
5 1 .009140 .625912 .395212
6 1 .465433 .488812 .993667
7 1 .526863 .420000 .010321
ITEM: TIMESTEP
150
ITEM: NUMBER OF ATOMS
7
ITEM: BOX BOUNDS ss ss ss
-2.9313 3.3840
-2.6495 3.4148
-1.9550 1.9268
ITEM: ATOMS id type xs ys zs
1 1 .521564 .991853 .403768
2 1 .989639 .600468 .569437
3 1 .773486 .007644 .613674
4 1 .174032 .025137 .526278
5 1 .009216 .624810 .397993
6 1 .462803 .490892 .992313
7 1 .523808 .420234 .009511
ITEM: TIMESTEP
200
ITEM: NUMBER OF ATOMS
7
ITEM: BOX BOUNDS ss ss ss
-2.9372 3.3776
-2.6515 3.4115
-1.9553 1.9392
ITEM: ATOMS id type xs ys zs
1 1 .522739 .991716 .400028
2 1 .991854 .601645 .566714
3 1 .774363 .008456 .612635
4 1 .174142 .026127 .523683
5 1 .010731 .626840 .395925
6 1 .464720 .490623 .988423
7 1 .525940 .419753 .009383
ITEM: TIMESTEP
250
ITEM: NUMBER OF ATOMS
7
ITEM: BOX BOUNDS ss ss ss
-2.9375 3.3895
-2.6493 3.4056
-1.9610 1.9467
ITEM: ATOMS id type xs ys zs
1 1 .520477 .993582 .401409
2 1 .989838 .601979 .565347
3 1 .773322 .008042 .613242
4 1 .172680 .027782 .524567
5 1 .013625 .628623 .400172
6 1 .464031 .491666 .990936
7 1 .522787 .422164 .009224
ITEM: TIMESTEP
300
ITEM: NUMBER OF ATOMS
7
ITEM: BOX BOUNDS ss ss ss
-2.9370 3.3787
-2.6477 3.4062
-1.9597 1.9320
ITEM: ATOMS id type xs ys zs
1 1 .521555 .991902 .405146
2 1 .990347 .603668 .567115
3 1 .775565 .008985 .615552
4 1 .175893 .024350 .521446
5 1 .011653 .628456 .397203
6 1 .462508 .489556 .993738
7 1 .525385 .421627 .013225
ITEM: TIMESTEP
350
ITEM: NUMBER OF ATOMS
7
ITEM: BOX BOUNDS ss ss ss
-2.9302 3.3784
-2.6453 3.4000
-1.9640 1.9336
ITEM: ATOMS id type xs ys zs
1 1 .523103 .990845 .404769
2 1 .992982 .596375 .564609
3 1 .776586 .009904 .623824
4 1 .176853 .024948 .525278
5 1 .011874 .626581 .391570
6 1 .463207 .493289 .991612
7 1 .527180 .418803 .012396
ITEM: TIMESTEP
400
ITEM: NUMBER OF ATOMS
7
ITEM: BOX BOUNDS ss ss ss
-2.9284 3.3832
-2.6465 3.3984
-1.9706 1.9347
ITEM: ATOMS id type xs ys zs
1 1 .521501 .989617 .403054
2 1 .990785 .596549 .567700
3 1 .775466 .008949 .621513
4 1 .177900 .025993 .527925
5 1 .010927 .628183 .393368
6 1 .463629 .493546 .991831
7 1 .525008 .419610 .011234
ITEM: TIMESTEP
1
ITEM: NUMBER OF ATOMS
7
ITEM: BOX BOUNDS ss ss ss
-2.9016 3.3589
-2.6244 3.3727
-1.9533 1.9308
ITEM: ATOMS id type xs ys zs
1 1 .523230 .999275 .401562
2 1 .996169 .604717 .570355
3 1 .773986 .002268 .614602
4 1 .170417 .020547 .525546
5 1 .002252 .626747 .395796
6 1 .463562 .493788 .987454
7 1 .523869 .421040 .013628
ITEM: TIMESTEP
50
ITEM: NUMBER OF ATOMS
7
ITEM: BOX BOUNDS ss ss ss
-2.9155 3.3678
-2.6394 3.4003
-1.9533 1.9308
ITEM: ATOMS id type xs ys zs
1 1 .522016 .994692 .402218
2 1 .994201 .602971 .571751
3 1 .773475 .005893 .614747
4 1 .172229 .024319 .526009
5 1 .005481 .626843 .395152
6 1 .463649 .492578 .988446
7 1 .523299 .421186 .012768
ITEM: TIMESTEP
100
ITEM: NUMBER OF ATOMS
7
ITEM: BOX BOUNDS ss ss ss
-2.9277 3.3710
-2.6499 3.4105
-1.9533 1.9308
ITEM: ATOMS id type xs ys zs
1 1 .523554 .991910 .403866
2 1 .993495 .604661 .564997
3 1 .774193 .007993 .614966
4 1 .173328 .025881 .526291
5 1 .007406 .626764 .394301
6 1 .463743 .493080 .987791
7 1 .522655 .420070 .013623
ITEM: TIMESTEP
150
ITEM: NUMBER OF ATOMS
7
ITEM: BOX BOUNDS ss ss ss
-2.9300 3.3857
-2.6560 3.4089
-1.9533 1.9309
ITEM: ATOMS id type xs ys zs
1 1 .521711 .993555 .401998
2 1 .987691 .603676 .573128
3 1 .772778 .009129 .613539
4 1 .172208 .027736 .525952
5 1 .008822 .627677 .395785
6 1 .461795 .490906 .991729
7 1 .522393 .423817 .010417
ITEM: TIMESTEP
200
ITEM: NUMBER OF ATOMS
7
ITEM: BOX BOUNDS ss ss ss
-2.9357 3.3823
-2.6507 3.4167
-1.9566 1.9308
ITEM: ATOMS id type xs ys zs
1 1 .523785 .990959 .402957
2 1 .987627 .602180 .571516
3 1 .773999 .010688 .610874
4 1 .172060 .025991 .525691
5 1 .011261 .628034 .396139
6 1 .461897 .489423 .992296
7 1 .523464 .422960 .010544
ITEM: TIMESTEP
250
ITEM: NUMBER OF ATOMS
7
ITEM: BOX BOUNDS ss ss ss
-2.9323 3.3820
-2.6561 3.4044
-1.9545 1.9317
ITEM: ATOMS id type xs ys zs
1 1 .521282 .993695 .404184
2 1 .988939 .603582 .569966
3 1 .771073 .010054 .612571
4 1 .172531 .028350 .526092
5 1 .009666 .629639 .394375
6 1 .462194 .492650 .991031
7 1 .522795 .423734 .009808
ITEM: TIMESTEP
300
ITEM: NUMBER OF ATOMS
7
ITEM: BOX BOUNDS ss ss ss
-2.9278 3.3822
-2.6430 3.4055
-1.9557 1.9391
ITEM: ATOMS id type xs ys zs
1 1 .521551 .992351 .402750
2 1 .988959 .600519 .569191
3 1 .775869 .009442 .615946
4 1 .177264 .025562 .526913
5 1 .009539 .625468 .390777
6 1 .461483 .492132 .990443
7 1 .525069 .421631 .010341
ITEM: TIMESTEP
350
ITEM: NUMBER OF ATOMS
7
ITEM: BOX BOUNDS ss ss ss
-2.9356 3.3760
-2.6486 3.4109
-1.9606 1.9439
ITEM: ATOMS id type xs ys zs
1 1 .522566 .989487 .405659
2 1 .990769 .600098 .569367
3 1 .774092 .008644 .613689
4 1 .174578 .026871 .520759
5 1 .009533 .628673 .394985
6 1 .463049 .490681 .989416
7 1 .522416 .420382 .009550
ITEM: TIMESTEP
400
ITEM: NUMBER OF ATOMS
7
ITEM: BOX BOUNDS ss ss ss
-2.9281 3.3718
-2.6389 3.4075
-1.9613 1.9446
ITEM: ATOMS id type xs ys zs
1 1 .520712 .988899 .405737
2 1 .990951 .600122 .567659
3 1 .779467 .009864 .615105
4 1 .179919 .024063 .527324
5 1 .010381 .624873 .392779
6 1 .463483 .489892 .990452
7 1 .526112 .419973 .010225
ITEM: TIMESTEP
1
ITEM: NUMBER OF ATOMS
7
ITEM: BOX BOUNDS ss ss ss
-2.9030 3.3391
-2.6269 3.3758
-1.9426 1.9222
ITEM: ATOMS id type xs ys zs
1 1 .525012 .998763 .400783
2 1 .999347 .604578 .570448
3 1 .776496 .002682 .614918
4 1 .171148 .020918 .525398
5 1 .002494 .626591 .395014
6 1 .465169 .493765 .989634
7 1 .525649 .421063 .010908
ITEM: TIMESTEP
50
ITEM: NUMBER OF ATOMS
7
ITEM: BOX BOUNDS ss ss ss
-2.9218 3.3621
-2.6390 3.3970
-1.9426 1.9222
ITEM: ATOMS id type xs ys zs
1 1 .522133 .994626 .403299
2 1 .993035 .603521 .569450
3 1 .776088 .004852 .614810
4 1 .173118 .024786 .523007
5 1 .005335 .625492 .392559
6 1 .465027 .491441 .989207
7 1 .525223 .420882 .007922
ITEM: TIMESTEP
100
ITEM: NUMBER OF ATOMS
7
ITEM: BOX BOUNDS ss ss ss
-2.9298 3.3781
-2.6479 3.4083
-1.9426 1.9222
ITEM: ATOMS id type xs ys zs
1 1 .520465 .993073 .404360
2 1 .990024 .603472 .569747
3 1 .774739 .004582 .612214
4 1 .173100 .026231 .521460
5 1 .006864 .625113 .394349
6 1 .464054 .490642 .991274
7 1 .523903 .419853 .005446
ITEM: TIMESTEP
150
ITEM: NUMBER OF ATOMS
7
ITEM: BOX BOUNDS ss ss ss
-2.9314 3.3731
-2.6545 3.4174
-1.9426 1.9255
ITEM: ATOMS id type xs ys zs
1 1 .517845 .990270 .401707
2 1 .990907 .602639 .571176
3 1 .776750 .008442 .609973
4 1 .174370 .026955 .523763
5 1 .006291 .623549 .394157
6 1 .464783 .491774 .990879
7 1 .525492 .420879 .007144
ITEM: TIMESTEP
200
ITEM: NUMBER OF ATOMS
7
ITEM: BOX BOUNDS ss ss ss
-2.9333 3.3726
-2.6481 3.4128
-1.9507 1.9277
ITEM: ATOMS id type xs ys zs
1 1 .516737 .990993 .403906
2 1 .990507 .603517 .569680
3 1 .777689 .007855 .609012
4 1 .172058 .028364 .524506
5 1 .008255 .626064 .395989
6 1 .464326 .490301 .989714
7 1 .524476 .418577 .006350
ITEM: TIMESTEP
250
ITEM: NUMBER OF ATOMS
7
ITEM: BOX BOUNDS ss ss ss
-2.9454 3.3731
-2.6439 3.4072
-1.9522 1.9356
ITEM: ATOMS id type xs ys zs
1 1 .522582 .992188 .402462
2 1 .991709 .599122 .566133
3 1 .774969 .007319 .616389
4 1 .176712 .026771 .526292
5 1 .012366 .628317 .389112
6 1 .463756 .492050 .989426
7 1 .526698 .420424 .010015
ITEM: TIMESTEP
300
ITEM: NUMBER OF ATOMS
7
ITEM: BOX BOUNDS ss ss ss
-2.9557 3.3661
-2.6415 3.4009
-1.9581 1.9370
ITEM: ATOMS id type xs ys zs
1 1 .523559 .993723 .404043
2 1 .992277 .599462 .562374
3 1 .774554 .008339 .616234
4 1 .175978 .027089 .527498
5 1 .015647 .629715 .389136
6 1 .466477 .491674 .988188
7 1 .527292 .420450 .009086
ITEM: TIMESTEP
350
ITEM: NUMBER OF ATOMS
7
ITEM: BOX BOUNDS ss ss ss
-2.9323 3.3736
-2.6377 3.4018
-1.9566 1.9368
ITEM: ATOMS id type xs ys zs
1 1 .523539 .991970 .401288
2 1 .991213 .599551 .561057
3 1 .774549 .008659 .616587
4 1 .173022 .027546 .524986
5 1 .012830 .630094 .385392
6 1 .463251 .490817 .988677
7 1 .525866 .419603 .008853
ITEM: TIMESTEP
400
ITEM: NUMBER OF ATOMS
7
ITEM: BOX BOUNDS ss ss ss
-2.9342 3.3681
-2.6428 3.4018
-1.9651 1.9318
ITEM: ATOMS id type xs ys zs
1 1 .522319 .989953 .408843
2 1 .993045 .597871 .560389
3 1 .774547 .008086 .618642
4 1 .172956 .027282 .529819
5 1 .014298 .628605 .393265
6 1 .466043 .491167 .992457
7 1 .526101 .419180 .009309
ITEM: TIMESTEP
1
ITEM: NUMBER OF ATOMS
7
ITEM: BOX BOUNDS ss ss ss
-2.9030 3.3595
-2.6269 3.3758
-1.9506 1.9319
ITEM: ATOMS id type xs ys zs
1 1 .523299 .998763 .401023
2 1 .996068 .604584 .569897
3 1 .773970 .002676 .614152
4 1 .170599 .020924 .525033
5 1 .002495 .626578 .395256
6 1 .463661 .493747 .987153
7 1 .523945 .421064 .012907
ITEM: TIMESTEP
50
ITEM: NUMBER OF ATOMS
7
ITEM: BOX BOUNDS ss ss ss
-2.9186 3.3641
-2.6419 3.3995
-1.9506 1.9319
ITEM: ATOMS id type xs ys zs
1 1 .524729 .993587 .401806
2 1 .995246 .601799 .568048
3 1 .774427 .006796 .616250
4 1 .172309 .023895 .526715
5 1 .006077 .626050 .394607
6 1 .463376 .493374 .985502
7 1 .524299 .422299 .009898
ITEM: TIMESTEP
100
ITEM: NUMBER OF ATOMS
7
ITEM: BOX BOUNDS ss ss ss
-2.9294 3.3776
-2.6499 3.4196
-1.9506 1.9319
ITEM: ATOMS id type xs ys zs
1 1 .521986 .987119 .397479
2 1 .992366 .599237 .570553
3 1 .774033 .005167 .615033
4 1 .176914 .024124 .526721
5 1 .007427 .624933 .391388
6 1 .464731 .492036 .987698
7 1 .527834 .420515 .009396
ITEM: TIMESTEP
150
ITEM: NUMBER OF ATOMS
7
ITEM: BOX BOUNDS ss ss ss
-2.9384 3.3785
-2.6526 3.4113
-1.9506 1.9319
ITEM: ATOMS id type xs ys zs
1 1 .523644 .989615 .398827
2 1 .992793 .601773 .567956
3 1 .773098 .007198 .615768
4 1 .174372 .026947 .520440
5 1 .010489 .625590 .396617
6 1 .466656 .491927 .990556
7 1 .526742 .420828 .010133
ITEM: TIMESTEP
200
ITEM: NUMBER OF ATOMS
7
ITEM: BOX BOUNDS ss ss ss
-2.9366 3.3807
-2.6632 3.4190
-1.9522 1.9319
ITEM: ATOMS id type xs ys zs
1 1 .522467 .987365 .397221
2 1 .992359 .601323 .564771
3 1 .772884 .008938 .617986
4 1 .172715 .028311 .519210
5 1 .010312 .625035 .396265
6 1 .467909 .492456 .993376
7 1 .526532 .419566 .009020
ITEM: TIMESTEP
250
ITEM: NUMBER OF ATOMS
7
ITEM: BOX BOUNDS ss ss ss
-2.9350 3.3838
-2.6500 3.4082
-1.9596 1.9373
ITEM: ATOMS id type xs ys zs
1 1 .523142 .988667 .400267
2 1 .993654 .599262 .564067
3 1 .773823 .005270 .617684
4 1 .174316 .025192 .514320
5 1 .011774 .624605 .397974
6 1 .466206 .490815 .992929
7 1 .525871 .420609 .010387
ITEM: TIMESTEP
300
ITEM: NUMBER OF ATOMS
7
ITEM: BOX BOUNDS ss ss ss
-2.9464 3.3851
-2.6560 3.4020
-1.9653 1.9360
ITEM: ATOMS id type xs ys zs
1 1 .521014 .990790 .398709
2 1 .991861 .599968 .567734
3 1 .774697 .009947 .614644
4 1 .177716 .025822 .525741
5 1 .012452 .627403 .391285
6 1 .463788 .492768 .982767
7 1 .526650 .422481 .007837
ITEM: TIMESTEP
350
ITEM: NUMBER OF ATOMS
7
ITEM: BOX BOUNDS ss ss ss
-2.9457 3.3824
-2.6533 3.3959
-1.9669 1.9319
ITEM: ATOMS id type xs ys zs
1 1 .518267 .990681 .402482
2 1 .989963 .598691 .572037
3 1 .773339 .011852 .612255
4 1 .175467 .027241 .523418
5 1 .009887 .632202 .394082
6 1 .461523 .493130 .984451
7 1 .520539 .421474 .006370
ITEM: TIMESTEP
400
ITEM: NUMBER OF ATOMS
7
ITEM: BOX BOUNDS ss ss ss
-2.9480 3.3861
-2.6356 3.3920
-1.9766 1.9370
ITEM: ATOMS id type xs ys zs
1 1 .516872 .990587 .404467
2 1 .987858 .598894 .573460
3 1 .773552 .008508 .610919
4 1 .176380 .024752 .523133
5 1 .010669 .630725 .395767
6 1 .460489 .492049 .985205
7 1 .521691 .419766 .009519
ITEM: TIMESTEP
1
ITEM: NUMBER OF ATOMS
7
ITEM: BOX BOUNDS ss ss ss
-2.9103 3.3440
-2.6269 3.3758
-1.9569 1.9222
ITEM: ATOMS id type xs ys zs
1 1 .525145 .998769 .403009
2 1 .998559 .604583 .572047
3 1 .776163 .002681 .616323
4 1 .171983 .020924 .527170
5 1 .003652 .626573 .397239
6 1 .465425 .493748 .989654
7 1 .525778 .421059 .014574
ITEM: TIMESTEP
50
ITEM: NUMBER OF ATOMS
7
ITEM: BOX BOUNDS ss ss ss
-2.9189 3.3630
-2.6414 3.4026
-1.9569 1.9222
ITEM: ATOMS id type xs ys zs
1 1 .523517 .993544 .403612
2 1 .994494 .603305 .570097
3 1 .774860 .005896 .616208
4 1 .172668 .025106 .526209
5 1 .005074 .624667 .396754
6 1 .463763 .493141 .989952
7 1 .525620 .419590 .013426
ITEM: TIMESTEP
100
ITEM: NUMBER OF ATOMS
7
ITEM: BOX BOUNDS ss ss ss
-2.9295 3.3806
-2.6573 3.4103
-1.9569 1.9247
ITEM: ATOMS id type xs ys zs
1 1 .523489 .990348 .402243
2 1 .992358 .603159 .569314
3 1 .774476 .009400 .616027
4 1 .175121 .027350 .524744
5 1 .007098 .626517 .399326
6 1 .463764 .493955 .990379
7 1 .524064 .421693 .010662
ITEM: TIMESTEP
150
ITEM: NUMBER OF ATOMS
7
ITEM: BOX BOUNDS ss ss ss
-2.9318 3.3904
-2.6511 3.4235
-1.9569 1.9222
ITEM: ATOMS id type xs ys zs
1 1 .520480 .990835 .404564
2 1 .988440 .600618 .571289
3 1 .772963 .010240 .617973
4 1 .175228 .027485 .527045
5 1 .007886 .624919 .397042
6 1 .462143 .492538 .991317
7 1 .523254 .422750 .013106
ITEM: TIMESTEP
200
ITEM: NUMBER OF ATOMS
7
ITEM: BOX BOUNDS ss ss ss
-2.9350 3.3814
-2.6504 3.4156
-1.9569 1.9279
ITEM: ATOMS id type xs ys zs
1 1 .524386 .989177 .398888
2 1 .992543 .600042 .567746
3 1 .775486 .009578 .613686
4 1 .175451 .027888 .523030
5 1 .007347 .628167 .397957
6 1 .464543 .490450 .989184
7 1 .523561 .420281 .009881
ITEM: TIMESTEP
250
ITEM: NUMBER OF ATOMS
7
ITEM: BOX BOUNDS ss ss ss
-2.9296 3.3858
-2.6408 3.4113
-1.9613 1.9339
ITEM: ATOMS id type xs ys zs
1 1 .523692 .990350 .404031
2 1 .992690 .599359 .568282
3 1 .775345 .008998 .613729
4 1 .174699 .026644 .524791
5 1 .008817 .626782 .399306
6 1 .464982 .487732 .989731
7 1 .523123 .417918 .011277
ITEM: TIMESTEP
300
ITEM: NUMBER OF ATOMS
7
ITEM: BOX BOUNDS ss ss ss
-2.9344 3.3853
-2.6438 3.4179
-1.9621 1.9341
ITEM: ATOMS id type xs ys zs
1 1 .523604 .987446 .398207
2 1 .991492 .599526 .565427
3 1 .775015 .009788 .614351
4 1 .175468 .027023 .525086
5 1 .008766 .626603 .398544
6 1 .464882 .491590 .990594
7 1 .521801 .419417 .009524
ITEM: TIMESTEP
350
ITEM: NUMBER OF ATOMS
7
ITEM: BOX BOUNDS ss ss ss
-2.9345 3.3900
-2.6397 3.4188
-1.9624 1.9496
ITEM: ATOMS id type xs ys zs
1 1 .524740 .987547 .397226
2 1 .990201 .598984 .563387
3 1 .776957 .010612 .612894
4 1 .176329 .026669 .526273
5 1 .009071 .627865 .397311
6 1 .464504 .492131 .987483
7 1 .522198 .419638 .008902
ITEM: TIMESTEP
400
ITEM: NUMBER OF ATOMS
7
ITEM: BOX BOUNDS ss ss ss
-2.9426 3.3874
-2.6325 3.4197
-1.9632 1.9467
ITEM: ATOMS id type xs ys zs
1 1 .522277 .988335 .399151
2 1 .991503 .598260 .563839
3 1 .777367 .010590 .613354
4 1 .176240 .026636 .524633
5 1 .010750 .627073 .395226
6 1 .465292 .491547 .988943
7 1 .524328 .419929 .009861
ITEM: TIMESTEP
1
ITEM: NUMBER OF ATOMS
7
ITEM: BOX BOUNDS ss ss ss
-2.9056 3.3674
-2.6269 3.3758
-1.9567 1.9280
ITEM: ATOMS id type xs ys zs
1 1 .522822 .998760 .402378
2 1 .994816 .604575 .571134
3 1 .773092 .002688 .615389
4 1 .170709 .020933 .526319
5 1 .002899 .626594 .396591
6 1 .463285 .493749 .988173
7 1 .523469 .421070 .014491
ITEM: TIMESTEP
50
ITEM: NUMBER OF ATOMS
7
ITEM: BOX BOUNDS ss ss ss
-2.9209 3.3674
-2.6453 3.3992
-1.9567 1.9280
ITEM: ATOMS id type xs ys zs
1 1 .523537 .993900 .402556
2 1 .994747 .603364 .569038
3 1 .774058 .006625 .616810
4 1 .173038 .025070 .528926
5 1 .005102 .626476 .397816
6 1 .464560 .491928 .988650
7 1 .524858 .420059 .012779
ITEM: TIMESTEP
100
ITEM: NUMBER OF ATOMS
7
ITEM: BOX BOUNDS ss ss ss
-2.9312 3.3785
-2.6547 3.4146
-1.9567 1.9280
ITEM: ATOMS id type xs ys zs
1 1 .522808 .992680 .399761
2 1 .992699 .603763 .568933
3 1 .773120 .009851 .615270
4 1 .175466 .025838 .524585
5 1 .006959 .626444 .393947
6 1 .463294 .491955 .988010
7 1 .524469 .421370 .013249
ITEM: TIMESTEP
150
ITEM: NUMBER OF ATOMS
7
ITEM: BOX BOUNDS ss ss ss
-2.9309 3.3830
-2.6527 3.4285
-1.9567 1.9280
ITEM: ATOMS id type xs ys zs
1 1 .521028 .988793 .400129
2 1 .993749 .601458 .571646
3 1 .773741 .008043 .614970
4 1 .174238 .026886 .524159
5 1 .008605 .623661 .394458
6 1 .462606 .489974 .989985
7 1 .524668 .420630 .015917
ITEM: TIMESTEP
200
ITEM: NUMBER OF ATOMS
7
ITEM: BOX BOUNDS ss ss ss
-2.9362 3.3867
-2.6565 3.4140
-1.9567 1.9281
ITEM: ATOMS id type xs ys zs
1 1 .521797 .994476 .399091
2 1 .989977 .602991 .567377
3 1 .774753 .012255 .617404
4 1 .174987 .026220 .521672
5 1 .009375 .625138 .395987
6 1 .461035 .490212 .989976
7 1 .525500 .420401 .009762
ITEM: TIMESTEP
250
ITEM: NUMBER OF ATOMS
7
ITEM: BOX BOUNDS ss ss ss
-2.9345 3.3894
-2.6550 3.4175
-1.9567 1.9370
ITEM: ATOMS id type xs ys zs
1 1 .522968 .991769 .400212
2 1 .990581 .601190 .566537
3 1 .775191 .010197 .617352
4 1 .173582 .024975 .518497
5 1 .009176 .625509 .395871
6 1 .460771 .489798 .988198
7 1 .524998 .419858 .010666
ITEM: TIMESTEP
300
ITEM: NUMBER OF ATOMS
7
ITEM: BOX BOUNDS ss ss ss
-2.9393 3.3849
-2.6486 3.4197
-1.9567 1.9355
ITEM: ATOMS id type xs ys zs
1 1 .520789 .992075 .399474
2 1 .989651 .601956 .565960
3 1 .774544 .010595 .613630
4 1 .174581 .023845 .520910
5 1 .010415 .624574 .396034
6 1 .461153 .489672 .987982
7 1 .524330 .419200 .004927
ITEM: TIMESTEP
350
ITEM: NUMBER OF ATOMS
7
ITEM: BOX BOUNDS ss ss ss
-2.9345 3.3951
-2.6472 3.4138
-1.9585 1.9366
ITEM: ATOMS id type xs ys zs
1 1 .519398 .991525 .395783
2 1 .987262 .603584 .563761
3 1 .773125 .009100 .612443
4 1 .173383 .023923 .519963
5 1 .011661 .627124 .397186
6 1 .459495 .489262 .990069
7 1 .523360 .420047 .005813
ITEM: TIMESTEP
400
ITEM: NUMBER OF ATOMS
7
ITEM: BOX BOUNDS ss ss ss
-2.9464 3.3975
-2.6474 3.4189
-1.9667 1.9388
ITEM: ATOMS id type xs ys zs
1 1 .517760 .992239 .394318
2 1 .986125 .602402 .560938
3 1 .771555 .010796 .610866
4 1 .173703 .025836 .519726
5 1 .014624 .626546 .395996
6 1 .460266 .487121 .988213
7 1 .524774 .419486 .006062
ITEM: TIMESTEP
1
ITEM: NUMBER OF ATOMS
7
ITEM: BOX BOUNDS ss ss ss
-2.9134 3.3657
-2.6222 3.3823
-1.9462 1.9269
ITEM: ATOMS id type xs ys zs
1 1 .523557 .997661 .400869
2 1 .995086 .603619 .570148
3 1 .773577 .001893 .614533
4 1 .171810 .020146 .525190
5 1 .004128 .625632 .395093
6 1 .464069 .492812 .988443
7 1 .524183 .420150 .011812
ITEM: TIMESTEP
50
ITEM: NUMBER OF ATOMS
7
ITEM: BOX BOUNDS ss ss ss
-2.9257 3.3657
-2.6463 3.4002
-1.9462 1.9269
ITEM: ATOMS id type xs ys zs
1 1 .524134 .994352 .401663
2 1 .994194 .602747 .569146
3 1 .774279 .006358 .616074
4 1 .174178 .023420 .524485
5 1 .007261 .625282 .395303
6 1 .464164 .493443 .989674
7 1 .524555 .421500 .010544
ITEM: TIMESTEP
100
ITEM: NUMBER OF ATOMS
7
ITEM: BOX BOUNDS ss ss ss
-2.9319 3.3804
-2.6503 3.4121
-1.9462 1.9269
ITEM: ATOMS id type xs ys zs
1 1 .521933 .990076 .401774
2 1 .992261 .604837 .567317
3 1 .772813 .007388 .615834
4 1 .173199 .027033 .524317
5 1 .006791 .624688 .394169
6 1 .465437 .492223 .989912
7 1 .524871 .421385 .011791
ITEM: TIMESTEP
150
ITEM: NUMBER OF ATOMS
7
ITEM: BOX BOUNDS ss ss ss
-2.9344 3.3779
-2.6537 3.4161
-1.9462 1.9269
ITEM: ATOMS id type xs ys zs
1 1 .523270 .990130 .400103
2 1 .993701 .602679 .568706
3 1 .772524 .006891 .616695
4 1 .174130 .028399 .525415
5 1 .008106 .626564 .393270
6 1 .465899 .492261 .990233
7 1 .525841 .420445 .010002
ITEM: TIMESTEP
200
ITEM: NUMBER OF ATOMS
7
ITEM: BOX BOUNDS ss ss ss
-2.9347 3.3757
-2.6569 3.4207
-1.9462 1.9269
ITEM: ATOMS id type xs ys zs
1 1 .524539 .989080 .404470
2 1 .994356 .596580 .564086
3 1 .771472 .009573 .616482
4 1 .175114 .026346 .523363
5 1 .008520 .625276 .399835
6 1 .464534 .491808 .993279
7 1 .525530 .424132 .009382
ITEM: TIMESTEP
250
ITEM: NUMBER OF ATOMS
7
ITEM: BOX BOUNDS ss ss ss
-2.9472 3.3791
-2.6580 3.4210
-1.9574 1.9371
ITEM: ATOMS id type xs ys zs
1 1 .524494 .990314 .400311
2 1 .990902 .597516 .566947
3 1 .774278 .010608 .622294
4 1 .176804 .023543 .525196
5 1 .013577 .624427 .396243
6 1 .463768 .492424 .990529
7 1 .524621 .422281 .012766
ITEM: TIMESTEP
300
ITEM: NUMBER OF ATOMS
7
ITEM: BOX BOUNDS ss ss ss
-2.9509 3.3823
-2.6597 3.4155
-1.9601 1.9397
ITEM: ATOMS id type xs ys zs
1 1 .525769 .990396 .402835
2 1 .990696 .597369 .566715
3 1 .774163 .012229 .623055
4 1 .178410 .023886 .528835
5 1 .013235 .624741 .395071
6 1 .463873 .490960 .993906
7 1 .527157 .422953 .012859
ITEM: TIMESTEP
350
ITEM: NUMBER OF ATOMS
7
ITEM: BOX BOUNDS ss ss ss
-2.9495 3.3771
-2.6520 3.4124
-1.9609 1.9426
ITEM: ATOMS id type xs ys zs
1 1 .528714 .991739 .403921
2 1 .993305 .599444 .568511
3 1 .772732 .009203 .619908
4 1 .177345 .028882 .521146
5 1 .015402 .628915 .395714
6 1 .466044 .493732 .986441
7 1 .528849 .419689 .012571
ITEM: TIMESTEP
400
ITEM: NUMBER OF ATOMS
7
ITEM: BOX BOUNDS ss ss ss
-2.9422 3.3805
-2.6401 3.4090
-1.9714 1.9513
ITEM: ATOMS id type xs ys zs
1 1 .528501 .991315 .406083
2 1 .991874 .597631 .565489
3 1 .771543 .007199 .620625
4 1 .178262 .028459 .521139
5 1 .013817 .627740 .394060
6 1 .466472 .494935 .986269
7 1 .527735 .420119 .012047
ITEM: TIMESTEP
1
ITEM: NUMBER OF ATOMS
7
ITEM: BOX BOUNDS ss ss ss
-2.9167 3.3662
-2.6225 3.3876
-1.9552 1.9280
ITEM: ATOMS id type xs ys zs
1 1 .523760 .996759 .402134
2 1 .995022 .603085 .571002
3 1 .773646 .001945 .615241
4 1 .172227 .020183 .526159
5 1 .004660 .625090 .396390
6 1 .464308 .492397 .988196
7 1 .524418 .419806 .014129
ITEM: TIMESTEP
50
ITEM: NUMBER OF ATOMS
7
ITEM: BOX BOUNDS ss ss ss
-2.9196 3.3666
-2.6420 3.4040
-1.9552 1.9280
ITEM: ATOMS id type xs ys zs
1 1 .523689 .994013 .400987
2 1 .993768 .602925 .570094
3 1 .774461 .005423 .616711
4 1 .173337 .023778 .524751
5 1 .005396 .626447 .395991
6 1 .464405 .491384 .988597
7 1 .524430 .421018 .014191
ITEM: TIMESTEP
100
ITEM: NUMBER OF ATOMS
7
ITEM: BOX BOUNDS ss ss ss
-2.9328 3.3752
-2.6625 3.4141
-1.9552 1.9280
ITEM: ATOMS id type xs ys zs
1 1 .523624 .992072 .401934
2 1 .992717 .602719 .570184
3 1 .774096 .008426 .616121
4 1 .174802 .027193 .524472
5 1 .007548 .625796 .396659
6 1 .464146 .492840 .989256
7 1 .524480 .423214 .015353
ITEM: TIMESTEP
150
ITEM: NUMBER OF ATOMS
7
ITEM: BOX BOUNDS ss ss ss
-2.9367 3.3853
-2.6593 3.4175
-1.9552 1.9318
ITEM: ATOMS id type xs ys zs
1 1 .524255 .991279 .405835
2 1 .991735 .602925 .567212
3 1 .770236 .009148 .615488
4 1 .173122 .030814 .528279
5 1 .007149 .625222 .391854
6 1 .463586 .492854 .984797
7 1 .524737 .420989 .010199
ITEM: TIMESTEP
200
ITEM: NUMBER OF ATOMS
7
ITEM: BOX BOUNDS ss ss ss
-2.9443 3.3849
-2.6662 3.4235
-1.9552 1.9280
ITEM: ATOMS id type xs ys zs
1 1 .525619 .989326 .402582
2 1 .992051 .598630 .566258
3 1 .772697 .011750 .619720
4 1 .175145 .026132 .529286
5 1 .009494 .625237 .397917
6 1 .463662 .491414 .985502
7 1 .525581 .421641 .009914
ITEM: TIMESTEP
250
ITEM: NUMBER OF ATOMS
7
ITEM: BOX BOUNDS ss ss ss
-2.9443 3.3854
-2.6488 3.4253
-1.9552 1.9280
ITEM: ATOMS id type xs ys zs
1 1 .525023 .988330 .403107
2 1 .993795 .598162 .563912
3 1 .773724 .008216 .619734
4 1 .176681 .023643 .528905
5 1 .009930 .621146 .396324
6 1 .464639 .489381 .986656
7 1 .526446 .419737 .007429
ITEM: TIMESTEP
300
ITEM: NUMBER OF ATOMS
7
ITEM: BOX BOUNDS ss ss ss
-2.9466 3.3849
-2.6432 3.4251
-1.9604 1.9283
ITEM: ATOMS id type xs ys zs
1 1 .526820 .986843 .405505
2 1 .995743 .595599 .562233
3 1 .775819 .005594 .620519
4 1 .176865 .023505 .530686
5 1 .011184 .623005 .400038
6 1 .468217 .488044 .985273
7 1 .526527 .418207 .009088
ITEM: TIMESTEP
350
ITEM: NUMBER OF ATOMS
7
ITEM: BOX BOUNDS ss ss ss
-2.9470 3.3878
-2.6438 3.4258
-1.9690 1.9314
ITEM: ATOMS id type xs ys zs
1 1 .526950 .986473 .405830
2 1 .991817 .596827 .569244
3 1 .775396 .008663 .622050
4 1 .175351 .023772 .528008
5 1 .008300 .622883 .401235
6 1 .464875 .489396 .986272
7 1 .524070 .417700 .012147
ITEM: TIMESTEP
400
ITEM: NUMBER OF ATOMS
7
ITEM: BOX BOUNDS ss ss ss
-2.9504 3.3956
-2.6481 3.4269
-1.9593 1.9355
ITEM: ATOMS id type xs ys zs
1 1 .525257 .987390 .400656
2 1 .990259 .598257 .563165
3 1 .774044 .010802 .619779
4 1 .176951 .023600 .529084
5 1 .007984 .622938 .399598
6 1 .463623 .489714 .986307
7 1 .521339 .416942 .008685
ITEM: TIMESTEP
450
ITEM: NUMBER OF ATOMS
7
ITEM: BOX BOUNDS ss ss ss
-2.9679 3.4052
-2.6457 3.4309
-1.9663 1.9362
ITEM: ATOMS id type xs ys zs
1 1 .526351 .988082 .402891
2 1 .987290 .597208 .560704
3 1 .774696 .009986 .621933
4 1 .180553 .019508 .532946
5 1 .012580 .623688 .401081
6 1 .464794 .489325 .987224
7 1 .518898 .414961 .012341
ITEM: TIMESTEP
500
ITEM: NUMBER OF ATOMS
7
ITEM: BOX BOUNDS ss ss ss
-2.9675 3.4183
-2.6493 3.4176
-1.9567 1.9343
ITEM: ATOMS id type xs ys zs
1 1 .524571 .990051 .404701
2 1 .983909 .599988 .560907
3 1 .773394 .011932 .622729
4 1 .180428 .019583 .532919
5 1 .012837 .625725 .400993
6 1 .463258 .490069 .990187
7 1 .517614 .416182 .008969
ITEM: TIMESTEP
550
ITEM: NUMBER OF ATOMS
7
ITEM: BOX BOUNDS ss ss ss
-2.9592 3.4033
-2.6396 3.4036
-1.9653 1.9277
ITEM: ATOMS id type xs ys zs
1 1 .526359 .987930 .401263
2 1 .987585 .599425 .559802
3 1 .777619 .012343 .621707
4 1 .180004 .020082 .530786
5 1 .013566 .623163 .401757
6 1 .463615 .492490 .987004
7 1 .517856 .413141 .009223
ITEM: TIMESTEP
600
ITEM: NUMBER OF ATOMS
7
ITEM: BOX BOUNDS ss ss ss
-2.9607 3.4140
-2.6321 3.4060
-1.9625 1.9264
ITEM: ATOMS id type xs ys zs
1 1 .523945 .991889 .407212
2 1 .984738 .600122 .560882
3 1 .774684 .008221 .621615
4 1 .179670 .019657 .536594
5 1 .011258 .623451 .402559
6 1 .462737 .488669 .988704
7 1 .517832 .416999 .012620
ITEM: TIMESTEP
650
ITEM: NUMBER OF ATOMS
7
ITEM: BOX BOUNDS ss ss ss
-2.9636 3.4119
-2.6325 3.4113
-1.9808 1.9299
ITEM: ATOMS id type xs ys zs
1 1 .524549 .990346 .404058
2 1 .986176 .596180 .560614
3 1 .776581 .007625 .620091
4 1 .183134 .019197 .536291
5 1 .011762 .624710 .405058
6 1 .463762 .489930 .986604
7 1 .517920 .416356 .011638
ITEM: TIMESTEP
700
ITEM: NUMBER OF ATOMS
7
ITEM: BOX BOUNDS ss ss ss
-2.9712 3.3835
-2.6387 3.4030
-1.9712 1.9334
ITEM: ATOMS id type xs ys zs
1 1 .525891 .991103 .402980
2 1 .990407 .599737 .557014
3 1 .778502 .010402 .622471
4 1 .183665 .018164 .540588
5 1 .014345 .626107 .399825
6 1 .466262 .489917 .988370
7 1 .523173 .417449 .013065
ITEM: TIMESTEP
1
ITEM: NUMBER OF ATOMS
7
ITEM: BOX BOUNDS ss ss ss
-2.9310 3.3559
-2.6152 3.3867
-1.9597 1.8985
ITEM: ATOMS id type xs ys zs
1 1 .525703 .996947 .405909
2 1 .996663 .602709 .575824
3 1 .775440 .000757 .620387
4 1 .174371 .018981 .530715
5 1 .006927 .624746 .400122
6 1 .466309 .491862 .995776
7 1 .526349 .419161 .015343
ITEM: TIMESTEP
50
ITEM: NUMBER OF ATOMS
7
ITEM: BOX BOUNDS ss ss ss
-2.9310 3.3682
-2.6453 3.4033
-1.9597 1.9067
ITEM: ATOMS id type xs ys zs
1 1 .524828 .992431 .406047