ITEM: TIMESTEP
1
ITEM: NUMBER OF ATOMS
7
ITEM: BOX BOUNDS ss ss ss
-2.8930 3.3389
-2.6154 3.3727
-1.9042 1.8852
ITEM: ATOMS id type xs ys zs
1 1 .524350 .999381 .398588
2 1 .999407 .604183 .571747
3 1 .776097 .000698 .616931
4 1 .169820 .018989 .525706
5 1 .000807 .626099 .392759
6 1 .464355 .493093 .999063
7 1 .524899 .420178 .001088
ITEM: TIMESTEP
50
ITEM: NUMBER OF ATOMS
7
ITEM: BOX BOUNDS ss ss ss
-2.9153 3.3636
-2.6425 3.3975
-1.9266 1.9049
ITEM: ATOMS id type xs ys zs
1 1 .524178 .995430 .399824
2 1 .995627 .603484 .571553
3 1 .773787 .005090 .615891
4 1 .172021 .023194 .525896
5 1 .004233 .624975 .394388
6 1 .464378 .493439 .993692
7 1 .524477 .421294 .007058
ITEM: TIMESTEP
100
ITEM: NUMBER OF ATOMS
7
ITEM: BOX BOUNDS ss ss ss
-2.9212 3.3754
-2.6455 3.4094
-1.9415 1.9141
ITEM: ATOMS id type xs ys zs
1 1 .523474 .993094 .401046
2 1 .993766 .602114 .571881
3 1 .772854 .006061 .616016
4 1 .172437 .023704 .526624
5 1 .005424 .624058 .395827
6 1 .463646 .492617 .991691
7 1 .523921 .421069 .010406
ITEM: TIMESTEP
150
ITEM: NUMBER OF ATOMS
7
ITEM: BOX BOUNDS ss ss ss
-2.9300 3.3811
-2.6467 3.4075
-1.9471 1.9203
ITEM: ATOMS id type xs ys zs
1 1 .522944 .992364 .400923
2 1 .992759 .601483 .570989
3 1 .772674 .007232 .615950
4 1 .173428 .024062 .526246
5 1 .007506 .624815 .395411
6 1 .463411 .492595 .990961
7 1 .524259 .421321 .011162
ITEM: TIMESTEP
200
ITEM: NUMBER OF ATOMS
7
ITEM: BOX BOUNDS ss ss ss
-2.9241 3.3725
-2.6465 3.3987
-1.9515 1.9290
ITEM: ATOMS id type xs ys zs
1 1 .522632 .992683 .400593
2 1 .994096 .600586 .568684
3 1 .773305 .007620 .615849
4 1 .172796 .024314 .525239
5 1 .007682 .626214 .394088
6 1 .463034 .492894 .990119
7 1 .524666 .421551 .011848
ITEM: TIMESTEP
250
ITEM: NUMBER OF ATOMS
7
ITEM: BOX BOUNDS ss ss ss
-2.9191 3.3782
-2.6423 3.3946
-1.9591 1.9342
ITEM: ATOMS id type xs ys zs
1 1 .521513 .992840 .401267
2 1 .993071 .599675 .568283
3 1 .772580 .007114 .616432
4 1 .171925 .023989 .525742
5 1 .007498 .626803 .394138
6 1 .462100 .492816 .989711
7 1 .523799 .421106 .013332
ITEM: TIMESTEP
300
ITEM: NUMBER OF ATOMS
7
ITEM: BOX BOUNDS ss ss ss
-2.9322 3.3841
-2.6385 3.3939
-1.9575 1.9462
ITEM: ATOMS id type xs ys zs
1 1 .521533 .992447 .400062
2 1 .991806 .599163 .566285
3 1 .772610 .006651 .614583
4 1 .173555 .023864 .524018
5 1 .009951 .627099 .392365
6 1 .462833 .492278 .987381
7 1 .524377 .420511 .012309
ITEM: TIMESTEP
350
ITEM: NUMBER OF ATOMS
7
ITEM: BOX BOUNDS ss ss ss
-2.9184 3.3743
-2.6480 3.4063
-1.9628 1.9436
ITEM: ATOMS id type xs ys zs
1 1 .520699 .989779 .401547
2 1 .992848 .598280 .566640
3 1 .773772 .008322 .615188
4 1 .172199 .025955 .524833
5 1 .008166 .627218 .393495
6 1 .462311 .491451 .988568
7 1 .524073 .420287 .012699
ITEM: TIMESTEP
400
ITEM: NUMBER OF ATOMS
7
ITEM: BOX BOUNDS ss ss ss
-2.9210 3.3810
-2.6451 3.3869
-1.9661 1.9488
ITEM: ATOMS id type xs ys zs
1 1 .519831 .992350 .402311
2 1 .991307 .599465 .565258
3 1 .773395 .007713 .614742
4 1 .172544 .026156 .523863
5 1 .008962 .629978 .393328
6 1 .461803 .492027 .987442
7 1 .523736 .421087 .012229
ITEM: TIMESTEP
1
ITEM: NUMBER OF ATOMS
7
ITEM: BOX BOUNDS ss ss ss
-2.9010 3.3549
-2.6302 3.3731
-1.9550 1.9268
ITEM: ATOMS id type xs ys zs
1 1 .523615 .999313 .402197
2 1 .996863 .605120 .571234
3 1 .774404 .003173 .615343
4 1 .170439 .021416 .526293
5 1 .002067 .626976 .396508
6 1 .463851 .494316 .988372
7 1 .524165 .421586 .014167
ITEM: TIMESTEP
50
ITEM: NUMBER OF ATOMS
7
ITEM: BOX BOUNDS ss ss ss
-2.9150 3.3688
-2.6368 3.3963
-1.9550 1.9268
ITEM: ATOMS id type xs ys zs
1 1 .523770 .995697 .401925
2 1 .994848 .603275 .571541
3 1 .773075 .004097 .615105
4 1 .171821 .022190 .526402
5 1 .004117 .624611 .396664
6 1 .463990 .493109 .988096
7 1 .524025 .420822 .014361
ITEM: TIMESTEP
100
ITEM: NUMBER OF ATOMS
7
ITEM: BOX BOUNDS ss ss ss
-2.9250 3.3777
-2.6483 3.4152
-1.9550 1.9268
ITEM: ATOMS id type xs ys zs
1 1 .523724 .992280 .401598
2 1 .993470 .601706 .571588
3 1 .772497 .006348 .615096
4 1 .172890 .024068 .526587
5 1 .005962 .623346 .396620
6 1 .463928 .492467 .988401
7 1 .524034 .420948 .013851
ITEM: TIMESTEP
150
ITEM: NUMBER OF ATOMS
7
ITEM: BOX BOUNDS ss ss ss
-2.9313 3.3840
-2.6495 3.4148
-1.9550 1.9268
ITEM: ATOMS id type xs ys zs
1 1 .523227 .991814 .400940
2 1 .992228 .601234 .571339
3 1 .772134 .007089 .614943
4 1 .173722 .024596 .526225
5 1 .007434 .623779 .396543
6 1 .463784 .492350 .989034
7 1 .524000 .421319 .012979
ITEM: TIMESTEP
200
ITEM: NUMBER OF ATOMS
7
ITEM: BOX BOUNDS ss ss ss
-2.9372 3.3776
-2.6515 3.4115
-1.9553 1.9392
ITEM: ATOMS id type xs ys zs
1 1 .523845 .992017 .399116
2 1 .993044 .601130 .569177
3 1 .773378 .007894 .612511
4 1 .174698 .025334 .524449
5 1 .008792 .624688 .395300
6 1 .464601 .492545 .986149
7 1 .524876 .421827 .011996
ITEM: TIMESTEP
250
ITEM: NUMBER OF ATOMS
7
ITEM: BOX BOUNDS ss ss ss
-2.9375 3.3895
-2.6493 3.4056
-1.9610 1.9467
ITEM: ATOMS id type xs ys zs
1 1 .522936 .992632 .398985
2 1 .990903 .601069 .568581
3 1 .772614 .008531 .611887
4 1 .174589 .025286 .523907
5 1 .009209 .625645 .395548
6 1 .463449 .492629 .984602
7 1 .523770 .422043 .012314
ITEM: TIMESTEP
300
ITEM: NUMBER OF ATOMS
7
ITEM: BOX BOUNDS ss ss ss
-2.9370 3.3787
-2.6477 3.4062
-1.9597 1.9320
ITEM: ATOMS id type xs ys zs
1 1 .523940 .992231 .400212
2 1 .992396 .600787 .570535
3 1 .774634 .009118 .614435
4 1 .174927 .025372 .525207
5 1 .009460 .626161 .396734
6 1 .463937 .492291 .988708
7 1 .524558 .421930 .011502
ITEM: TIMESTEP
350
ITEM: NUMBER OF ATOMS
7
ITEM: BOX BOUNDS ss ss ss
-2.9302 3.3784
-2.6453 3.4000
-1.9640 1.9336
ITEM: ATOMS id type xs ys zs
1 1 .523136 .992756 .400548
2 1 .992315 .600907 .570522
3 1 .774784 .009111 .615109
4 1 .174477 .025240 .525657
5 1 .008683 .627168 .396742
6 1 .463120 .492732 .988759
7 1 .524150 .421970 .012271
ITEM: TIMESTEP
400
ITEM: NUMBER OF ATOMS
7
ITEM: BOX BOUNDS ss ss ss
-2.9284 3.3832
-2.6465 3.3984
-1.9706 1.9347
ITEM: ATOMS id type xs ys zs
1 1 .522134 .992151 .401539
2 1 .991395 .600209 .570873
3 1 .774516 .009424 .616733
4 1 .174873 .025384 .526507
5 1 .008800 .627622 .396747
6 1 .462342 .493085 .989099
7 1 .523866 .421623 .013402
ITEM: TIMESTEP
1
ITEM: NUMBER OF ATOMS
7
ITEM: BOX BOUNDS ss ss ss
-2.9016 3.3589
-2.6244 3.3727
-1.9533 1.9308
ITEM: ATOMS id type xs ys zs
1 1 .523324 .999377 .401512
2 1 .996221 .604776 .570450
3 1 .773922 .002205 .614526
4 1 .170405 .020468 .525533
5 1 .002158 .626655 .395832
6 1 .463602 .493854 .987332
7 1 .523870 .421052 .013725
ITEM: TIMESTEP
50
ITEM: NUMBER OF ATOMS
7
ITEM: BOX BOUNDS ss ss ss
-2.9155 3.3678
-2.6394 3.4003
-1.9533 1.9308
ITEM: ATOMS id type xs ys zs
1 1 .523973 .995095 .401235
2 1 .995029 .603083 .570829
3 1 .773182 .004481 .614215
4 1 .171904 .022566 .525607
5 1 .004095 .624304 .395992
6 1 .464138 .493052 .986988
7 1 .524144 .420824 .014040
ITEM: TIMESTEP
100
ITEM: NUMBER OF ATOMS
7
ITEM: BOX BOUNDS ss ss ss
-2.9277 3.3710
-2.6499 3.4105
-1.9533 1.9308
ITEM: ATOMS id type xs ys zs
1 1 .524538 .993249 .400834
2 1 .994602 .602438 .571039
3 1 .773355 .006476 .614122
4 1 .173388 .024168 .525859
5 1 .006155 .623804 .396177
6 1 .464635 .493047 .987250
7 1 .524665 .421502 .013790
ITEM: TIMESTEP
150
ITEM: NUMBER OF ATOMS
7
ITEM: BOX BOUNDS ss ss ss
-2.9300 3.3857
-2.6560 3.4089
-1.9533 1.9309
ITEM: ATOMS id type xs ys zs
1 1 .523152 .993108 .400519
2 1 .992233 .602444 .571591
3 1 .772051 .008158 .613899
4 1 .173484 .025185 .526351
5 1 .006875 .624587 .396304
6 1 .463420 .493618 .987921
7 1 .523504 .422479 .013214
ITEM: TIMESTEP
200
ITEM: NUMBER OF ATOMS
7
ITEM: BOX BOUNDS ss ss ss
-2.9357 3.3823
-2.6507 3.4167
-1.9566 1.9308
ITEM: ATOMS id type xs ys zs
1 1 .523586 .991321 .400512
2 1 .992090 .600871 .572682
3 1 .773269 .008014 .614243
4 1 .174796 .024384 .527571
5 1 .008441 .623830 .396977
6 1 .463771 .492477 .988845
7 1 .523921 .421454 .013187
ITEM: TIMESTEP
250
ITEM: NUMBER OF ATOMS
7
ITEM: BOX BOUNDS ss ss ss
-2.9323 3.3820
-2.6561 3.4044
-1.9545 1.9317
ITEM: ATOMS id type xs ys zs
1 1 .523410 .993284 .400115
2 1 .990984 .602513 .572252
3 1 .773702 .009601 .613506
4 1 .174566 .025763 .527837
5 1 .008472 .626196 .396573
6 1 .463019 .493619 .989435
7 1 .523313 .423016 .011542
ITEM: TIMESTEP
300
ITEM: NUMBER OF ATOMS
7
ITEM: BOX BOUNDS ss ss ss
-2.9278 3.3822
-2.6430 3.4055
-1.9557 1.9391
ITEM: ATOMS id type xs ys zs
1 1 .523072 .993047 .399831
2 1 .990018 .601302 .570664
3 1 .773718 .008340 .611863
4 1 .174116 .024135 .526962
5 1 .008033 .625695 .395590
6 1 .462010 .492356 .988666
7 1 .522667 .422061 .011223
ITEM: TIMESTEP
350
ITEM: NUMBER OF ATOMS
7
ITEM: BOX BOUNDS ss ss ss
-2.9356 3.3760
-2.6486 3.4109
-1.9606 1.9439
ITEM: ATOMS id type xs ys zs
1 1 .523665 .992016 .400123
2 1 .990668 .600857 .570383
3 1 .775049 .009826 .611560
4 1 .175693 .025353 .526774
5 1 .009301 .625781 .395642
6 1 .462822 .492558 .988163
7 1 .523606 .422392 .012226
ITEM: TIMESTEP
400
ITEM: NUMBER OF ATOMS
7
ITEM: BOX BOUNDS ss ss ss
-2.9281 3.3718
-2.6389 3.4075
-1.9613 1.9446
ITEM: ATOMS id type xs ys zs
1 1 .522795 .992252 .400673
2 1 .991186 .600123 .570524
3 1 .775446 .008452 .612038
4 1 .175110 .024271 .526382
5 1 .008383 .626026 .395097
6 1 .462386 .491923 .988392
7 1 .523564 .421621 .011852
ITEM: TIMESTEP
1
ITEM: NUMBER OF ATOMS
7
ITEM: BOX BOUNDS ss ss ss
-2.9030 3.3391
-2.6269 3.3758
-1.9426 1.9222
ITEM: ATOMS id type xs ys zs
1 1 .525100 .998871 .400745
2 1 .999389 .604633 .570534
3 1 .776434 .002607 .614833
4 1 .171144 .020853 .525395
5 1 .002404 .626489 .395036
6 1 .465204 .493814 .989516
7 1 .525648 .421075 .011008
ITEM: TIMESTEP
50
ITEM: NUMBER OF ATOMS
7
ITEM: BOX BOUNDS ss ss ss
-2.9218 3.3621
-2.6390 3.3970
-1.9426 1.9222
ITEM: ATOMS id type xs ys zs
1 1 .524978 .995750 .400411
2 1 .995978 .603485 .570965
3 1 .774082 .004354 .614566
4 1 .172851 .022482 .525476
5 1 .005047 .624558 .395235
6 1 .465111 .493310 .989076
7 1 .525101 .421026 .011405
ITEM: TIMESTEP
100
ITEM: NUMBER OF ATOMS
7
ITEM: BOX BOUNDS ss ss ss
-2.9298 3.3781
-2.6479 3.4083
-1.9426 1.9222
ITEM: ATOMS id type xs ys zs
1 1 .524315 .993783 .400213
2 1 .993436 .602566 .571191
3 1 .772592 .006161 .614561
4 1 .173392 .023815 .525595
5 1 .006317 .623738 .395360
6 1 .464304 .493081 .989285
7 1 .524221 .421529 .011207
ITEM: TIMESTEP
150
ITEM: NUMBER OF ATOMS
7
ITEM: BOX BOUNDS ss ss ss
-2.9314 3.3731
-2.6545 3.4174
-1.9426 1.9255
ITEM: ATOMS id type xs ys zs
1 1 .524654 .991670 .400150
2 1 .993603 .600962 .570743
3 1 .773702 .008081 .614219
4 1 .173906 .024576 .525126
5 1 .006656 .623002 .395476
6 1 .464253 .492701 .989568
7 1 .524233 .421658 .010310
ITEM: TIMESTEP
200
ITEM: NUMBER OF ATOMS
7
ITEM: BOX BOUNDS ss ss ss
-2.9333 3.3726
-2.6481 3.4128
-1.9507 1.9277
ITEM: ATOMS id type xs ys zs
1 1 .524625 .991735 .401439
2 1 .993102 .600130 .571321
3 1 .774369 .007819 .614323
4 1 .174430 .023373 .525910
5 1 .006814 .622832 .397193
6 1 .463916 .492241 .989695
7 1 .523941 .421224 .011325
ITEM: TIMESTEP
250
ITEM: NUMBER OF ATOMS
7
ITEM: BOX BOUNDS ss ss ss
-2.9454 3.3731
-2.6439 3.4072
-1.9522 1.9356
ITEM: ATOMS id type xs ys zs
1 1 .524966 .991840 .401071
2 1 .992761 .599846 .569576
3 1 .775196 .007499 .612869
4 1 .176269 .023265 .525041
5 1 .009019 .623305 .395679
6 1 .464581 .491857 .988209
7 1 .524630 .421052 .010615
ITEM: TIMESTEP
300
ITEM: NUMBER OF ATOMS
7
ITEM: BOX BOUNDS ss ss ss
-2.9557 3.3661
-2.6415 3.4009
-1.9581 1.9370
ITEM: ATOMS id type xs ys zs
1 1 .525747 .992941 .402226
2 1 .993606 .599966 .567481
3 1 .775976 .006989 .614467
4 1 .177575 .024897 .527070
5 1 .012337 .625543 .392494
6 1 .465952 .492331 .987882
7 1 .526921 .421497 .010765
ITEM: TIMESTEP
350
ITEM: NUMBER OF ATOMS
7
ITEM: BOX BOUNDS ss ss ss
-2.9323 3.3736
-2.6377 3.4018
-1.9566 1.9368
ITEM: ATOMS id type xs ys zs
1 1 .522937 .993089 .402493
2 1 .992418 .599419 .566046
3 1 .773958 .006424 .615371
4 1 .174113 .025348 .527797
5 1 .009758 .626837 .390025
6 1 .463500 .492005 .987843
7 1 .525196 .421373 .010026
ITEM: TIMESTEP
400
ITEM: NUMBER OF ATOMS
7
ITEM: BOX BOUNDS ss ss ss
-2.9342 3.3681
-2.6428 3.4018
-1.9651 1.9318
ITEM: ATOMS id type xs ys zs
1 1 .523231 .992510 .404858
2 1 .993279 .599312 .567052
3 1 .774926 .007480 .617092
4 1 .174608 .026472 .530048
5 1 .010266 .627471 .391189
6 1 .464070 .492418 .989589
7 1 .525822 .421461 .012056
ITEM: TIMESTEP
1
ITEM: NUMBER OF ATOMS
7
ITEM: BOX BOUNDS ss ss ss
-2.9030 3.3595
-2.6269 3.3758
-1.9506 1.9319
ITEM: ATOMS id type xs ys zs
1 1 .523392 .998872 .400974
2 1 .996131 .604636 .569982
3 1 .773907 .002607 .614080
4 1 .170585 .020854 .525047
5 1 .002393 .626488 .395289
6 1 .463687 .493812 .987046
7 1 .523933 .421075 .013019
ITEM: TIMESTEP
50
ITEM: NUMBER OF ATOMS
7
ITEM: BOX BOUNDS ss ss ss
-2.9186 3.3641
-2.6419 3.3995
-1.9506 1.9319
ITEM: ATOMS id type xs ys zs
1 1 .524658 .995402 .400600
2 1 .995693 .603421 .570410
3 1 .773678 .004780 .613758
4 1 .172381 .022887 .525180
5 1 .004488 .624427 .395504
6 1 .464733 .493405 .986507
7 1 .524691 .421124 .013433
ITEM: TIMESTEP
100
ITEM: NUMBER OF ATOMS
7
ITEM: BOX BOUNDS ss ss ss
-2.9294 3.3776
-2.6499 3.4196
-1.9506 1.9319
ITEM: ATOMS id type xs ys zs
1 1 .524478 .992035 .400066
2 1 .993778 .601626 .570654
3 1 .772484 .006323 .613606
4 1 .173262 .024025 .525481
5 1 .006260 .622636 .395728
6 1 .464408 .492340 .986568
7 1 .524344 .420962 .013169
ITEM: TIMESTEP
150
ITEM: NUMBER OF ATOMS
7
ITEM: BOX BOUNDS ss ss ss
-2.9384 3.3785
-2.6526 3.4113
-1.9506 1.9319
ITEM: ATOMS id type xs ys zs
1 1 .524934 .993075 .399541
2 1 .993514 .601954 .570756
3 1 .772839 .007382 .613380
4 1 .174463 .024491 .525965
5 1 .007800 .623721 .395955
6 1 .464768 .493047 .986734
7 1 .524972 .422200 .012373
ITEM: TIMESTEP
200
ITEM: NUMBER OF ATOMS
7
ITEM: BOX BOUNDS ss ss ss
-2.9366 3.3807
-2.6632 3.4190
-1.9522 1.9319
ITEM: ATOMS id type xs ys zs
1 1 .524180 .991064 .398971
2 1 .993029 .601148 .571090
3 1 .772890 .009664 .613441
4 1 .174364 .026487 .525433
5 1 .007729 .623957 .396287
6 1 .464049 .493246 .987189
7 1 .524636 .422615 .011645
ITEM: TIMESTEP
250
ITEM: NUMBER OF ATOMS
7
ITEM: BOX BOUNDS ss ss ss
-2.9350 3.3838
-2.6500 3.4082
-1.9596 1.9373
ITEM: ATOMS id type xs ys zs
1 1 .523294 .991499 .398559
2 1 .992568 .599994 .571668
3 1 .772678 .008451 .612350
4 1 .174030 .024724 .524278
5 1 .007512 .624550 .396458
6 1 .463058 .493419 .986165
7 1 .523834 .421592 .011814
ITEM: TIMESTEP
300
ITEM: NUMBER OF ATOMS
7
ITEM: BOX BOUNDS ss ss ss
-2.9464 3.3851
-2.6560 3.4020
-1.9653 1.9360
ITEM: ATOMS id type xs ys zs
1 1 .523393 .991431 .399230
2 1 .992102 .599628 .573111
3 1 .773138 .010332 .611710
4 1 .175324 .025876 .525529
5 1 .008539 .625712 .396375
6 1 .462966 .494542 .986338
7 1 .523623 .422505 .012265
ITEM: TIMESTEP
350
ITEM: NUMBER OF ATOMS
7
ITEM: BOX BOUNDS ss ss ss
-2.9457 3.3824
-2.6533 3.3959
-1.9669 1.9319
ITEM: ATOMS id type xs ys zs
1 1 .523024 .991681 .399971
2 1 .991985 .599666 .574149
3 1 .773683 .010270 .612317
4 1 .175577 .025791 .526759
5 1 .007888 .626514 .396181
6 1 .462262 .494517 .987252
7 1 .522904 .422305 .011929
ITEM: TIMESTEP
400
ITEM: NUMBER OF ATOMS
7
ITEM: BOX BOUNDS ss ss ss
-2.9480 3.3861
-2.6356 3.3920
-1.9766 1.9370
ITEM: ATOMS id type xs ys zs
1 1 .522782 .991642 .401313
2 1 .990576 .598690 .574531
3 1 .773542 .007625 .612911
4 1 .176368 .023399 .526119
5 1 .008368 .626621 .395913
6 1 .461595 .492780 .985459
7 1 .522327 .420401 .012540
ITEM: TIMESTEP
1
ITEM: NUMBER OF ATOMS
7
ITEM: BOX BOUNDS ss ss ss
-2.9103 3.3440
-2.6269 3.3758
-1.9569 1.9222
ITEM: ATOMS id type xs ys zs
1 1 .525242 .998876 .402964
2 1 .998600 .604634 .572136
3 1 .776083 .002607 .616263
4 1 .171969 .020851 .527157
5 1 .003558 .626487 .397279
6 1 .465459 .493810 .989546
7 1 .525785 .421076 .014673
ITEM: TIMESTEP
50
ITEM: NUMBER OF ATOMS
7
ITEM: BOX BOUNDS ss ss ss
-2.9189 3.3630
-2.6414 3.4026
-1.9569 1.9222
ITEM: ATOMS id type xs ys zs
1 1 .524790 .994940 .402601
2 1 .995853 .603090 .572658
3 1 .773790 .004657 .615893
4 1 .172439 .022740 .527231
5 1 .004500 .624021 .397487
6 1 .464854 .493124 .988975
7 1 .524804 .420846 .015156
ITEM: TIMESTEP
100
ITEM: NUMBER OF ATOMS
7
ITEM: BOX BOUNDS ss ss ss
-2.9295 3.3806
-2.6573 3.4103
-1.9569 1.9247
ITEM: ATOMS id type xs ys zs
1 1 .524423 .993741 .401834
2 1 .993201 .603120 .572642
3 1 .772147 .007323 .615368
4 1 .173269 .025134 .527079
5 1 .006130 .623872 .397452
6 1 .464260 .493876 .988368
7 1 .524063 .422317 .015124
ITEM: TIMESTEP
150
ITEM: NUMBER OF ATOMS
7
ITEM: BOX BOUNDS ss ss ss
-2.9318 3.3904
-2.6511 3.4235
-1.9569 1.9222
ITEM: ATOMS id type xs ys zs
1 1 .523708 .990706 .401769
2 1 .991328 .601014 .572876
3 1 .771476 .007274 .615558
4 1 .173853 .024548 .527926
5 1 .006661 .622209 .397972
6 1 .463380 .492175 .989778
7 1 .523276 .421157 .013734
ITEM: TIMESTEP
200
ITEM: NUMBER OF ATOMS
7
ITEM: BOX BOUNDS ss ss ss
-2.9350 3.3814
-2.6504 3.4156
-1.9569 1.9279
ITEM: ATOMS id type xs ys zs
1 1 .524388 .991326 .401521
2 1 .992461 .601391 .571271
3 1 .773460 .008360 .614521
4 1 .175401 .025316 .526899
5 1 .007400 .623695 .397896
6 1 .464019 .492831 .988993
7 1 .523977 .421978 .012348
ITEM: TIMESTEP
250
ITEM: NUMBER OF ATOMS
7
ITEM: BOX BOUNDS ss ss ss
-2.9296 3.3858
-2.6408 3.4113
-1.9613 1.9339
ITEM: ATOMS id type xs ys zs
1 1 .523433 .991737 .401312
2 1 .991811 .600445 .570709
3 1 .773136 .007466 .613810
4 1 .174580 .024131 .526158
5 1 .006575 .623961 .398143
6 1 .463110 .492211 .987862
7 1 .522916 .421478 .013316
ITEM: TIMESTEP
300
ITEM: NUMBER OF ATOMS
7
ITEM: BOX BOUNDS ss ss ss
-2.9344 3.3853
-2.6438 3.4179
-1.9621 1.9341
ITEM: ATOMS id type xs ys zs
1 1 .523706 .990036 .400524
2 1 .991845 .598976 .570428
3 1 .773920 .008469 .613688
4 1 .175150 .025054 .526431
5 1 .007070 .624148 .398071
6 1 .463106 .491832 .988122
7 1 .522873 .421193 .013059
ITEM: TIMESTEP
350
ITEM: NUMBER OF ATOMS
7
ITEM: BOX BOUNDS ss ss ss
-2.9345 3.3900
-2.6397 3.4188
-1.9624 1.9496
ITEM: ATOMS id type xs ys zs
1 1 .523984 .988923 .397041
2 1 .991242 .597750 .567196
3 1 .774002 .008304 .610321
4 1 .174691 .025504 .524003
5 1 .006816 .625765 .397125
6 1 .462550 .491278 .984107
7 1 .521739 .420213 .011808
ITEM: TIMESTEP
400
ITEM: NUMBER OF ATOMS
7
ITEM: BOX BOUNDS ss ss ss
-2.9426 3.3874
-2.6325 3.4197
-1.9632 1.9467
ITEM: ATOMS id type xs ys zs
1 1 .525333 .988289 .396223
2 1 .991758 .596879 .566928
3 1 .774878 .007659 .610348
4 1 .175763 .024874 .523971
5 1 .008410 .626255 .397924
6 1 .463640 .490718 .984743
7 1 .522179 .419308 .011233
ITEM: TIMESTEP
1
ITEM: NUMBER OF ATOMS
7
ITEM: BOX BOUNDS ss ss ss
-2.9056 3.3674
-2.6269 3.3758
-1.9567 1.9280
ITEM: ATOMS id type xs ys zs
1 1 .522925 .998876 .402325
2 1 .994869 .604634 .571243
3 1 .773013 .002606 .615311
4 1 .170706 .020851 .526333
5 1 .002796 .626487 .396646
6 1 .463320 .493815 .988053
7 1 .523463 .421076 .014596
ITEM: TIMESTEP
50
ITEM: NUMBER OF ATOMS
7
ITEM: BOX BOUNDS ss ss ss
-2.9209 3.3674
-2.6453 3.3992
-1.9567 1.9280
ITEM: ATOMS id type xs ys zs
1 1 .524647 .995556 .401946
2 1 .995224 .603738 .571831
3 1 .773279 .005235 .614959
4 1 .172566 .023362 .526480
5 1 .004745 .624584 .396883
6 1 .464689 .493781 .987385
7 1 .524588 .421465 .015147
ITEM: TIMESTEP
100
ITEM: NUMBER OF ATOMS
7
ITEM: BOX BOUNDS ss ss ss
-2.9312 3.3785
-2.6547 3.4146
-1.9567 1.9280
ITEM: ATOMS id type xs ys zs
1 1 .524693 .993230 .401475
2 1 .993761 .602700 .572234
3 1 .772272 .006812 .614869
4 1 .173410 .024714 .526698
5 1 .006216 .623173 .397098
6 1 .464568 .493404 .987166
7 1 .524387 .421707 .015241
ITEM: TIMESTEP
150
ITEM: NUMBER OF ATOMS
7
ITEM: BOX BOUNDS ss ss ss
-2.9309 3.3830
-2.6527 3.4285
-1.9567 1.9280
ITEM: ATOMS id type xs ys zs
1 1 .524208 .990796 .400551
2 1 .993196 .600730 .572530
3 1 .771840 .006917 .615131
4 1 .173364 .024499 .526978
5 1 .006283 .621687 .397362
6 1 .463748 .491979 .987309
7 1 .524104 .421060 .014922
ITEM: TIMESTEP
200
ITEM: NUMBER OF ATOMS
7
ITEM: BOX BOUNDS ss ss ss
-2.9362 3.3867
-2.6565 3.4140
-1.9567 1.9281
ITEM: ATOMS id type xs ys zs
1 1 .523838 .992817 .399722
2 1 .992664 .601959 .572827
3 1 .772120 .008153 .614668
4 1 .174095 .025143 .526488
5 1 .007513 .623713 .397003
6 1 .463457 .492982 .988140
7 1 .524266 .422694 .015071
ITEM: TIMESTEP
250
ITEM: NUMBER OF ATOMS
7
ITEM: BOX BOUNDS ss ss ss
-2.9345 3.3894
-2.6550 3.4175
-1.9567 1.9370
ITEM: ATOMS id type xs ys zs
1 1 .523427 .991833 .398493
2 1 .992476 .601073 .571844
3 1 .772293 .009096 .611953
4 1 .173814 .025168 .525241
5 1 .007577 .623640 .394658
6 1 .463001 .492455 .986345
7 1 .523324 .422550 .014803
ITEM: TIMESTEP
300
ITEM: NUMBER OF ATOMS
7
ITEM: BOX BOUNDS ss ss ss
-2.9393 3.3849
-2.6486 3.4197
-1.9567 1.9355
ITEM: ATOMS id type xs ys zs
1 1 .524629 .991130 .398883
2 1 .993536 .599881 .572336
3 1 .773526 .009183 .611141
4 1 .174431 .024466 .526542
5 1 .008448 .623414 .394028
6 1 .463936 .491977 .986688
7 1 .523445 .422065 .013805
ITEM: TIMESTEP
350
ITEM: NUMBER OF ATOMS
7
ITEM: BOX BOUNDS ss ss ss
-2.9345 3.3951
-2.6472 3.4138
-1.9585 1.9366
ITEM: ATOMS id type xs ys zs
1 1 .523535 .991875 .399335
2 1 .991667 .600278 .573569
3 1 .772212 .009334 .610770
4 1 .173441 .024501 .527750
5 1 .007876 .624370 .393922
6 1 .462618 .492480 .986579
7 1 .522093 .422413 .013545
ITEM: TIMESTEP
400
ITEM: NUMBER OF ATOMS
7
ITEM: BOX BOUNDS ss ss ss
-2.9464 3.3975
-2.6474 3.4189
-1.9667 1.9388
ITEM: ATOMS id type xs ys zs
1 1 .524075 .990723 .399813
2 1 .990997 .600230 .575162
3 1 .772531 .009824 .610603
4 1 .175030 .024626 .529415
5 1 .010205 .624192 .394513
6 1 .463325 .492166 .986291
7 1 .522830 .421840 .014670
ITEM: TIMESTEP
1
ITEM: NUMBER OF ATOMS
7
ITEM: BOX BOUNDS ss ss ss
-2.9134 3.3657
-2.6222 3.3823
-1.9462 1.9269
ITEM: ATOMS id type xs ys zs
1 1 .523658 .997797 .400820
2 1 .995148 .603673 .570241
3 1 .773507 .001828 .614439
4 1 .171778 .020066 .525201
5 1 .004033 .625516 .395123
6 1 .464111 .492889 .988293
7 1 .524196 .420168 .011942
ITEM: TIMESTEP
50
ITEM: NUMBER OF ATOMS
7
ITEM: BOX BOUNDS ss ss ss
-2.9257 3.3657
-2.6463 3.4002
-1.9462 1.9269
ITEM: ATOMS id type xs ys zs
1 1 .525154 .995437 .400377
2 1 .995459 .603728 .570833
3 1 .773633 .005393 .614014
4 1 .173251 .023502 .525337
5 1 .005499 .624500 .395328
6 1 .465252 .493815 .987659
7 1 .525055 .421516 .012546
ITEM: TIMESTEP
100
ITEM: NUMBER OF ATOMS
7
ITEM: BOX BOUNDS ss ss ss
-2.9319 3.3804
-2.6503 3.4121
-1.9462 1.9269
ITEM: ATOMS id type xs ys zs
1 1 .524687 .993637 .399838
2 1 .993319 .602604 .570971
3 1 .772073 .006107 .613814
4 1 .173538 .023892 .525467
5 1 .006414 .623037 .395529
6 1 .464492 .493211 .987628
7 1 .524218 .421560 .012509
ITEM: TIMESTEP
150
ITEM: NUMBER OF ATOMS
7
ITEM: BOX BOUNDS ss ss ss
-2.9344 3.3779
-2.6537 3.4161
-1.9462 1.9269
ITEM: ATOMS id type xs ys zs
1 1 .524988 .992698 .399560
2 1 .993273 .601610 .570584
3 1 .772171 .007215 .614605
4 1 .174161 .024232 .525117
5 1 .007292 .622503 .395797
6 1 .464646 .492767 .988113
7 1 .524554 .421999 .011481
ITEM: TIMESTEP
200
ITEM: NUMBER OF ATOMS
7
ITEM: BOX BOUNDS ss ss ss
-2.9347 3.3757
-2.6569 3.4207
-1.9462 1.9269
ITEM: ATOMS id type xs ys zs
1 1 .525396 .991807 .399205
2 1 .993302 .600503 .570424
3 1 .772150 .008292 .615595
4 1 .174280 .024315 .525128
5 1 .007885 .622053 .396125
6 1 .464537 .492517 .988509
7 1 .524561 .422216 .010576
ITEM: TIMESTEP
250
ITEM: NUMBER OF ATOMS
7
ITEM: BOX BOUNDS ss ss ss
-2.9472 3.3791
-2.6580 3.4210
-1.9574 1.9371
ITEM: ATOMS id type xs ys zs
1 1 .526500 .991254 .399893
2 1 .992466 .599640 .569916
3 1 .772039 .009294 .615633
4 1 .175903 .024243 .525559
5 1 .010212 .622137 .397355
6 1 .464860 .492611 .987069
7 1 .524721 .422420 .012774
ITEM: TIMESTEP
300
ITEM: NUMBER OF ATOMS
7
ITEM: BOX BOUNDS ss ss ss
-2.9509 3.3823
-2.6597 3.4155
-1.9601 1.9397
ITEM: ATOMS id type xs ys zs
1 1 .527013 .991897 .399899
2 1 .991707 .599588 .569662
3 1 .772026 .010353 .616295
4 1 .176259 .024220 .525705
5 1 .011338 .622857 .398038
6 1 .464760 .493231 .987956
7 1 .524498 .423087 .013475
ITEM: TIMESTEP
350
ITEM: NUMBER OF ATOMS
7
ITEM: BOX BOUNDS ss ss ss
-2.9495 3.3771
-2.6520 3.4124
-1.9609 1.9426
ITEM: ATOMS id type xs ys zs
1 1 .527269 .992309 .399354
2 1 .992609 .599120 .568987
3 1 .773106 .009765 .616531
4 1 .176450 .022719 .525424
5 1 .011576 .623038 .397682
6 1 .464829 .492755 .987716
7 1 .525080 .422614 .013790
ITEM: TIMESTEP
400
ITEM: NUMBER OF ATOMS
7
ITEM: BOX BOUNDS ss ss ss
-2.9422 3.3805
-2.6401 3.4090
-1.9714 1.9513
ITEM: ATOMS id type xs ys zs
1 1 .526397 .992872 .400162
2 1 .992481 .598410 .568645
3 1 .772706 .008008 .616346
4 1 .175741 .020916 .525404
5 1 .010861 .623069 .397947
6 1 .463982 .492138 .985385
7 1 .524886 .421715 .016172
ITEM: TIMESTEP
1
ITEM: NUMBER OF ATOMS
7
ITEM: BOX BOUNDS ss ss ss
-2.9167 3.3662
-2.6225 3.3876
-1.9552 1.9280
ITEM: ATOMS id type xs ys zs
1 1 .523873 .996904 .402095
2 1 .995078 .603154 .571085
3 1 .773565 .001870 .615158
4 1 .172205 .020093 .526149
5 1 .004556 .624977 .396415
6 1 .464360 .492467 .988047
7 1 .524407 .419825 .014223
ITEM: TIMESTEP
50
ITEM: NUMBER OF ATOMS
7
ITEM: BOX BOUNDS ss ss ss
-2.9196 3.3666
-2.6420 3.4040
-1.9552 1.9280
ITEM: ATOMS id type xs ys zs
1 1 .524667 .994855 .401667
2 1 .995361 .603068 .571685
3 1 .773247 .004667 .614707
4 1 .172408 .022769 .526274
5 1 .004472 .623802 .396710
6 1 .464678 .493147 .987351
7 1 .524562 .420837 .014830
ITEM: TIMESTEP
100
ITEM: NUMBER OF ATOMS
7
ITEM: BOX BOUNDS ss ss ss
-2.9328 3.3752
-2.6625 3.4141
-1.9552 1.9280
ITEM: ATOMS id type xs ys zs
1 1 .525318 .993442 .401174
2 1 .994262 .603248 .571899
3 1 .772546 .008054 .614644
4 1 .173608 .025800 .526468
5 1 .006347 .623598 .396851
6 1 .464916 .494134 .987143
7 1 .524768 .422601 .014849
ITEM: TIMESTEP
150
ITEM: NUMBER OF ATOMS
7
ITEM: BOX BOUNDS ss ss ss
-2.9367 3.3853
-2.6593 3.4175
-1.9552 1.9318
ITEM: ATOMS id type xs ys zs
1 1 .525136 .992889 .400414
2 1 .992841 .602013 .571314
3 1 .771420 .008113 .614024
4 1 .173520 .025285 .526203
5 1 .006868 .622889 .396730
6 1 .464225 .493610 .986189
7 1 .524080 .422549 .014464
ITEM: TIMESTEP
200
ITEM: NUMBER OF ATOMS
7
ITEM: BOX BOUNDS ss ss ss
-2.9443 3.3849
-2.6662 3.4235
-1.9552 1.9280
ITEM: ATOMS id type xs ys zs
1 1 .526204 .991960 .399947
2 1 .992962 .600786 .572377
3 1 .772427 .010282 .615148
4 1 .174727 .026518 .526971
5 1 .007672 .622588 .397338
6 1 .464631 .494066 .986867
7 1 .524261 .423114 .013590
ITEM: TIMESTEP
250
ITEM: NUMBER OF ATOMS
7
ITEM: BOX BOUNDS ss ss ss
-2.9443 3.3854
-2.6488 3.4253
-1.9552 1.9280
ITEM: ATOMS id type xs ys zs
1 1 .526475 .991597 .399645
2 1 .992876 .598540 .573028
3 1 .772961 .008397 .615397
4 1 .175159 .023608 .527367
5 1 .007349 .621312 .397198
6 1 .464101 .492707 .986291
7 1 .523628 .421430 .012698
ITEM: TIMESTEP
300
ITEM: NUMBER OF ATOMS
7
ITEM: BOX BOUNDS ss ss ss
-2.9466 3.3849
-2.6432 3.4251
-1.9604 1.9283
ITEM: ATOMS id type xs ys zs
1 1 .526258 .991392 .401105
2 1 .993119 .596670 .572118
3 1 .773869 .007694 .615585
4 1 .176576 .022772 .529116
5 1 .007361 .621289 .397602
6 1 .463929 .492308 .986594
7 1 .523762 .421106 .013832
ITEM: TIMESTEP
350
ITEM: NUMBER OF ATOMS
7
ITEM: BOX BOUNDS ss ss ss
-2.9470 3.3878
-2.6438 3.4258
-1.9690 1.9314
ITEM: ATOMS id type xs ys zs
1 1 .525943 .991028 .402278
2 1 .992793 .595324 .571082
3 1 .774264 .007677 .615928
4 1 .177563 .023289 .530193
5 1 .006933 .621220 .398390
6 1 .463701 .492530 .986050
7 1 .523495 .421511 .015640
ITEM: TIMESTEP
400
ITEM: NUMBER OF ATOMS
7
ITEM: BOX BOUNDS ss ss ss
-2.9504 3.3956
-2.6481 3.4269
-1.9593 1.9355
ITEM: ATOMS id type xs ys zs
1 1 .525418 .990347 .400318
2 1 .991625 .595397 .569513
3 1 .773767 .008413 .614536
4 1 .178123 .023932 .528451
5 1 .006985 .620695 .397155
6 1 .463515 .492713 .985355
7 1 .522962 .421702 .013300
ITEM: TIMESTEP
450
ITEM: NUMBER OF ATOMS
7
ITEM: BOX BOUNDS ss ss ss
-2.9679 3.4052
-2.6457 3.4309
-1.9663 1.9362
ITEM: ATOMS id type xs ys zs
1 1 .526045 .988854 .401358
2 1 .989843 .595160 .568450
3 1 .773420 .008563 .616408
4 1 .180341 .022979 .529465
5 1 .009321 .619637 .399268
6 1 .464253 .491799 .985390
7 1 .522617 .420233 .014785
ITEM: TIMESTEP
500
ITEM: NUMBER OF ATOMS
7
ITEM: BOX BOUNDS ss ss ss
-2.9675 3.4183
-2.6493 3.4176
-1.9567 1.9343
ITEM: ATOMS id type xs ys zs
1 1 .525938 .990284 .399984
2 1 .987053 .597766 .563379
3 1 .772044 .010604 .617743
4 1 .179547 .021942 .530323
5 1 .009428 .621441 .399018
6 1 .462914 .492383 .985002
7 1 .519451 .419929 .011024
ITEM: TIMESTEP
550
ITEM: NUMBER OF ATOMS
7
ITEM: BOX BOUNDS ss ss ss
-2.9592 3.4033
-2.6396 3.4036
-1.9653 1.9277
ITEM: ATOMS id type xs ys zs
1 1 .527431 .992257 .402115
2 1 .988842 .599091 .563261
3 1 .773701 .009984 .620435
4 1 .178941 .019018 .533727
5 1 .008720 .622659 .401779
6 1 .463179 .492484 .986761
7 1 .518539 .418919 .012282
ITEM: TIMESTEP
600
ITEM: NUMBER OF ATOMS
7
ITEM: BOX BOUNDS ss ss ss
-2.9607 3.4140
-2.6321 3.4060
-1.9625 1.9264
ITEM: ATOMS id type xs ys zs
1 1 .527100 .991696 .401386
2 1 .986905 .598284 .562549
3 1 .772276 .009139 .620782
4 1 .178811 .017259 .533958
5 1 .009043 .621645 .402268
6 1 .462311 .491968 .987399
7 1 .517298 .417817 .011392
ITEM: TIMESTEP
650
ITEM: NUMBER OF ATOMS
7
ITEM: BOX BOUNDS ss ss ss
-2.9636 3.4119
-2.6325 3.4113
-1.9808 1.9299
ITEM: ATOMS id type xs ys zs
1 1 .527540 .990778 .404282
2 1 .986858 .597552 .563454
3 1 .772835 .009504 .622084
4 1 .179291 .017379 .535721
5 1 .009368 .620901 .405178
6 1 .462408 .491569 .986844
7 1 .517406 .417571 .015856
ITEM: TIMESTEP
700
ITEM: NUMBER OF ATOMS
7
ITEM: BOX BOUNDS ss ss ss
-2.9712 3.3835
-2.6387 3.4030
-1.9712 1.9334
ITEM: ATOMS id type xs ys zs
1 1 .530089 .992243 .403545
2 1 .990403 .598497 .560377
3 1 .777637 .010311 .620163
4 1 .181954 .018414 .534643
5 1 .010540 .622725 .402763
6 1 .464783 .492315 .985500
7 1 .519781 .418635 .012650
ITEM: TIMESTEP
1
ITEM: NUMBER OF ATOMS
7
ITEM: BOX BOUNDS ss ss ss
-2.9310 3.3559
-2.6152 3.3867
-1.9597 1.8985
ITEM: ATOMS id type xs ys zs
1 1 .525814 .997050 .405859
2 1 .996718 .602769 .575940
3 1 .775348 .000668 .620308
4 1 .174369 .018913 .530719
5 1 .006824 .624614 .400142
6 1 .466338 .491935 .995615
7 1 .526348 .419185 .015465
ITEM: TIMESTEP
50
ITEM: NUMBER OF ATOMS
7
ITEM: BOX BOUNDS ss ss ss
-2.9310 3.3682
-2.6453 3.4033
-1.9597 1.9067
ITEM: ATOMS id type xs ys zs
1 1 .525444 .995003 .404522