ITEM: TIMESTEP
1
ITEM: NUMBER OF ATOMS
7
ITEM: BOX BOUNDS ss ss ss
-2.8930 3.3389
-2.6154 3.3727
-1.9042 1.8852
ITEM: ATOMS id type xs ys zs
1 1 .524408 .999492 .398364
2 1 .999526 .604296 .571841
3 1 .776287 .000817 .616755
4 1 .169802 .019160 .525823
5 1 .000864 .626234 .392700
6 1 .464541 .493178 .999025
7 1 .524734 .420382 .001378
ITEM: TIMESTEP
50
ITEM: NUMBER OF ATOMS
7
ITEM: BOX BOUNDS ss ss ss
-2.9153 3.3636
-2.6425 3.3975
-1.9266 1.9049
ITEM: ATOMS id type xs ys zs
1 1 .523033 .993136 .401810
2 1 .996433 .602767 .568405
3 1 .773967 .004641 .614559
4 1 .173864 .023906 .525668
5 1 .005718 .622721 .391516
6 1 .465118 .493195 .995757
7 1 .525044 .418951 .008675
ITEM: TIMESTEP
100
ITEM: NUMBER OF ATOMS
7
ITEM: BOX BOUNDS ss ss ss
-2.9212 3.3754
-2.6455 3.4094
-1.9415 1.9141
ITEM: ATOMS id type xs ys zs
1 1 .522843 .989243 .404437
2 1 .995701 .602042 .563992
3 1 .772942 .004566 .616486
4 1 .174831 .025175 .524980
5 1 .007378 .620134 .392853
6 1 .464554 .494400 .994560
7 1 .526316 .419329 .012155
ITEM: TIMESTEP
150
ITEM: NUMBER OF ATOMS
7
ITEM: BOX BOUNDS ss ss ss
-2.9300 3.3811
-2.6467 3.4075
-1.9471 1.9203
ITEM: ATOMS id type xs ys zs
1 1 .526500 .990912 .401301
2 1 .992210 .601112 .572661
3 1 .772818 .004899 .622714
4 1 .174200 .027078 .529473
5 1 .005675 .627038 .394962
6 1 .461851 .491894 .992034
7 1 .523117 .415919 .011869
ITEM: TIMESTEP
200
ITEM: NUMBER OF ATOMS
7
ITEM: BOX BOUNDS ss ss ss
-2.9241 3.3725
-2.6465 3.3987
-1.9515 1.9290
ITEM: ATOMS id type xs ys zs
1 1 .523750 .993206 .395713
2 1 .995762 .597676 .566211
3 1 .770763 .011160 .618342
4 1 .169570 .023070 .520720
5 1 .010282 .625975 .395758
6 1 .463612 .493137 .990660
7 1 .524238 .422629 .010911
ITEM: TIMESTEP
250
ITEM: NUMBER OF ATOMS
7
ITEM: BOX BOUNDS ss ss ss
-2.9191 3.3782
-2.6423 3.3946
-1.9591 1.9342
ITEM: ATOMS id type xs ys zs
1 1 .522295 .991646 .400268
2 1 .995127 .598839 .570302
3 1 .775216 .008638 .612139
4 1 .171613 .023957 .525682
5 1 .005985 .627653 .392779
6 1 .463821 .493364 .992876
7 1 .524231 .421963 .011487
ITEM: TIMESTEP
300
ITEM: NUMBER OF ATOMS
7
ITEM: BOX BOUNDS ss ss ss
-2.9322 3.3841
-2.6385 3.3939
-1.9575 1.9462
ITEM: ATOMS id type xs ys zs
1 1 .522536 .990336 .397307
2 1 .988664 .595536 .563968
3 1 .771075 .004806 .609870
4 1 .174159 .024524 .525577
5 1 .007490 .626473 .393748
6 1 .458165 .492930 .984501
7 1 .522456 .419458 .006253
ITEM: TIMESTEP
350
ITEM: NUMBER OF ATOMS
7
ITEM: BOX BOUNDS ss ss ss
-2.9184 3.3743
-2.6480 3.4063
-1.9628 1.9436
ITEM: ATOMS id type xs ys zs
1 1 .521095 .988994 .400515
2 1 .994163 .601332 .566386
3 1 .773354 .010348 .614018
4 1 .171819 .024359 .522448
5 1 .009025 .627314 .392986
6 1 .462549 .492331 .985509
7 1 .525764 .422733 .009762
ITEM: TIMESTEP
400
ITEM: NUMBER OF ATOMS
7
ITEM: BOX BOUNDS ss ss ss
-2.9210 3.3810
-2.6451 3.3869
-1.9661 1.9488
ITEM: ATOMS id type xs ys zs
1 1 .518686 .989477 .408483
2 1 .990842 .599924 .572453
3 1 .770249 .010487 .608454
4 1 .173499 .026905 .522082
5 1 .006276 .634596 .390591
6 1 .458314 .491335 .985197
7 1 .524100 .420702 .010222
ITEM: TIMESTEP
1
ITEM: NUMBER OF ATOMS
7
ITEM: BOX BOUNDS ss ss ss
-2.9010 3.3549
-2.6302 3.3731
-1.9550 1.9268
ITEM: ATOMS id type xs ys zs
1 1 .523616 .999546 .402046
2 1 .996861 .604891 .571715
3 1 .774533 .003342 .615254
4 1 .170804 .021223 .526050
5 1 .001919 .627056 .396705
6 1 .463892 .494469 .987923
7 1 .524337 .421682 .014227
ITEM: TIMESTEP
50
ITEM: NUMBER OF ATOMS
7
ITEM: BOX BOUNDS ss ss ss
-2.9150 3.3688
-2.6368 3.3963
-1.9550 1.9268
ITEM: ATOMS id type xs ys zs
1 1 .524309 .996185 .403044
2 1 .994200 .602166 .572210
3 1 .773334 .003847 .616641
4 1 .168588 .022515 .528867
5 1 .003484 .625996 .397659
6 1 .463987 .494482 .988363
7 1 .523429 .420624 .014012
ITEM: TIMESTEP
100
ITEM: NUMBER OF ATOMS
7
ITEM: BOX BOUNDS ss ss ss
-2.9250 3.3777
-2.6483 3.4152
-1.9550 1.9268
ITEM: ATOMS id type xs ys zs
1 1 .522006 .992556 .399363
2 1 .993517 .600213 .570367
3 1 .774332 .006291 .617225
4 1 .173112 .023501 .530046
5 1 .008835 .623743 .395175
6 1 .465511 .488856 .990293
7 1 .524975 .423026 .010796
ITEM: TIMESTEP
150
ITEM: NUMBER OF ATOMS
7
ITEM: BOX BOUNDS ss ss ss
-2.9313 3.3840
-2.6495 3.4148
-1.9550 1.9268
ITEM: ATOMS id type xs ys zs
1 1 .522217 .993436 .395550
2 1 .993225 .600644 .567034
3 1 .774653 .005621 .617157
4 1 .172571 .023743 .529196
5 1 .010899 .624521 .393378
6 1 .467469 .488958 .992417
7 1 .523388 .422620 .014391
ITEM: TIMESTEP
200
ITEM: NUMBER OF ATOMS
7
ITEM: BOX BOUNDS ss ss ss
-2.9372 3.3776
-2.6515 3.4115
-1.9553 1.9392
ITEM: ATOMS id type xs ys zs
1 1 .525908 .994420 .402124
2 1 .989843 .600989 .569881
3 1 .771524 .005680 .612585
4 1 .172393 .027747 .520728
5 1 .013115 .626036 .398418
6 1 .463156 .490818 .988651
7 1 .523630 .422426 .013771
ITEM: TIMESTEP
250
ITEM: NUMBER OF ATOMS
7
ITEM: BOX BOUNDS ss ss ss
-2.9375 3.3895
-2.6493 3.4056
-1.9610 1.9467
ITEM: ATOMS id type xs ys zs
1 1 .523019 .996382 .397453
2 1 .990707 .602943 .564171
3 1 .774293 .008782 .607464
4 1 .176780 .027931 .520105
5 1 .010420 .627202 .398176
6 1 .468827 .496473 .985364
7 1 .520667 .421632 .010426
ITEM: TIMESTEP
300
ITEM: NUMBER OF ATOMS
7
ITEM: BOX BOUNDS ss ss ss
-2.9370 3.3787
-2.6477 3.4062
-1.9597 1.9320
ITEM: ATOMS id type xs ys zs
1 1 .524996 .994572 .401263
2 1 .993231 .600946 .570541
3 1 .772754 .010525 .614253
4 1 .174084 .021275 .524616
5 1 .009917 .625706 .398619
6 1 .464666 .492915 .990593
7 1 .523090 .422684 .010919
ITEM: TIMESTEP
350
ITEM: NUMBER OF ATOMS
7
ITEM: BOX BOUNDS ss ss ss
-2.9302 3.3784
-2.6453 3.4000
-1.9640 1.9336
ITEM: ATOMS id type xs ys zs
1 1 .523703 .993523 .407195
2 1 .995321 .595913 .573181
3 1 .773288 .010784 .616263
4 1 .175186 .025477 .521798
5 1 .007916 .625311 .393368
6 1 .460992 .493615 .993611
7 1 .526598 .425672 .013238
ITEM: TIMESTEP
400
ITEM: NUMBER OF ATOMS
7
ITEM: BOX BOUNDS ss ss ss
-2.9284 3.3832
-2.6465 3.3984
-1.9706 1.9347
ITEM: ATOMS id type xs ys zs
1 1 .523032 .994053 .406960
2 1 .995645 .595398 .575669
3 1 .774109 .011798 .614060
4 1 .175236 .026806 .523862
5 1 .008498 .625970 .396275
6 1 .461600 .494560 .992760
7 1 .526106 .425459 .015258
ITEM: TIMESTEP
1
ITEM: NUMBER OF ATOMS
7
ITEM: BOX BOUNDS ss ss ss
-2.9016 3.3589
-2.6244 3.3727
-1.9533 1.9308
ITEM: ATOMS id type xs ys zs
1 1 .523341 .999294 .401231
2 1 .996271 .604773 .570641
3 1 .774008 .002128 .614254
4 1 .170247 .020450 .525117
5 1 .002378 .626839 .395959
6 1 .463577 .493724 .987556
7 1 .523903 .421218 .013593
ITEM: TIMESTEP
50
ITEM: NUMBER OF ATOMS
7
ITEM: BOX BOUNDS ss ss ss
-2.9155 3.3678
-2.6394 3.4003
-1.9533 1.9308
ITEM: ATOMS id type xs ys zs
1 1 .524706 .994915 .399279
2 1 .994000 .605183 .570839
3 1 .772439 .003732 .613916
4 1 .169604 .021269 .524884
5 1 .002814 .623818 .399699
6 1 .464034 .493004 .990607
7 1 .523410 .423304 .013841
ITEM: TIMESTEP
100
ITEM: NUMBER OF ATOMS
7
ITEM: BOX BOUNDS ss ss ss
-2.9277 3.3710
-2.6499 3.4105
-1.9533 1.9308
ITEM: ATOMS id type xs ys zs
1 1 .522701 .991789 .399640
2 1 .993858 .602697 .574573
3 1 .775856 .007698 .619306
4 1 .175271 .024615 .530089
5 1 .006601 .623716 .394104
6 1 .466227 .492079 .985908
7 1 .523803 .420673 .014094
ITEM: TIMESTEP
150
ITEM: NUMBER OF ATOMS
7
ITEM: BOX BOUNDS ss ss ss
-2.9300 3.3857
-2.6560 3.4089
-1.9533 1.9309
ITEM: ATOMS id type xs ys zs
1 1 .524425 .992370 .399703
2 1 .990204 .603748 .568486
3 1 .773225 .007547 .616353
4 1 .174320 .026649 .527082
5 1 .006255 .624946 .394374
6 1 .463478 .493342 .983348
7 1 .524988 .422262 .009559
ITEM: TIMESTEP
200
ITEM: NUMBER OF ATOMS
7
ITEM: BOX BOUNDS ss ss ss
-2.9357 3.3823
-2.6507 3.4167
-1.9566 1.9308
ITEM: ATOMS id type xs ys zs
1 1 .529302 .990111 .399893
2 1 .990698 .599048 .570359
3 1 .769145 .010073 .613501
4 1 .171772 .024236 .526010
5 1 .011044 .624504 .397337
6 1 .463478 .491384 .987604
7 1 .524626 .418804 .008355
ITEM: TIMESTEP
250
ITEM: NUMBER OF ATOMS
7
ITEM: BOX BOUNDS ss ss ss
-2.9323 3.3820
-2.6561 3.4044
-1.9545 1.9317
ITEM: ATOMS id type xs ys zs
1 1 .526948 .990879 .401415
2 1 .995095 .598087 .576380
3 1 .774525 .005103 .622300
4 1 .174787 .024609 .524009
5 1 .005849 .626572 .401194
6 1 .467099 .489727 .990849
7 1 .524234 .426167 .016014
ITEM: TIMESTEP
300
ITEM: NUMBER OF ATOMS
7
ITEM: BOX BOUNDS ss ss ss
-2.9278 3.3822
-2.6430 3.4055
-1.9557 1.9391
ITEM: ATOMS id type xs ys zs
1 1 .522452 .995535 .400685
2 1 .987033 .601413 .575332
3 1 .772484 .009984 .609318
4 1 .173168 .026588 .526905
5 1 .009310 .625876 .392943
6 1 .460447 .489149 .990229
7 1 .521043 .422018 .006557
ITEM: TIMESTEP
350
ITEM: NUMBER OF ATOMS
7
ITEM: BOX BOUNDS ss ss ss
-2.9356 3.3760
-2.6486 3.4109
-1.9606 1.9439
ITEM: ATOMS id type xs ys zs
1 1 .524486 .993520 .403974
2 1 .991187 .598549 .572245
3 1 .777094 .009320 .611597
4 1 .177537 .024744 .529308
5 1 .007530 .621744 .397710
6 1 .463892 .494219 .995835
7 1 .525507 .422656 .014063
ITEM: TIMESTEP
400
ITEM: NUMBER OF ATOMS
7
ITEM: BOX BOUNDS ss ss ss
-2.9281 3.3718
-2.6389 3.4075
-1.9613 1.9446
ITEM: ATOMS id type xs ys zs
1 1 .522744 .989573 .401403
2 1 .993933 .597093 .568168
3 1 .778221 .006904 .613378
4 1 .177828 .025163 .527256
5 1 .009575 .624059 .391063
6 1 .463858 .491444 .986551
7 1 .524194 .420762 .009652
ITEM: TIMESTEP
1
ITEM: NUMBER OF ATOMS
7
ITEM: BOX BOUNDS ss ss ss
-2.9030 3.3391
-2.6269 3.3758
-1.9426 1.9222
ITEM: ATOMS id type xs ys zs
1 1 .525297 .998754 .400639
2 1 .999073 .604772 .570622
3 1 .776398 .002513 .614303
4 1 .170961 .020852 .524815
5 1 .002435 .626460 .395168
6 1 .464952 .493703 .989623
7 1 .525608 .420974 .010986
ITEM: TIMESTEP
50
ITEM: NUMBER OF ATOMS
7
ITEM: BOX BOUNDS ss ss ss
-2.9218 3.3621
-2.6390 3.3970
-1.9426 1.9222
ITEM: ATOMS id type xs ys zs
1 1 .525428 .995313 .399060
2 1 .996310 .602951 .569112
3 1 .774526 .004740 .611172
4 1 .172318 .022860 .525938
5 1 .005091 .623486 .392937
6 1 .465864 .495355 .987307
7 1 .524017 .421412 .008694
ITEM: TIMESTEP
100
ITEM: NUMBER OF ATOMS
7
ITEM: BOX BOUNDS ss ss ss
-2.9298 3.3781
-2.6479 3.4083
-1.9426 1.9222
ITEM: ATOMS id type xs ys zs
1 1 .521608 .991936 .403334
2 1 .991388 .601240 .569515
3 1 .770936 .004556 .615491
4 1 .174078 .022911 .526374
5 1 .007445 .625593 .396828
6 1 .464039 .492399 .986473
7 1 .523595 .419211 .005435
ITEM: TIMESTEP
150
ITEM: NUMBER OF ATOMS
7
ITEM: BOX BOUNDS ss ss ss
-2.9314 3.3731
-2.6545 3.4174
-1.9426 1.9255
ITEM: ATOMS id type xs ys zs
1 1 .525920 .990096 .403301
2 1 .992143 .601612 .571461
3 1 .770145 .003833 .616301
4 1 .173732 .025759 .528203
5 1 .007619 .626790 .398489
6 1 .464230 .492541 .986992
7 1 .523594 .418819 .005524
ITEM: TIMESTEP
200
ITEM: NUMBER OF ATOMS
7
ITEM: BOX BOUNDS ss ss ss
-2.9333 3.3726
-2.6481 3.4128
-1.9507 1.9277
ITEM: ATOMS id type xs ys zs
1 1 .520801 .993108 .402520
2 1 .994960 .601102 .565871
3 1 .772343 .006047 .613365
4 1 .173707 .023506 .528092
5 1 .009279 .621185 .387680
6 1 .467235 .491520 .987833
7 1 .526428 .421264 .009664
ITEM: TIMESTEP
250
ITEM: NUMBER OF ATOMS
7
ITEM: BOX BOUNDS ss ss ss
-2.9454 3.3731
-2.6439 3.4072
-1.9522 1.9356
ITEM: ATOMS id type xs ys zs
1 1 .521606 .996733 .402305
2 1 .994329 .601951 .567490
3 1 .774595 .004589 .611946
4 1 .177302 .024118 .527216
5 1 .010766 .621243 .390028
6 1 .469650 .492756 .984596
7 1 .527985 .420948 .011282
ITEM: TIMESTEP
300
ITEM: NUMBER OF ATOMS
7
ITEM: BOX BOUNDS ss ss ss
-2.9557 3.3661
-2.6415 3.4009
-1.9581 1.9370
ITEM: ATOMS id type xs ys zs
1 1 .524634 .993741 .405122
2 1 .993786 .599832 .570969
3 1 .774548 .007798 .610513
4 1 .178992 .025971 .532762
5 1 .013681 .625329 .389224
6 1 .466872 .494754 .985715
7 1 .529891 .424264 .010383
ITEM: TIMESTEP
350
ITEM: NUMBER OF ATOMS
7
ITEM: BOX BOUNDS ss ss ss
-2.9323 3.3736
-2.6377 3.4018
-1.9566 1.9368
ITEM: ATOMS id type xs ys zs
1 1 .520785 .994366 .405791
2 1 .991525 .597043 .568124
3 1 .776079 .006463 .618484
4 1 .174761 .025964 .530138
5 1 .007232 .628328 .381646
6 1 .459292 .491237 .986220
7 1 .526272 .420079 .009903
ITEM: TIMESTEP
400
ITEM: NUMBER OF ATOMS
7
ITEM: BOX BOUNDS ss ss ss
-2.9342 3.3681
-2.6428 3.4018
-1.9651 1.9318
ITEM: ATOMS id type xs ys zs
1 1 .522632 .994656 .407629
2 1 .991207 .596782 .572352
3 1 .776980 .006754 .616069
4 1 .173004 .026291 .532881
5 1 .007457 .627462 .382337
6 1 .460339 .491638 .989207
7 1 .525296 .421222 .009256
ITEM: TIMESTEP
1
ITEM: NUMBER OF ATOMS
7
ITEM: BOX BOUNDS ss ss ss
-2.9030 3.3595
-2.6269 3.3758
-1.9506 1.9319
ITEM: ATOMS id type xs ys zs
1 1 .523346 .998812 .401285
2 1 .996198 .604170 .569954
3 1 .773714 .002561 .613744
4 1 .170646 .021055 .525028
5 1 .002429 .626616 .395234
6 1 .463740 .493751 .987200
7 1 .523961 .421169 .012896
ITEM: TIMESTEP
50
ITEM: NUMBER OF ATOMS
7
ITEM: BOX BOUNDS ss ss ss
-2.9186 3.3641
-2.6419 3.3995
-1.9506 1.9319
ITEM: ATOMS id type xs ys zs
1 1 .525118 .994174 .398399
2 1 .995165 .603268 .569121
3 1 .774821 .004879 .613057
4 1 .171607 .022937 .527002
5 1 .004967 .625526 .395101
6 1 .464231 .495318 .991155
7 1 .525487 .419096 .012415
ITEM: TIMESTEP
100
ITEM: NUMBER OF ATOMS
7
ITEM: BOX BOUNDS ss ss ss
-2.9294 3.3776
-2.6499 3.4196
-1.9506 1.9319
ITEM: ATOMS id type xs ys zs
1 1 .523070 .991551 .402296
2 1 .992797 .603156 .570056
3 1 .770230 .005782 .614320
4 1 .173918 .022798 .528040
5 1 .007335 .623472 .398563
6 1 .463887 .491953 .990027
7 1 .524920 .422020 .017189
ITEM: TIMESTEP
150
ITEM: NUMBER OF ATOMS
7
ITEM: BOX BOUNDS ss ss ss
-2.9384 3.3785
-2.6526 3.4113
-1.9506 1.9319
ITEM: ATOMS id type xs ys zs
1 1 .524469 .992243 .401689
2 1 .991384 .604130 .574188
3 1 .771320 .007613 .613719
4 1 .176983 .022179 .528333
5 1 .009780 .623983 .400024
6 1 .464828 .495286 .990203
7 1 .523747 .423903 .018924
ITEM: TIMESTEP
200
ITEM: NUMBER OF ATOMS
7
ITEM: BOX BOUNDS ss ss ss
-2.9366 3.3807
-2.6632 3.4190
-1.9522 1.9319
ITEM: ATOMS id type xs ys zs
1 1 .522717 .989255 .401565
2 1 .996432 .598347 .577306
3 1 .774179 .009015 .623071
4 1 .173870 .027786 .522167
5 1 .004515 .624380 .397184
6 1 .461361 .495073 .983457
7 1 .524677 .422188 .011693
ITEM: TIMESTEP
250
ITEM: NUMBER OF ATOMS
7
ITEM: BOX BOUNDS ss ss ss
-2.9350 3.3838
-2.6500 3.4082
-1.9596 1.9373
ITEM: ATOMS id type xs ys zs
1 1 .521810 .990875 .403595
2 1 .996000 .595273 .576288
3 1 .775594 .005740 .622588
4 1 .174405 .025467 .521736
5 1 .005022 .621960 .397401
6 1 .461550 .493850 .979717
7 1 .522554 .421464 .012725
ITEM: TIMESTEP
300
ITEM: NUMBER OF ATOMS
7
ITEM: BOX BOUNDS ss ss ss
-2.9464 3.3851
-2.6560 3.4020
-1.9653 1.9360
ITEM: ATOMS id type xs ys zs
1 1 .524191 .990947 .391099
2 1 .992657 .605038 .573139
3 1 .773737 .011131 .613186
4 1 .174210 .023574 .527906
5 1 .010717 .621350 .404146
6 1 .463580 .493548 .985710
7 1 .526062 .424278 .010399
ITEM: TIMESTEP
350
ITEM: NUMBER OF ATOMS
7
ITEM: BOX BOUNDS ss ss ss
-2.9457 3.3824
-2.6533 3.3959
-1.9669 1.9319
ITEM: ATOMS id type xs ys zs
1 1 .521191 .992683 .398560
2 1 .994960 .598678 .569896
3 1 .772840 .007986 .611784
4 1 .176637 .027435 .524440
5 1 .006075 .625872 .391588
6 1 .462880 .496054 .984178
7 1 .526602 .418725 .017161
ITEM: TIMESTEP
400
ITEM: NUMBER OF ATOMS
7
ITEM: BOX BOUNDS ss ss ss
-2.9480 3.3861
-2.6356 3.3920
-1.9766 1.9370
ITEM: ATOMS id type xs ys zs
1 1 .526110 .989977 .395804
2 1 .991820 .598429 .570255
3 1 .773311 .008910 .612465
4 1 .173112 .023290 .525824
5 1 .007040 .627737 .403188
6 1 .463342 .490828 .985824
7 1 .518830 .419292 .016553
ITEM: TIMESTEP
1
ITEM: NUMBER OF ATOMS
7
ITEM: BOX BOUNDS ss ss ss
-2.9103 3.3440
-2.6269 3.3758
-1.9569 1.9222
ITEM: ATOMS id type xs ys zs
1 1 .525306 .998807 .402820
2 1 .998930 .604767 .572265
3 1 .776109 .002513 .616136
4 1 .171896 .020833 .526377
5 1 .003494 .626580 .397070
6 1 .465530 .493999 .989412
7 1 .526028 .421129 .014877
ITEM: TIMESTEP
50
ITEM: NUMBER OF ATOMS
7
ITEM: BOX BOUNDS ss ss ss
-2.9189 3.3630
-2.6414 3.4026
-1.9569 1.9222
ITEM: ATOMS id type xs ys zs
1 1 .525467 .995022 .399104
2 1 .995542 .599975 .574290
3 1 .773599 .004794 .614180
4 1 .169109 .023757 .526869
5 1 .003545 .624056 .394517
6 1 .465284 .494538 .987036
7 1 .526765 .420619 .015596
ITEM: TIMESTEP
100
ITEM: NUMBER OF ATOMS
7
ITEM: BOX BOUNDS ss ss ss
-2.9295 3.3806
-2.6573 3.4103
-1.9569 1.9247
ITEM: ATOMS id type xs ys zs
1 1 .525373 .995305 .397248
2 1 .993623 .600798 .574168
3 1 .770945 .007204 .615608
4 1 .171027 .025854 .528235
5 1 .005092 .622886 .396851
6 1 .464500 .495989 .984428
7 1 .526951 .422045 .017505
ITEM: TIMESTEP
150
ITEM: NUMBER OF ATOMS
7
ITEM: BOX BOUNDS ss ss ss
-2.9318 3.3904
-2.6511 3.4235
-1.9569 1.9222
ITEM: ATOMS id type xs ys zs
1 1 .524114 .992023 .398981
2 1 .992344 .601595 .574139
3 1 .772424 .007411 .620365
4 1 .173540 .022667 .532348
5 1 .003836 .620489 .403292
6 1 .461085 .488536 .987772
7 1 .521305 .422382 .014832
ITEM: TIMESTEP
200
ITEM: NUMBER OF ATOMS
7
ITEM: BOX BOUNDS ss ss ss
-2.9350 3.3814
-2.6504 3.4156
-1.9569 1.9279
ITEM: ATOMS id type xs ys zs
1 1 .519788 .992177 .403174
2 1 .989327 .603328 .567241
3 1 .771028 .008118 .615982
4 1 .177177 .028133 .528789
5 1 .006183 .625971 .396703
6 1 .460923 .493863 .987636
7 1 .523320 .424104 .012589
ITEM: TIMESTEP
250
ITEM: NUMBER OF ATOMS
7
ITEM: BOX BOUNDS ss ss ss
-2.9296 3.3858
-2.6408 3.4113
-1.9613 1.9339
ITEM: ATOMS id type xs ys zs
1 1 .523562 .994183 .407769
2 1 .989584 .603448 .570978
3 1 .772174 .007548 .616659
4 1 .177695 .023893 .531563
5 1 .005833 .621650 .396679
6 1 .467195 .494699 .991179
7 1 .525856 .422169 .016060
ITEM: TIMESTEP
300
ITEM: NUMBER OF ATOMS
7
ITEM: BOX BOUNDS ss ss ss
-2.9344 3.3853
-2.6438 3.4179
-1.9621 1.9341
ITEM: ATOMS id type xs ys zs
1 1 .522156 .993834 .406871
2 1 .992292 .601594 .576588
3 1 .773220 .008368 .612371
4 1 .176248 .022152 .527456
5 1 .004442 .621890 .392307
6 1 .461701 .495332 .987875
7 1 .523247 .422752 .016376
ITEM: TIMESTEP
350
ITEM: NUMBER OF ATOMS
7
ITEM: BOX BOUNDS ss ss ss
-2.9345 3.3900
-2.6397 3.4188
-1.9624 1.9496
ITEM: ATOMS id type xs ys zs
1 1 .521771 .987592 .397404
2 1 .990460 .599372 .565961
3 1 .775130 .008321 .612683
4 1 .176266 .024195 .523640
5 1 .004714 .622555 .397201
6 1 .463958 .491482 .989007
7 1 .519279 .421687 .009908
ITEM: TIMESTEP
400
ITEM: NUMBER OF ATOMS
7
ITEM: BOX BOUNDS ss ss ss
-2.9426 3.3874
-2.6325 3.4197
-1.9632 1.9467
ITEM: ATOMS id type xs ys zs
1 1 .528006 .988398 .399400
2 1 .992261 .592330 .571812
3 1 .776177 .005896 .608334
4 1 .177927 .026211 .525265
5 1 .010136 .629580 .396494
6 1 .464891 .489664 .989084
7 1 .521496 .420949 .015249
ITEM: TIMESTEP
1
ITEM: NUMBER OF ATOMS
7
ITEM: BOX BOUNDS ss ss ss
-2.9056 3.3674
-2.6269 3.3758
-1.9567 1.9280
ITEM: ATOMS id type xs ys zs
1 1 .522719 .999028 .402553
2 1 .995079 .604478 .571331
3 1 .773044 .002359 .615237
4 1 .170873 .020915 .526237
5 1 .002863 .626812 .396763
6 1 .463349 .493884 .988048
7 1 .523257 .421065 .014566
ITEM: TIMESTEP
50
ITEM: NUMBER OF ATOMS
7
ITEM: BOX BOUNDS ss ss ss
-2.9209 3.3674
-2.6453 3.3992
-1.9567 1.9280
ITEM: ATOMS id type xs ys zs
1 1 .524909 .996925 .401224
2 1 .996908 .603511 .568974
3 1 .773264 .004613 .612131
4 1 .171398 .023624 .526063
5 1 .003564 .622745 .398016
6 1 .465533 .494624 .985630
7 1 .523215 .420651 .016322
ITEM: TIMESTEP
100
ITEM: NUMBER OF ATOMS
7
ITEM: BOX BOUNDS ss ss ss
-2.9312 3.3785
-2.6547 3.4146
-1.9567 1.9280
ITEM: ATOMS id type xs ys zs
1 1 .525945 .992602 .399525
2 1 .994311 .602054 .571377
3 1 .770638 .007492 .617019
4 1 .173880 .024496 .525732
5 1 .008809 .621835 .394399
6 1 .461329 .494765 .985008
7 1 .525572 .425261 .014671
ITEM: TIMESTEP
150
ITEM: NUMBER OF ATOMS
7
ITEM: BOX BOUNDS ss ss ss
-2.9309 3.3830
-2.6527 3.4285
-1.9567 1.9280
ITEM: ATOMS id type xs ys zs
1 1 .524398 .986322 .402134
2 1 .995814 .599129 .573718
3 1 .769175 .006950 .612319
4 1 .171640 .023627 .525708
5 1 .006399 .621901 .399708
6 1 .463950 .492571 .990145
7 1 .525349 .421549 .015273
ITEM: TIMESTEP
200
ITEM: NUMBER OF ATOMS
7
ITEM: BOX BOUNDS ss ss ss
-2.9362 3.3867
-2.6565 3.4140
-1.9567 1.9281
ITEM: ATOMS id type xs ys zs
1 1 .524832 .989503 .403465
2 1 .996504 .603405 .574931
3 1 .769797 .006558 .611212
4 1 .173649 .024426 .526852
5 1 .005968 .623707 .398337
6 1 .464394 .494193 .987473
7 1 .526006 .422983 .014323
ITEM: TIMESTEP
250
ITEM: NUMBER OF ATOMS
7
ITEM: BOX BOUNDS ss ss ss
-2.9345 3.3894
-2.6550 3.4175
-1.9567 1.9370
ITEM: ATOMS id type xs ys zs
1 1 .520969 .992402 .408149
2 1 .988461 .600407 .568221
3 1 .775101 .007842 .610322
4 1 .173975 .027391 .523919
5 1 .002238 .625922 .397628
6 1 .462035 .490406 .981584
7 1 .524233 .423986 .018244
ITEM: TIMESTEP
300
ITEM: NUMBER OF ATOMS
7
ITEM: BOX BOUNDS ss ss ss
-2.9393 3.3849
-2.6486 3.4197
-1.9567 1.9355
ITEM: ATOMS id type xs ys zs
1 1 .522587 .989490 .406108
2 1 .988676 .600293 .568992
3 1 .777560 .005007 .615793
4 1 .174175 .024649 .524244
5 1 .000724 .625341 .399657
6 1 .461640 .490352 .980628
7 1 .525458 .424454 .015720
ITEM: TIMESTEP
350
ITEM: NUMBER OF ATOMS
7
ITEM: BOX BOUNDS ss ss ss
-2.9345 3.3951
-2.6472 3.4138
-1.9585 1.9366
ITEM: ATOMS id type xs ys zs
1 1 .522843 .993565 .401617
2 1 .994430 .600556 .578535
3 1 .773003 .008356 .613666
4 1 .175950 .027554 .522616
5 1 .008236 .624478 .394803
6 1 .465459 .494187 .989031
7 1 .522697 .425303 .007029
ITEM: TIMESTEP
400
ITEM: NUMBER OF ATOMS
7
ITEM: BOX BOUNDS ss ss ss
-2.9464 3.3975
-2.6474 3.4189
-1.9667 1.9388
ITEM: ATOMS id type xs ys zs
1 1 .525287 .992803 .397260
2 1 .987812 .601107 .575662
3 1 .769055 .008940 .604395
4 1 .176889 .023876 .521477
5 1 .008647 .621049 .401057
6 1 .462857 .493684 .989147
7 1 .522738 .425424 .017202
ITEM: TIMESTEP
1
ITEM: NUMBER OF ATOMS
7
ITEM: BOX BOUNDS ss ss ss
-2.9134 3.3657
-2.6222 3.3823
-1.9462 1.9269
ITEM: ATOMS id type xs ys zs
1 1 .523821 .997809 .400999
2 1 .995279 .603462 .570350
3 1 .773490 .001777 .614402
4 1 .171954 .020203 .525258
5 1 .004194 .625364 .395186
6 1 .464327 .492841 .988491
7 1 .524099 .419915 .011733
ITEM: TIMESTEP
50
ITEM: NUMBER OF ATOMS
7
ITEM: BOX BOUNDS ss ss ss
-2.9257 3.3657
-2.6463 3.4002
-1.9462 1.9269
ITEM: ATOMS id type xs ys zs
1 1 .525183 .994207 .399435
2 1 .996533 .602640 .568197
3 1 .772332 .003599 .612975
4 1 .171528 .022376 .524087
5 1 .006652 .624435 .394055
6 1 .465358 .493380 .987205
7 1 .524520 .422625 .010106
ITEM: TIMESTEP
100
ITEM: NUMBER OF ATOMS
7
ITEM: BOX BOUNDS ss ss ss
-2.9319 3.3804
-2.6503 3.4121
-1.9462 1.9269
ITEM: ATOMS id type xs ys zs
1 1 .525362 .991407 .397316
2 1 .995848 .603785 .568266
3 1 .769538 .002642 .614503
4 1 .174246 .025004 .525916
5 1 .006620 .622804 .392720
6 1 .466186 .492027 .989676
7 1 .526109 .421389 .011489
ITEM: TIMESTEP
150
ITEM: NUMBER OF ATOMS
7
ITEM: BOX BOUNDS ss ss ss
-2.9344 3.3779
-2.6537 3.4161
-1.9462 1.9269
ITEM: ATOMS id type xs ys zs
1 1 .525537 .992399 .399581
2 1 .995212 .598545 .572930
3 1 .774847 .006958 .613739
4 1 .174855 .027052 .524450
5 1 .005814 .625538 .389468
6 1 .461393 .492856 .984117
7 1 .526135 .419906 .013803
ITEM: TIMESTEP
200
ITEM: NUMBER OF ATOMS
7
ITEM: BOX BOUNDS ss ss ss
-2.9347 3.3757
-2.6569 3.4207
-1.9462 1.9269
ITEM: ATOMS id type xs ys zs
1 1 .526946 .992079 .403501
2 1 .995857 .598802 .570949
3 1 .775470 .008954 .616199
4 1 .177460 .028866 .525318
5 1 .004812 .625174 .391198
6 1 .464406 .490607 .984973
7 1 .525393 .420627 .016416
ITEM: TIMESTEP
250
ITEM: NUMBER OF ATOMS
7
ITEM: BOX BOUNDS ss ss ss
-2.9472 3.3791
-2.6580 3.4210
-1.9574 1.9371
ITEM: ATOMS id type xs ys zs
1 1 .523954 .991822 .397923
2 1 .994621 .595737 .569963
3 1 .773274 .007690 .614699
4 1 .175992 .023595 .524549
5 1 .003673 .619748 .395294
6 1 .466174 .494216 .986068
7 1 .525703 .422635 .012242
ITEM: TIMESTEP
300
ITEM: NUMBER OF ATOMS
7
ITEM: BOX BOUNDS ss ss ss
-2.9509 3.3823
-2.6597 3.4155
-1.9601 1.9397
ITEM: ATOMS id type xs ys zs
1 1 .524769 .996759 .398052
2 1 .988970 .598784 .568644
3 1 .768345 .011709 .618777
4 1 .176666 .024650 .526796
5 1 .010401 .621535 .398581
6 1 .462175 .497927 .987163
7 1 .524834 .421878 .014397
ITEM: TIMESTEP
350
ITEM: NUMBER OF ATOMS
7
ITEM: BOX BOUNDS ss ss ss
-2.9495 3.3771
-2.6520 3.4124
-1.9609 1.9426
ITEM: ATOMS id type xs ys zs
1 1 .525412 .993509 .395030
2 1 .990845 .599718 .564379
3 1 .773278 .010873 .610063
4 1 .173485 .021040 .527522
5 1 .013287 .622314 .395863
6 1 .463221 .491196 .981397
7 1 .526369 .422018 .006957
ITEM: TIMESTEP
400
ITEM: NUMBER OF ATOMS
7
ITEM: BOX BOUNDS ss ss ss
-2.9422 3.3805
-2.6401 3.4090
-1.9714 1.9513
ITEM: ATOMS id type xs ys zs
1 1 .526477 .996727 .394145
2 1 .989885 .598478 .568250
3 1 .770923 .009419 .609100
4 1 .173417 .020101 .527467
5 1 .013232 .620470 .397745
6 1 .461832 .488725 .978934
7 1 .525386 .420701 .011513
ITEM: TIMESTEP
1
ITEM: NUMBER OF ATOMS
7
ITEM: BOX BOUNDS ss ss ss
-2.9167 3.3662
-2.6225 3.3876
-1.9552 1.9280
ITEM: ATOMS id type xs ys zs
1 1 .523907 .997126 .402206
2 1 .994829 .602904 .571305
3 1 .773435 .002065 .615495
4 1 .172312 .020034 .526285
5 1 .004567 .625112 .396292
6 1 .464288 .492519 .988005
7 1 .524680 .419694 .014048
ITEM: TIMESTEP
50
ITEM: NUMBER OF ATOMS
7
ITEM: BOX BOUNDS ss ss ss
-2.9196 3.3666
-2.6420 3.4040
-1.9552 1.9280
ITEM: ATOMS id type xs ys zs
1 1 .524755 .995571 .399712
2 1 .994702 .604772 .571578
3 1 .772715 .005127 .614011
4 1 .172154 .023370 .526387
5 1 .004869 .624779 .397496
6 1 .466208 .494126 .988818
7 1 .522199 .420163 .013616
ITEM: TIMESTEP
100
ITEM: NUMBER OF ATOMS
7
ITEM: BOX BOUNDS ss ss ss
-2.9328 3.3752
-2.6625 3.4141
-1.9552 1.9280
ITEM: ATOMS id type xs ys zs
1 1 .524963 .991705 .398890
2 1 .992901 .604004 .568766
3 1 .773413 .005412 .619787
4 1 .172296 .026637 .529172
5 1 .005411 .623295 .399187
6 1 .463073 .495622 .986531
7 1 .524979 .424561 .016668
ITEM: TIMESTEP
150
ITEM: NUMBER OF ATOMS
7
ITEM: BOX BOUNDS ss ss ss
-2.9367 3.3853
-2.6593 3.4175
-1.9552 1.9318
ITEM: ATOMS id type xs ys zs
1 1 .522440 .992355 .396739
2 1 .990999 .604482 .574906
3 1 .774813 .001979 .615901
4 1 .175678 .027960 .524064
5 1 .007529 .625061 .398580
6 1 .465859 .491626 .989612
7 1 .522223 .422831 .014753
ITEM: TIMESTEP
200
ITEM: NUMBER OF ATOMS
7
ITEM: BOX BOUNDS ss ss ss
-2.9443 3.3849
-2.6662 3.4235
-1.9552 1.9280
ITEM: ATOMS id type xs ys zs
1 1 .528914 .989352 .402053
2 1 .995620 .603715 .572172
3 1 .774089 .010940 .608780
4 1 .178461 .028639 .532217
5 1 .006977 .621719 .392204
6 1 .468820 .493443 .984353
7 1 .526556 .422514 .013710
ITEM: TIMESTEP
250
ITEM: NUMBER OF ATOMS
7
ITEM: BOX BOUNDS ss ss ss
-2.9443 3.3854
-2.6488 3.4253
-1.9552 1.9280
ITEM: ATOMS id type xs ys zs
1 1 .526865 .989626 .395741
2 1 .996275 .595859 .574342
3 1 .768977 .006881 .616537
4 1 .174336 .020604 .524049
5 1 .008561 .625130 .397726
6 1 .461639 .495320 .985606
7 1 .521944 .421963 .010663
ITEM: TIMESTEP
300
ITEM: NUMBER OF ATOMS
7
ITEM: BOX BOUNDS ss ss ss
-2.9466 3.3849
-2.6432 3.4251
-1.9604 1.9283
ITEM: ATOMS id type xs ys zs
1 1 .523729 .993819 .399894
2 1 .992819 .594499 .569316
3 1 .775340 .009806 .618218
4 1 .180346 .022759 .529117
5 1 .004214 .619676 .400880
6 1 .464918 .490862 .985351
7 1 .522376 .422797 .016119
ITEM: TIMESTEP
350
ITEM: NUMBER OF ATOMS
7
ITEM: BOX BOUNDS ss ss ss
-2.9470 3.3878
-2.6438 3.4258
-1.9690 1.9314
ITEM: ATOMS id type xs ys zs
1 1 .521821 .986968 .403026
2 1 .990567 .596401 .581676
3 1 .778191 .006417 .609223
4 1 .176512 .024995 .534123
5 1 .007234 .619412 .398370
6 1 .463579 .493372 .995414
7 1 .524081 .420318 .020348
ITEM: TIMESTEP
400
ITEM: NUMBER OF ATOMS
7
ITEM: BOX BOUNDS ss ss ss
-2.9504 3.3956
-2.6481 3.4269
-1.9593 1.9355
ITEM: ATOMS id type xs ys zs
1 1 .521227 .989043 .400096
2 1 .991519 .595438 .583969
3 1 .777391 .006576 .608747
4 1 .175455 .027020 .531321
5 1 .007667 .616256 .400302
6 1 .461534 .495725 .998574
7 1 .523367 .420775 .017771
ITEM: TIMESTEP
450
ITEM: NUMBER OF ATOMS
7
ITEM: BOX BOUNDS ss ss ss
-2.9679 3.4052
-2.6457 3.4309
-1.9663 1.9362
ITEM: ATOMS id type xs ys zs
1 1 .529489 .991797 .402561
2 1 .989004 .592394 .565805
3 1 .772865 .008457 .611685
4 1 .181123 .028300 .525230
5 1 .007223 .619141 .398959
6 1 .465636 .492248 .986933
7 1 .522192 .426811 .011681
ITEM: TIMESTEP
500
ITEM: NUMBER OF ATOMS
7
ITEM: BOX BOUNDS ss ss ss
-2.9675 3.4183
-2.6493 3.4176
-1.9567 1.9343
ITEM: ATOMS id type xs ys zs
1 1 .526616 .990759 .401240
2 1 .984772 .597665 .557596
3 1 .771360 .012267 .617749
4 1 .181757 .019895 .536945
5 1 .012717 .624372 .397981
6 1 .464393 .493397 .985183
7 1 .516613 .418679 .008521
ITEM: TIMESTEP
550
ITEM: NUMBER OF ATOMS
7
ITEM: BOX BOUNDS ss ss ss
-2.9592 3.4033
-2.6396 3.4036
-1.9653 1.9277
ITEM: ATOMS id type xs ys zs
1 1 .529776 .994958 .403639
2 1 .987648 .596619 .560825
3 1 .770811 .010694 .614835
4 1 .180132 .014245 .539882
5 1 .010441 .625643 .405003
6 1 .464424 .494208 .985930
7 1 .516452 .420690 .011960
ITEM: TIMESTEP
600
ITEM: NUMBER OF ATOMS
7
ITEM: BOX BOUNDS ss ss ss
-2.9607 3.4140
-2.6321 3.4060
-1.9625 1.9264
ITEM: ATOMS id type xs ys zs
1 1 .528417 .991881 .400030
2 1 .986796 .598863 .559275
3 1 .772113 .009030 .626926
4 1 .177414 .021403 .537074
5 1 .006537 .621743 .400554
6 1 .458899 .493897 .985503
7 1 .520471 .417718 .009985
ITEM: TIMESTEP
650
ITEM: NUMBER OF ATOMS
7
ITEM: BOX BOUNDS ss ss ss
-2.9636 3.4119
-2.6325 3.4113
-1.9808 1.9299
ITEM: ATOMS id type xs ys zs
1 1 .528072 .987309 .406630
2 1 .989671 .601457 .559990
3 1 .772816 .009709 .610070
4 1 .175214 .020962 .524263
5 1 .010205 .621656 .403840
6 1 .461750 .488251 .985274
7 1 .519356 .417566 .008613
ITEM: TIMESTEP
700
ITEM: NUMBER OF ATOMS
7
ITEM: BOX BOUNDS ss ss ss
-2.9712 3.3835
-2.6387 3.4030
-1.9712 1.9334
ITEM: ATOMS id type xs ys zs
1 1 .528116 .990951 .402247
2 1 .991411 .597422 .558238
3 1 .780875 .010277 .618001
4 1 .185779 .015736 .534388
5 1 .012435 .622910 .400972
6 1 .464557 .493537 .985776
7 1 .521111 .417860 .009248
ITEM: TIMESTEP
1
ITEM: NUMBER OF ATOMS
7
ITEM: BOX BOUNDS ss ss ss
-2.9310 3.3559
-2.6152 3.3867
-1.9597 1.8985
ITEM: ATOMS id type xs ys zs
1 1 .525454 .996969 .405626
2 1 .996801 .602827 .575836
3 1 .775331 .000498 .619786
4 1 .174206 .018913 .530633
5 1 .006668 .624773 .400190
6 1 .466342 .491997 .995538
7 1 .526539 .419482 .015318
ITEM: TIMESTEP
50
ITEM: NUMBER OF ATOMS
7
ITEM: BOX BOUNDS ss ss ss
-2.9310 3.3682
-2.6453 3.4033
-1.9597 1.9067
ITEM: ATOMS id type xs ys zs
1 1 .526084 .995267 .403654