ITEM: TIMESTEP
1
ITEM: NUMBER OF ATOMS
7
ITEM: BOX BOUNDS ss ss ss
-2.8220 3.4367
-2.6447 3.3601
-1.8677 2.0128
ITEM: ATOMS id type xs ys zs
1 1 .493586 .999445 .542284
2 1 .999542 .636742 .553243
3 1 .835321 .025373 .486068
4 1 .229101 .000813 .446332
5 1 .000653 .593460 .457943
6 1 .482460 .441815 .999186
7 1 .521489 .473243 .001498
ITEM: TIMESTEP
50
ITEM: NUMBER OF ATOMS
7
ITEM: BOX BOUNDS ss ss ss
-2.8461 3.4570
-2.6660 3.3833
-1.8885 2.0334
ITEM: ATOMS id type xs ys zs
1 1 .493146 .993759 .543817
2 1 .993430 .635811 .555106
3 1 .832842 .027354 .483519
4 1 .232241 .002720 .444503
5 1 .003276 .592207 .457687
6 1 .484820 .443407 .992979
7 1 .520618 .470510 .004037
ITEM: TIMESTEP
100
ITEM: NUMBER OF ATOMS
7
ITEM: BOX BOUNDS ss ss ss
-2.8600 3.4588
-2.6851 3.3876
-1.8944 2.0447
ITEM: ATOMS id type xs ys zs
1 1 .494447 .994001 .541329
2 1 .994620 .635492 .555585
3 1 .831661 .030048 .485797
4 1 .233722 .007305 .445020
5 1 .006624 .595289 .457265
6 1 .484458 .446483 .993750
7 1 .520036 .472433 .008151
ITEM: TIMESTEP
150
ITEM: NUMBER OF ATOMS
7
ITEM: BOX BOUNDS ss ss ss
-2.8616 3.4635
-2.6935 3.3901
-1.8988 2.0434
ITEM: ATOMS id type xs ys zs
1 1 .495816 .993566 .540962
2 1 .997755 .634825 .549458
3 1 .833758 .038213 .485168
4 1 .235118 .006819 .448466
5 1 .006249 .596757 .460959
6 1 .487592 .445370 .995470
7 1 .521605 .474847 .020582
ITEM: TIMESTEP
200
ITEM: NUMBER OF ATOMS
7
ITEM: BOX BOUNDS ss ss ss
-2.8654 3.4704
-2.6947 3.3892
-1.8985 2.0490
ITEM: ATOMS id type xs ys zs
1 1 .492535 .992094 .540941
2 1 .996023 .634076 .551776
3 1 .830809 .038757 .487187
4 1 .229035 .007610 .450054
5 1 .009238 .590149 .458724
6 1 .487235 .443721 .991219
7 1 .524111 .476073 .010893
ITEM: TIMESTEP
250
ITEM: NUMBER OF ATOMS
7
ITEM: BOX BOUNDS ss ss ss
-2.8695 3.4658
-2.6933 3.3985
-1.9054 2.0445
ITEM: ATOMS id type xs ys zs
1 1 .496483 .991120 .543857
2 1 .993595 .634111 .552341
3 1 .831556 .036232 .484844
4 1 .233700 .005200 .438870
5 1 .012193 .598493 .460671
6 1 .488225 .439813 .988397
7 1 .521156 .474464 .020010
ITEM: TIMESTEP
300
ITEM: NUMBER OF ATOMS
7
ITEM: BOX BOUNDS ss ss ss
-2.8580 3.4630
-2.7006 3.3988
-1.9089 2.0378
ITEM: ATOMS id type xs ys zs
1 1 .492326 .990382 .541100
2 1 .992238 .634308 .555091
3 1 .831322 .037954 .493471
4 1 .232042 .010781 .446800
5 1 .007744 .593734 .454408
6 1 .485009 .446094 .988022
7 1 .527125 .474212 .013522
ITEM: TIMESTEP
350
ITEM: NUMBER OF ATOMS
7
ITEM: BOX BOUNDS ss ss ss
-2.8595 3.4579
-2.7072 3.3911
-1.9109 2.0456
ITEM: ATOMS id type xs ys zs
1 1 .494094 .992941 .540081
2 1 .990049 .639010 .562639
3 1 .830956 .041851 .480319
4 1 .226212 .009523 .454692
5 1 .004357 .599679 .467034
6 1 .488581 .448098 .988967
7 1 .517438 .475379 .013270
ITEM: TIMESTEP
400
ITEM: NUMBER OF ATOMS
7
ITEM: BOX BOUNDS ss ss ss
-2.8583 3.4618
-2.7052 3.3881
-1.9222 2.0478
ITEM: ATOMS id type xs ys zs
1 1 .491308 .996082 .538423
2 1 .989346 .638987 .560887
3 1 .831238 .039736 .479492
4 1 .226138 .010278 .456655
5 1 .002427 .598723 .468109
6 1 .487435 .447570 .987841
7 1 .517528 .475302 .017259
ITEM: TIMESTEP
1
ITEM: NUMBER OF ATOMS
7
ITEM: BOX BOUNDS ss ss ss
-2.8522 3.4611
-2.6952 3.3802
-1.9223 2.0528
ITEM: ATOMS id type xs ys zs
1 1 .493679 .996325 .542891
2 1 .995650 .637626 .553919
3 1 .832880 .033228 .487974
4 1 .231932 .008823 .449345
5 1 .005534 .594632 .460130
6 1 .483135 .445359 .989114
7 1 .521991 .476127 .015163
ITEM: TIMESTEP
50
ITEM: NUMBER OF ATOMS
7
ITEM: BOX BOUNDS ss ss ss
-2.8522 3.4611
-2.6952 3.3808
-1.9223 2.0528
ITEM: ATOMS id type xs ys zs
1 1 .493873 .996570 .544017
2 1 .995504 .637831 .554764
3 1 .833313 .031660 .487056
4 1 .234859 .008372 .445489
5 1 .006019 .592788 .459901
6 1 .481630 .445646 .988791
7 1 .522910 .476353 .013529
ITEM: TIMESTEP
100
ITEM: NUMBER OF ATOMS
7
ITEM: BOX BOUNDS ss ss ss
-2.8639 3.4652
-2.6952 3.3897
-1.9223 2.0528
ITEM: ATOMS id type xs ys zs
1 1 .495355 .994035 .543051
2 1 .991909 .635171 .553683
3 1 .833568 .034706 .489146
4 1 .234489 .008452 .448235
5 1 .005042 .596462 .457838
6 1 .482157 .447866 .987880
7 1 .520299 .476235 .011166
ITEM: TIMESTEP
150
ITEM: NUMBER OF ATOMS
7
ITEM: BOX BOUNDS ss ss ss
-2.8652 3.4628
-2.6952 3.3951
-1.9223 2.0528
ITEM: ATOMS id type xs ys zs
1 1 .493356 .991640 .539165
2 1 .992043 .632360 .559752
3 1 .834498 .033556 .489184
4 1 .234788 .005913 .451104
5 1 .008950 .593996 .458674
6 1 .487006 .442182 .990922
7 1 .526003 .474283 .015093
ITEM: TIMESTEP
200
ITEM: NUMBER OF ATOMS
7
ITEM: BOX BOUNDS ss ss ss
-2.8656 3.4632
-2.7052 3.3909
-1.9223 2.0528
ITEM: ATOMS id type xs ys zs
1 1 .494907 .993742 .546271
2 1 .992641 .633515 .556257
3 1 .834357 .035447 .490606
4 1 .235821 .006060 .449253
5 1 .011220 .597601 .457597
6 1 .487517 .444852 .986197
7 1 .524791 .475849 .018109
ITEM: TIMESTEP
250
ITEM: NUMBER OF ATOMS
7
ITEM: BOX BOUNDS ss ss ss
-2.8509 3.4622
-2.6998 3.3851
-1.9223 2.0528
ITEM: ATOMS id type xs ys zs
1 1 .494475 .992142 .547294
2 1 .995536 .632217 .558465
3 1 .832336 .037552 .498720
4 1 .231045 .008426 .451607
5 1 .005920 .594073 .458916
6 1 .485179 .446237 .986538
7 1 .523822 .474701 .016103
ITEM: TIMESTEP
300
ITEM: NUMBER OF ATOMS
7
ITEM: BOX BOUNDS ss ss ss
-2.8504 3.4621
-2.7049 3.3948
-1.9149 2.0567
ITEM: ATOMS id type xs ys zs
1 1 .489790 .990649 .540786
2 1 .991638 .636189 .555451
3 1 .832775 .037994 .491936
4 1 .230830 .011857 .451288
5 1 .006521 .595452 .459869
6 1 .488370 .446491 .984547
7 1 .523935 .472271 .015071
ITEM: TIMESTEP
350
ITEM: NUMBER OF ATOMS
7
ITEM: BOX BOUNDS ss ss ss
-2.8446 3.4661
-2.7015 3.3847
-1.9149 2.0612
ITEM: ATOMS id type xs ys zs
1 1 .489035 .990957 .538331
2 1 .990539 .637373 .554199
3 1 .831807 .036333 .492421
4 1 .230115 .011377 .451572
5 1 .005232 .595325 .457491
6 1 .486817 .447166 .984254
7 1 .522682 .471325 .017136
ITEM: TIMESTEP
400
ITEM: NUMBER OF ATOMS
7
ITEM: BOX BOUNDS ss ss ss
-2.8431 3.4697
-2.6991 3.3852
-1.9169 2.0628
ITEM: ATOMS id type xs ys zs
1 1 .488889 .992180 .545303
2 1 .989639 .635133 .547986
3 1 .824607 .037692 .494039
4 1 .228199 .009072 .448254
5 1 .008244 .598998 .454067
6 1 .486122 .444232 .983627
7 1 .520382 .477047 .009799
ITEM: TIMESTEP
1
ITEM: NUMBER OF ATOMS
7
ITEM: BOX BOUNDS ss ss ss
-2.8431 3.4663
-2.6985 3.3773
-1.9149 2.0528
ITEM: ATOMS id type xs ys zs
1 1 .492748 .996788 .542573
2 1 .994614 .638242 .553116
3 1 .831974 .034092 .487160
4 1 .230486 .009405 .448241
5 1 .003995 .595113 .459352
6 1 .482018 .445963 .989005
7 1 .521008 .476828 .012849
ITEM: TIMESTEP
50
ITEM: NUMBER OF ATOMS
7
ITEM: BOX BOUNDS ss ss ss
-2.8490 3.4663
-2.6985 3.3871
-1.9149 2.0528
ITEM: ATOMS id type xs ys zs
1 1 .493846 .994969 .542163
2 1 .993943 .637132 .553454
3 1 .833498 .033741 .486527
4 1 .231789 .008150 .449219
5 1 .005894 .594368 .460021
6 1 .480738 .446757 .986877
7 1 .519839 .475163 .010773
ITEM: TIMESTEP
100
ITEM: NUMBER OF ATOMS
7
ITEM: BOX BOUNDS ss ss ss
-2.8609 3.4677
-2.6895 3.3966
-1.9149 2.0528
ITEM: ATOMS id type xs ys zs
1 1 .494616 .992811 .541797
2 1 .996316 .634548 .553433
3 1 .829733 .031682 .486109
4 1 .236660 .005408 .447337
5 1 .004452 .591639 .459870
6 1 .484284 .446849 .987740
7 1 .522053 .472584 .013967
ITEM: TIMESTEP
150
ITEM: NUMBER OF ATOMS
7
ITEM: BOX BOUNDS ss ss ss
-2.8632 3.4689
-2.6895 3.4035
-1.9149 2.0528
ITEM: ATOMS id type xs ys zs
1 1 .492785 .990014 .542531
2 1 .992377 .635514 .548956
3 1 .831928 .034166 .483699
4 1 .233784 .005144 .450709
5 1 .006274 .592327 .459243
6 1 .486823 .444232 .990654
7 1 .525230 .474970 .015658
ITEM: TIMESTEP
200
ITEM: NUMBER OF ATOMS
7
ITEM: BOX BOUNDS ss ss ss
-2.8660 3.4663
-2.6967 3.4050
-1.9149 2.0528
ITEM: ATOMS id type xs ys zs
1 1 .493817 .989401 .549586
2 1 .992100 .635251 .558621
3 1 .830529 .034315 .490864
4 1 .232352 .005731 .449750
5 1 .006484 .592281 .461017
6 1 .486591 .446389 .984511
7 1 .522534 .472786 .015114
ITEM: TIMESTEP
250
ITEM: NUMBER OF ATOMS
7
ITEM: BOX BOUNDS ss ss ss
-2.8639 3.4663
-2.7083 3.4041
-1.9149 2.0528
ITEM: ATOMS id type xs ys zs
1 1 .493358 .990838 .544432
2 1 .996505 .633828 .559516
3 1 .831390 .039406 .487423
4 1 .232541 .009145 .448849
5 1 .008326 .593024 .453325
6 1 .486476 .446836 .988561
7 1 .519482 .475305 .010209
ITEM: TIMESTEP
300
ITEM: NUMBER OF ATOMS
7
ITEM: BOX BOUNDS ss ss ss
-2.8741 3.4697
-2.7059 3.4081
-1.9149 2.0528
ITEM: ATOMS id type xs ys zs
1 1 .490266 .991084 .542211
2 1 .989765 .633253 .554592
3 1 .831022 .036503 .485706
4 1 .231649 .010731 .447994
5 1 .008439 .594897 .452122
6 1 .484586 .447825 .984726
7 1 .523556 .472598 .012493
ITEM: TIMESTEP
350
ITEM: NUMBER OF ATOMS
7
ITEM: BOX BOUNDS ss ss ss
-2.8652 3.4647
-2.7060 3.4029
-1.9149 2.0592
ITEM: ATOMS id type xs ys zs
1 1 .490558 .991680 .537173
2 1 .991984 .629569 .561219
3 1 .828183 .034730 .483030
4 1 .230668 .011801 .445931
5 1 .009663 .594471 .464527
6 1 .487835 .447586 .986724
7 1 .520728 .474279 .009901
ITEM: TIMESTEP
400
ITEM: NUMBER OF ATOMS
7
ITEM: BOX BOUNDS ss ss ss
-2.8611 3.4738
-2.7038 3.3985
-1.9149 2.0481
ITEM: ATOMS id type xs ys zs
1 1 .490180 .995089 .540032
2 1 .990381 .629027 .562755
3 1 .826205 .033224 .483337
4 1 .229313 .012230 .446647
5 1 .008118 .591627 .463713
6 1 .486914 .447383 .989453
7 1 .518168 .475839 .010178
ITEM: TIMESTEP
1
ITEM: NUMBER OF ATOMS
7
ITEM: BOX BOUNDS ss ss ss
-2.8505 3.4704
-2.6896 3.3925
-1.9104 2.0344
ITEM: ATOMS id type xs ys zs
1 1 .492792 .993920 .543891
2 1 .993792 .636202 .555658
3 1 .831339 .032486 .489149
4 1 .231304 .008318 .449481
5 1 .005471 .593001 .461075
6 1 .481862 .443625 .993281
7 1 .521153 .474890 .011924
ITEM: TIMESTEP
50
ITEM: NUMBER OF ATOMS
7
ITEM: BOX BOUNDS ss ss ss
-2.8505 3.4704
-2.6872 3.3925
-1.9104 2.0418
ITEM: ATOMS id type xs ys zs
1 1 .492266 .993961 .543958
2 1 .993723 .636924 .551645
3 1 .833024 .033140 .487938
4 1 .232442 .008003 .448622
5 1 .004858 .592913 .459623
6 1 .482760 .442179 .992676
7 1 .520629 .475765 .014499
ITEM: TIMESTEP
100
ITEM: NUMBER OF ATOMS
7
ITEM: BOX BOUNDS ss ss ss
-2.8622 3.4716
-2.6877 3.3925
-1.9082 2.0430
ITEM: ATOMS id type xs ys zs
1 1 .493667 .992734 .544639
2 1 .993216 .637731 .553411
3 1 .831368 .033759 .490251
4 1 .231702 .004866 .447538
5 1 .004806 .591143 .461207
6 1 .483537 .442902 .988111
7 1 .521769 .475615 .013363
ITEM: TIMESTEP
150
ITEM: NUMBER OF ATOMS
7
ITEM: BOX BOUNDS ss ss ss
-2.8638 3.4704
-2.6999 3.3964
-1.9035 2.0445
ITEM: ATOMS id type xs ys zs
1 1 .493167 .991318 .544299
2 1 .992738 .635225 .549283
3 1 .831686 .033207 .488104
4 1 .232288 .008779 .442189
5 1 .009111 .596008 .461268
6 1 .485528 .444550 .989321
7 1 .525606 .472703 .009633
ITEM: TIMESTEP
200
ITEM: NUMBER OF ATOMS
7
ITEM: BOX BOUNDS ss ss ss
-2.8587 3.4704
-2.6948 3.3972
-1.9035 2.0431
ITEM: ATOMS id type xs ys zs
1 1 .494366 .990461 .545210
2 1 .991344 .633749 .548744
3 1 .831053 .031857 .489692
4 1 .230830 .008748 .441605
5 1 .007138 .593508 .461052
6 1 .484479 .443652 .987870
7 1 .525499 .473222 .007434
ITEM: TIMESTEP
250
ITEM: NUMBER OF ATOMS
7
ITEM: BOX BOUNDS ss ss ss
-2.8567 3.4704
-2.6943 3.3977
-1.9035 2.0419
ITEM: ATOMS id type xs ys zs
1 1 .493791 .990046 .537605
2 1 .992280 .638162 .554657
3 1 .833014 .034888 .482385
4 1 .231359 .012674 .449244
5 1 .008368 .593139 .457133
6 1 .486923 .442757 .986554
7 1 .521583 .473726 .010597
ITEM: TIMESTEP
300
ITEM: NUMBER OF ATOMS
7
ITEM: BOX BOUNDS ss ss ss
-2.8586 3.4691
-2.6875 3.3949
-1.9102 2.0408
ITEM: ATOMS id type xs ys zs
1 1 .489977 .995555 .535753
2 1 .991212 .634679 .558823
3 1 .831013 .036631 .480959
4 1 .233407 .008381 .446747
5 1 .007325 .593393 .456478
6 1 .485779 .444680 .988558
7 1 .525718 .474965 .013213
ITEM: TIMESTEP
350
ITEM: NUMBER OF ATOMS
7
ITEM: BOX BOUNDS ss ss ss
-2.8658 3.4696
-2.6943 3.4122
-1.9170 2.0410
ITEM: ATOMS id type xs ys zs
1 1 .493873 .990237 .536325
2 1 .990051 .635442 .556494
3 1 .828330 .037253 .479273
4 1 .227261 .005794 .444758
5 1 .012065 .592845 .457828
6 1 .489380 .445296 .980412
7 1 .525495 .473014 .004998
ITEM: TIMESTEP
400
ITEM: NUMBER OF ATOMS
7
ITEM: BOX BOUNDS ss ss ss
-2.8661 3.4646
-2.7043 3.4005
-1.9228 2.0497
ITEM: ATOMS id type xs ys zs
1 1 .493799 .993962 .538120
2 1 .994905 .637614 .558285
3 1 .828620 .042388 .485684
4 1 .229031 .008827 .451562
5 1 .012972 .594520 .458250
6 1 .491319 .448253 .988063
7 1 .522562 .477414 .014152
ITEM: TIMESTEP
1
ITEM: NUMBER OF ATOMS
7
ITEM: BOX BOUNDS ss ss ss
-2.8472 3.4761
-2.6964 3.3985
-1.9156 2.0413
ITEM: ATOMS id type xs ys zs
1 1 .492344 .993059 .544262
2 1 .993194 .635680 .554849
3 1 .830402 .033348 .488928
4 1 .230461 .009326 .449766
5 1 .004365 .592980 .460744
6 1 .481823 .444199 .991852
7 1 .520087 .474841 .012935
ITEM: TIMESTEP
50
ITEM: NUMBER OF ATOMS
7
ITEM: BOX BOUNDS ss ss ss
-2.8492 3.4651
-2.6964 3.3935
-1.9156 2.0401
ITEM: ATOMS id type xs ys zs
1 1 .493722 .992634 .542351
2 1 .996655 .634052 .552557
3 1 .831112 .034785 .488897
4 1 .231011 .010990 .451976
5 1 .003849 .592808 .460400
6 1 .482072 .446380 .989010
7 1 .522074 .475717 .012517
ITEM: TIMESTEP
100
ITEM: NUMBER OF ATOMS
7
ITEM: BOX BOUNDS ss ss ss
-2.8637 3.4656
-2.6964 3.3935
-1.9156 2.0423
ITEM: ATOMS id type xs ys zs
1 1 .493707 .993254 .549792
2 1 .993647 .636535 .555503
3 1 .832569 .035703 .489955
4 1 .233146 .007871 .449802
5 1 .006472 .592224 .459151
6 1 .485856 .445124 .988921
7 1 .522224 .474164 .018598
ITEM: TIMESTEP
150
ITEM: NUMBER OF ATOMS
7
ITEM: BOX BOUNDS ss ss ss
-2.8651 3.4628
-2.6964 3.3982
-1.9156 2.0496
ITEM: ATOMS id type xs ys zs
1 1 .493263 .992157 .537153
2 1 .993622 .631011 .558425
3 1 .830722 .033112 .495274
4 1 .235356 .010257 .447529
5 1 .006539 .592425 .462757
6 1 .482533 .447439 .988187
7 1 .525715 .474619 .011618
ITEM: TIMESTEP
200
ITEM: NUMBER OF ATOMS
7
ITEM: BOX BOUNDS ss ss ss
-2.8725 3.4639
-2.7001 3.4012
-1.9143 2.0484
ITEM: ATOMS id type xs ys zs
1 1 .492770 .990930 .546850
2 1 .997027 .636189 .556864
3 1 .832947 .040164 .491154
4 1 .234980 .011026 .449829
5 1 .008466 .593095 .459098
6 1 .488812 .446724 .988411
7 1 .522155 .474385 .010843
ITEM: TIMESTEP
250
ITEM: NUMBER OF ATOMS
7
ITEM: BOX BOUNDS ss ss ss
-2.8726 3.4740
-2.7091 3.4025
-1.9143 2.0513
ITEM: ATOMS id type xs ys zs
1 1 .492104 .990267 .542224
2 1 .989862 .631290 .557121
3 1 .830949 .038493 .490497
4 1 .231877 .012423 .444696
5 1 .007983 .594676 .461323
6 1 .485786 .447784 .990414
7 1 .523664 .479097 .016076
ITEM: TIMESTEP
300
ITEM: NUMBER OF ATOMS
7
ITEM: BOX BOUNDS ss ss ss
-2.8730 3.4702
-2.7273 3.4020
-1.9126 2.0560
ITEM: ATOMS id type xs ys zs
1 1 .497509 .992756 .531638
2 1 .992328 .635818 .555588
3 1 .834501 .042472 .492962
4 1 .231105 .012956 .437279
5 1 .011935 .596920 .462239
6 1 .487425 .446779 .983249
7 1 .525154 .476503 .017883
ITEM: TIMESTEP
350
ITEM: NUMBER OF ATOMS
7
ITEM: BOX BOUNDS ss ss ss
-2.8753 3.4800
-2.7132 3.3918
-1.9139 2.0497
ITEM: ATOMS id type xs ys zs
1 1 .498437 .993656 .541657
2 1 .991400 .639863 .557279
3 1 .829236 .040111 .498081
4 1 .228068 .010638 .440864
5 1 .013069 .596321 .462539
6 1 .488340 .444577 .984423
7 1 .525045 .473243 .018708
ITEM: TIMESTEP
400
ITEM: NUMBER OF ATOMS
7
ITEM: BOX BOUNDS ss ss ss
-2.8632 3.4758
-2.7038 3.3960
-1.9120 2.0442
ITEM: ATOMS id type xs ys zs
1 1 .497509 .992900 .544064
2 1 .994240 .640762 .558511
3 1 .829473 .040037 .494679
4 1 .228872 .009807 .445457
5 1 .012156 .599978 .466284
6 1 .490448 .445667 .987514
7 1 .522431 .473704 .021053
ITEM: TIMESTEP
1
ITEM: NUMBER OF ATOMS
7
ITEM: BOX BOUNDS ss ss ss
-2.8626 3.4787
-2.6948 3.3893
-1.9120 2.0422
ITEM: ATOMS id type xs ys zs
1 1 .493257 .994782 .543002
2 1 .992903 .636521 .554575
3 1 .830776 .033706 .488218
4 1 .232500 .008875 .448861
5 1 .007014 .593659 .460015
6 1 .482603 .444473 .991940
7 1 .521247 .475208 .011974
ITEM: TIMESTEP
50
ITEM: NUMBER OF ATOMS
7
ITEM: BOX BOUNDS ss ss ss
-2.8626 3.4787
-2.6948 3.3893
-1.9120 2.0422
ITEM: ATOMS id type xs ys zs
1 1 .494483 .993999 .542873
2 1 .992230 .638793 .555910
3 1 .831212 .032456 .486912
4 1 .230968 .008101 .448282
5 1 .006441 .595222 .459345
6 1 .481642 .447976 .989559
7 1 .521297 .476556 .012543
ITEM: TIMESTEP
100
ITEM: NUMBER OF ATOMS
7
ITEM: BOX BOUNDS ss ss ss
-2.8626 3.4777
-2.6924 3.3943
-1.9120 2.0423
ITEM: ATOMS id type xs ys zs
1 1 .493528 .994986 .542288
2 1 .989770 .636588 .554608
3 1 .831989 .033721 .488604
4 1 .234154 .007971 .453064
5 1 .005796 .593489 .458080
6 1 .484563 .443693 .994786
7 1 .521422 .472953 .012966
ITEM: TIMESTEP
150
ITEM: NUMBER OF ATOMS
7
ITEM: BOX BOUNDS ss ss ss
-2.8672 3.4729
-2.6924 3.4016
-1.9120 2.0454
ITEM: ATOMS id type xs ys zs
1 1 .495092 .992056 .549449
2 1 .990629 .632258 .555969
3 1 .829692 .034551 .493639
4 1 .232602 .011264 .447540
5 1 .007878 .590419 .459771
6 1 .488073 .441283 .988358
7 1 .523850 .472876 .019790
ITEM: TIMESTEP
200
ITEM: NUMBER OF ATOMS
7
ITEM: BOX BOUNDS ss ss ss
-2.8699 3.4729
-2.6944 3.4050
-1.9120 2.0441
ITEM: ATOMS id type xs ys zs
1 1 .497064 .991962 .543362
2 1 .993298 .632239 .555295
3 1 .827779 .031783 .488051
4 1 .233574 .007121 .443447
5 1 .009649 .591850 .453887
6 1 .488655 .441163 .994694
7 1 .524160 .472656 .014840
ITEM: TIMESTEP
250
ITEM: NUMBER OF ATOMS
7
ITEM: BOX BOUNDS ss ss ss
-2.8713 3.4729
-2.7047 3.4076
-1.9120 2.0479
ITEM: ATOMS id type xs ys zs
1 1 .497929 .990011 .549158
2 1 .991098 .631409 .558864
3 1 .830398 .035900 .496794
4 1 .235118 .011990 .445771
5 1 .007770 .592666 .454339
6 1 .487425 .441755 .986650
7 1 .521454 .474360 .016819
ITEM: TIMESTEP
300
ITEM: NUMBER OF ATOMS
7
ITEM: BOX BOUNDS ss ss ss
-2.8734 3.4731
-2.7029 3.4072
-1.9120 2.0496
ITEM: ATOMS id type xs ys zs
1 1 .497790 .988236 .548558
2 1 .990172 .634654 .557622
3 1 .827513 .037060 .492357
4 1 .231475 .009003 .452990
5 1 .008513 .592174 .450075
6 1 .486471 .446565 .988022
7 1 .523245 .474492 .012236
ITEM: TIMESTEP
350
ITEM: NUMBER OF ATOMS
7
ITEM: BOX BOUNDS ss ss ss
-2.8660 3.4887
-2.7172 3.4127
-1.9120 2.0438
ITEM: ATOMS id type xs ys zs
1 1 .493025 .990506 .543618
2 1 .990382 .630304 .562670
3 1 .829213 .035622 .483395
4 1 .232937 .008400 .447964
5 1 .010133 .596402 .457212
6 1 .486824 .444675 .986253
7 1 .523196 .472137 .017962
ITEM: TIMESTEP
400
ITEM: NUMBER OF ATOMS
7
ITEM: BOX BOUNDS ss ss ss
-2.8704 3.4729
-2.7054 3.4057
-1.9120 2.0496
ITEM: ATOMS id type xs ys zs
1 1 .494062 .994391 .544055
2 1 .994224 .631196 .561343
3 1 .830924 .034344 .482574
4 1 .233092 .005221 .449947
5 1 .011236 .593933 .455776
6 1 .488038 .443246 .983868
7 1 .523411 .469521 .017864
ITEM: TIMESTEP
1
ITEM: NUMBER OF ATOMS
7
ITEM: BOX BOUNDS ss ss ss
-2.8651 3.4727
-2.7122 3.3955
-1.9120 2.0444
ITEM: ATOMS id type xs ys zs
1 1 .494139 .993685 .543043
2 1 .993794 .637356 .554326
3 1 .831242 .035987 .488032
4 1 .233019 .011877 .448691
5 1 .007197 .594253 .460168
6 1 .483313 .445885 .991013
7 1 .521909 .476215 .012096
ITEM: TIMESTEP
50
ITEM: NUMBER OF ATOMS
7
ITEM: BOX BOUNDS ss ss ss
-2.8651 3.4727
-2.7122 3.3955
-1.9120 2.0426
ITEM: ATOMS id type xs ys zs
1 1 .497082 .994291 .543761
2 1 .993752 .637804 .554596
3 1 .830579 .035364 .488045
4 1 .233715 .011277 .450406
5 1 .006498 .594390 .463914
6 1 .481533 .446091 .992269
7 1 .522756 .475953 .010606
ITEM: TIMESTEP
100
ITEM: NUMBER OF ATOMS
7
ITEM: BOX BOUNDS ss ss ss
-2.8674 3.4727
-2.7122 3.3955
-1.9120 2.0426
ITEM: ATOMS id type xs ys zs
1 1 .491311 .993108 .542942
2 1 .995577 .635538 .554920
3 1 .833292 .038682 .487656
4 1 .234328 .011626 .450886
5 1 .003170 .595249 .461865
6 1 .481846 .446392 .985611
7 1 .521414 .474602 .014793
ITEM: TIMESTEP
150
ITEM: NUMBER OF ATOMS
7
ITEM: BOX BOUNDS ss ss ss
-2.8698 3.4727
-2.7122 3.3986
-1.9120 2.0437
ITEM: ATOMS id type xs ys zs
1 1 .496695 .989311 .543398
2 1 .990221 .635728 .553887
3 1 .827889 .034283 .484978
4 1 .234817 .013287 .452649
5 1 .005114 .589808 .461878
6 1 .489746 .441425 .989300
7 1 .523238 .477647 .007537
ITEM: TIMESTEP
200
ITEM: NUMBER OF ATOMS
7
ITEM: BOX BOUNDS ss ss ss
-2.8810 3.4733
-2.7039 3.3955
-1.9120 2.0440
ITEM: ATOMS id type xs ys zs
1 1 .493929 .990798 .540831
2 1 .991099 .636545 .558888
3 1 .832948 .039674 .485032
4 1 .236719 .008225 .446468
5 1 .010863 .593826 .456609
6 1 .487535 .445690 .988137
7 1 .522628 .474596 .012443
ITEM: TIMESTEP
250
ITEM: NUMBER OF ATOMS
7
ITEM: BOX BOUNDS ss ss ss
-2.8772 3.4834
-2.7048 3.4025
-1.9120 2.0549
ITEM: ATOMS id type xs ys zs
1 1 .491459 .989538 .541317
2 1 .988515 .634540 .555101
3 1 .831354 .041288 .485854
4 1 .236092 .007679 .446369
5 1 .009692 .591770 .453684
6 1 .486968 .446363 .986389
7 1 .522625 .472280 .013116
ITEM: TIMESTEP
300
ITEM: NUMBER OF ATOMS
7
ITEM: BOX BOUNDS ss ss ss
-2.8608 3.4750
-2.6951 3.4002
-1.9120 2.0517
ITEM: ATOMS id type xs ys zs
1 1 .491478 .989721 .544529
2 1 .989217 .634578 .557940
3 1 .832209 .038462 .484644
4 1 .235538 .005092 .445994
5 1 .004395 .591213 .455422
6 1 .486445 .448851 .985906
7 1 .520965 .470112 .016389
ITEM: TIMESTEP
350
ITEM: NUMBER OF ATOMS
7
ITEM: BOX BOUNDS ss ss ss
-2.8577 3.4688
-2.6963 3.4011
-1.9120 2.0531
ITEM: ATOMS id type xs ys zs
1 1 .488031 .992464 .541939
2 1 .990202 .638759 .554295
3 1 .825451 .035562 .486694
4 1 .234052 .008322 .443001
5 1 .005464 .594667 .461975
6 1 .487846 .447605 .980552
7 1 .524232 .478655 .015380
ITEM: TIMESTEP
400
ITEM: NUMBER OF ATOMS
7
ITEM: BOX BOUNDS ss ss ss
-2.8617 3.4693
-2.7017 3.4012
-1.9172 2.0619
ITEM: ATOMS id type xs ys zs
1 1 .490730 .993348 .534304
2 1 .994613 .636829 .553183
3 1 .829727 .043005 .484044
4 1 .230635 .012188 .452546
5 1 .005678 .595820 .456964
6 1 .488743 .445125 .989566
7 1 .517826 .478521 .012803
ITEM: TIMESTEP
1
ITEM: NUMBER OF ATOMS
7
ITEM: BOX BOUNDS ss ss ss
-2.8575 3.4650
-2.6873 3.4040
-1.9111 2.0501
ITEM: ATOMS id type xs ys zs
1 1 .494067 .992185 .542291
2 1 .994848 .634807 .553387
3 1 .832294 .031834 .487036
4 1 .232632 .007580 .447792
5 1 .006144 .591644 .459637
6 1 .483307 .442881 .989163
7 1 .522143 .473471 .012123
ITEM: TIMESTEP
50
ITEM: NUMBER OF ATOMS
7
ITEM: BOX BOUNDS ss ss ss
-2.8575 3.4650
-2.6873 3.4040
-1.9111 2.0501
ITEM: ATOMS id type xs ys zs
1 1 .495241 .990433 .542323
2 1 .996243 .633452 .554935
3 1 .831932 .031861 .486635
4 1 .233265 .008889 .449351
5 1 .005240 .591884 .456635
6 1 .484492 .443873 .988828
7 1 .523031 .470906 .011652
ITEM: TIMESTEP
100
ITEM: NUMBER OF ATOMS
7
ITEM: BOX BOUNDS ss ss ss
-2.8654 3.4728
-2.6873 3.4040
-1.9111 2.0501
ITEM: ATOMS id type xs ys zs
1 1 .495014 .989413 .545109
2 1 .996015 .633514 .557338
3 1 .831753 .030355 .483535
4 1 .234597 .009417 .450889
5 1 .006829 .589755 .459062
6 1 .482515 .444219 .988213
7 1 .523195 .472002 .011960
ITEM: TIMESTEP
150
ITEM: NUMBER OF ATOMS
7
ITEM: BOX BOUNDS ss ss ss
-2.8706 3.4660
-2.6949 3.4040
-1.9111 2.0501
ITEM: ATOMS id type xs ys zs
1 1 .499183 .991926 .540097
2 1 .993059 .632840 .553138
3 1 .835105 .034055 .494652
4 1 .238275 .012642 .447030
5 1 .005792 .592905 .461501
6 1 .484909 .445651 .986849
7 1 .522435 .476423 .015389
ITEM: TIMESTEP
200
ITEM: NUMBER OF ATOMS
7
ITEM: BOX BOUNDS ss ss ss
-2.8817 3.4764
-2.6895 3.4040
-1.9111 2.0488
ITEM: ATOMS id type xs ys zs
1 1 .498066 .992444 .542561
2 1 .995168 .633904 .559079
3 1 .832829 .033925 .487229
4 1 .234969 .006812 .455983
5 1 .012436 .595395 .456196
6 1 .485520 .445761 .986272
7 1 .526538 .474542 .010600
ITEM: TIMESTEP
250
ITEM: NUMBER OF ATOMS
7
ITEM: BOX BOUNDS ss ss ss
-2.8736 3.4749
-2.7025 3.4040
-1.9111 2.0519
ITEM: ATOMS id type xs ys zs
1 1 .499611 .992810 .540044
2 1 .993003 .629979 .558927
3 1 .833447 .037134 .483784
4 1 .233794 .006196 .454712
5 1 .008921 .595518 .455371
6 1 .485519 .446841 .989539
7 1 .525786 .474795 .013694
ITEM: TIMESTEP
300
ITEM: NUMBER OF ATOMS
7
ITEM: BOX BOUNDS ss ss ss
-2.8722 3.4687
-2.6996 3.4072
-1.9111 2.0528
ITEM: ATOMS id type xs ys zs
1 1 .495271 .988994 .544333
2 1 .992924 .633826 .554614
3 1 .833345 .033707 .477504
4 1 .235463 .009166 .452397
5 1 .009868 .591143 .462808
6 1 .490090 .444817 .986708
7 1 .523659 .479290 .011318
ITEM: TIMESTEP
350
ITEM: NUMBER OF ATOMS
7
ITEM: BOX BOUNDS ss ss ss
-2.8573 3.4707
-2.6940 3.4146
-1.9111 2.0546
ITEM: ATOMS id type xs ys zs
1 1 .493043 .987134 .543998
2 1 .994495 .634265 .556368
3 1 .835988 .033870 .480985
4 1 .234512 .009353 .449418
5 1 .005377 .589660 .455394
6 1 .487484 .444604 .984134
7 1 .521909 .472373 .010412
ITEM: TIMESTEP
400
ITEM: NUMBER OF ATOMS
7
ITEM: BOX BOUNDS ss ss ss
-2.8613 3.4701
-2.6931 3.4074
-1.9111 2.0487
ITEM: ATOMS id type xs ys zs
1 1 .491698 .992659 .546302
2 1 .995042 .635208 .551952
3 1 .831870 .032313 .479818
4 1 .233705 .010203 .458177
5 1 .005145 .595908 .452270
6 1 .490483 .445740 .987774
7 1 .519733 .476211 .014418
ITEM: TIMESTEP
1
ITEM: NUMBER OF ATOMS
7
ITEM: BOX BOUNDS ss ss ss
-2.8505 3.4666
-2.7022 3.4040
-1.9111 2.0451
ITEM: ATOMS id type xs ys zs
1 1 .493156 .992272 .542886
2 1 .994597 .635578 .553726
3 1 .831813 .034582 .487991
4 1 .231642 .009942 .449002
5 1 .005054 .592940 .459907
6 1 .482571 .444214 .991184
7 1 .521460 .474774 .011581
ITEM: TIMESTEP
50
ITEM: NUMBER OF ATOMS
7
ITEM: BOX BOUNDS ss ss ss
-2.8516 3.4666
-2.7022 3.4040
-1.9111 2.0451
ITEM: ATOMS id type xs ys zs
1 1 .493211 .993075 .540415
2 1 .994862 .633892 .552364
3 1 .832026 .034739 .484752
4 1 .230137 .010004 .450647
5 1 .003210 .592939 .462357
6 1 .482985 .444271 .992070
7 1 .521979 .475280 .011476
ITEM: TIMESTEP
100
ITEM: NUMBER OF ATOMS
7
ITEM: BOX BOUNDS ss ss ss
-2.8599 3.4701
-2.7022 3.4040
-1.9111 2.0467
ITEM: ATOMS id type xs ys zs
1 1 .496795 .991197 .543140
2 1 .992175 .636570 .549040
3 1 .829013 .036477 .484114
4 1 .231265 .010723 .454727
5 1 .005705 .593415 .457434
6 1 .484392 .446549 .989795
7 1 .522657 .473956 .012257
ITEM: TIMESTEP
150
ITEM: NUMBER OF ATOMS
7
ITEM: BOX BOUNDS ss ss ss
-2.8689 3.4720
-2.6985 3.4040
-1.9111 2.0559
ITEM: ATOMS id type xs ys zs
1 1 .499494 .991840 .545589
2 1 .992590 .634883 .547142
3 1 .830808 .036865 .481497
4 1 .232661 .009546 .456152
5 1 .008139 .593692 .455565
6 1 .485042 .445968 .987208
7 1 .523938 .473585 .012308
ITEM: TIMESTEP
200
ITEM: NUMBER OF ATOMS
7
ITEM: BOX BOUNDS ss ss ss
-2.8746 3.4813
-2.7025 3.4076
-1.9111 2.0545
ITEM: ATOMS id type xs ys zs
1 1 .492418 .987238 .538917
2 1 .988090 .632885 .553285
3 1 .833755 .036787 .480845
4 1 .236129 .009691 .445999
5 1 .008783 .594244 .459150
6 1 .487094 .443363 .987744
7 1 .520125 .475691 .017471
ITEM: TIMESTEP
250
ITEM: NUMBER OF ATOMS
7
ITEM: BOX BOUNDS ss ss ss
-2.8754 3.4738
-2.7090 3.4059
-1.9111 2.0559
ITEM: ATOMS id type xs ys zs
1 1 .499096 .988549 .554578
2 1 .993869 .633233 .551058
3 1 .826899 .039167 .496622
4 1 .234695 .009710 .449678
5 1 .009431 .588467 .459060
6 1 .488027 .443481 .988912
7 1 .521396 .476525 .009696
ITEM: TIMESTEP
300
ITEM: NUMBER OF ATOMS
7
ITEM: BOX BOUNDS ss ss ss
-2.8764 3.4925
-2.7230 3.4083
-1.9111 2.0528
ITEM: ATOMS id type xs ys zs
1 1 .499288 .986639 .557153
2 1 .990889 .632088 .553087
3 1 .824649 .042022 .498988
4 1 .235674 .011009 .449478
5 1 .008717 .591330 .457832
6 1 .486929 .446925 .990617
7 1 .520971 .478055 .011787
ITEM: TIMESTEP
350
ITEM: NUMBER OF ATOMS
7
ITEM: BOX BOUNDS ss ss ss
-2.8800 3.4875
-2.7052 3.4241
-1.9122 2.0607
ITEM: ATOMS id type xs ys zs
1 1 .494532 .987215 .544525
2 1 .988983 .632857 .548046
3 1 .823258 .036638 .480326
4 1 .231600 .009847 .458050
5 1 .008944 .585842 .446591
6 1 .486790 .446626 .987384
7 1 .520613 .475169 .012415
ITEM: TIMESTEP
400
ITEM: NUMBER OF ATOMS
7
ITEM: BOX BOUNDS ss ss ss
-2.8733 3.4815
-2.7171 3.4018
-1.9111 2.0683
ITEM: ATOMS id type xs ys zs
1 1 .498555 .988945 .549157
2 1 .987626 .634711 .544047
3 1 .829301 .042126 .489805
4 1 .234468 .011579 .442183
5 1 .009039 .596276 .453482
6 1 .487677 .443185 .981037
7 1 .522378 .477439 .016883
ITEM: TIMESTEP
1
ITEM: NUMBER OF ATOMS
7
ITEM: BOX BOUNDS ss ss ss
-2.8644 3.4841
-2.7168 3.4006
-1.9139 2.0799
ITEM: ATOMS id type xs ys zs
1 1 .493062 .992780 .538768
2 1 .991829 .637240 .548914
3 1 .829963 .036625 .483708
4 1 .232697 .012250 .445157
5 1 .007391 .594238 .456028
6 1 .481995 .445947 .982351
7 1 .520733 .476392 .012276
ITEM: TIMESTEP
50
ITEM: NUMBER OF ATOMS
7
ITEM: BOX BOUNDS ss ss ss
-2.8644 3.4841
-2.7168 3.4006
-1.9139 2.0799
ITEM: ATOMS id type xs ys zs
1 1 .493146 .992435 .537184
2 1 .992766 .634798 .549521
3 1 .829717 .038627 .482320
4 1 .231789 .014015 .444950
5 1 .006883 .594738 .451689
6 1 .479918 .448221 .982478
7 1 .519431 .477000 .013145
ITEM: TIMESTEP
100
ITEM: NUMBER OF ATOMS
7
ITEM: BOX BOUNDS ss ss ss
-2.8667 3.4841
-2.7168 3.4006
-1.9139 2.0799
ITEM: ATOMS id type xs ys zs
1 1 .492580 .991471 .541365
2 1 .987166 .634015 .550350
3 1 .832211 .034997 .481832
4 1 .234708 .010923 .446209
5 1 .004950 .594129 .458430
6 1 .483633 .450743 .979345
7 1 .520488 .476710 .011977
ITEM: TIMESTEP
150
ITEM: NUMBER OF ATOMS
7
ITEM: BOX BOUNDS ss ss ss
-2.8763 3.4834
-2.7168 3.4137
-1.9139 2.0799
ITEM: ATOMS id type xs ys zs
1 1 .492760 .985877 .539278
2 1 .988915 .634353 .549420
3 1 .828227 .039305 .480373
4 1 .233539 .010647 .438991
5 1 .004694 .593362 .450627
6 1 .487605 .447862 .976392
7 1 .522664 .472311 .013808
ITEM: TIMESTEP
200
ITEM: NUMBER OF ATOMS
7
ITEM: BOX BOUNDS ss ss ss
-2.8870 3.4834
-2.7142 3.4030
-1.9139 2.0799
ITEM: ATOMS id type xs ys zs
1 1 .498237 .991020 .536573
2 1 .991861 .634330 .553272
3 1 .833366 .037550 .484056
4 1 .236293 .009325 .441125
5 1 .006046 .592383 .450529
6 1 .488013 .446134 .978563
7 1 .521825 .479772 .013973
ITEM: TIMESTEP
250
ITEM: NUMBER OF ATOMS
7
ITEM: BOX BOUNDS ss ss ss
-2.8856 3.4767
-2.7046 3.4033
-1.9074 2.0799
ITEM: ATOMS id type xs ys zs
1 1 .496508 .992235 .535245
2 1 .991583 .636084 .547306
3 1 .834404 .040213 .489410
4 1 .235070 .009382 .437573
5 1 .006308 .590546 .450860
6 1 .486333 .446270 .975379
7 1 .522130 .477951 .009394
ITEM: TIMESTEP
300
ITEM: NUMBER OF ATOMS
7
ITEM: BOX BOUNDS ss ss ss
-2.8836 3.4765
-2.7054 3.4006
-1.9075 2.0714
ITEM: ATOMS id type xs ys zs
1 1 .497612 .991063 .531548
2 1 .991482 .633042 .547065
3 1 .830610 .041047 .482503
4 1 .235099 .007519 .434067
5 1 .008821 .594226 .450646
6 1 .481862 .443704 .981913
7 1 .522575 .476257 .016749
ITEM: TIMESTEP
350
ITEM: NUMBER OF ATOMS
7
ITEM: BOX BOUNDS ss ss ss
-2.8853 3.4780
-2.7203 3.4036
-1.9127 2.0714
ITEM: ATOMS id type xs ys zs
1 1 .492961 .995484 .543838