ITEM: TIMESTEP
1
ITEM: NUMBER OF ATOMS
7
ITEM: BOX BOUNDS ss ss ss
-2.8220 3.4367
-2.6447 3.3601
-1.8677 2.0128
ITEM: ATOMS id type xs ys zs
1 1 .493254 .999294 .542160
2 1 .999283 .636781 .553461
3 1 .835045 .025559 .486041
4 1 .229024 .000615 .446144
5 1 .000670 .593353 .457574
6 1 .482674 .442104 .998948
7 1 .521668 .473250 .000963
ITEM: TIMESTEP
50
ITEM: NUMBER OF ATOMS
7
ITEM: BOX BOUNDS ss ss ss
-2.8461 3.4570
-2.6660 3.3833
-1.8885 2.0334
ITEM: ATOMS id type xs ys zs
1 1 .492831 .993388 .542154
2 1 .995376 .634826 .554079
3 1 .832195 .030392 .486090
4 1 .231099 .003170 .444094
5 1 .004436 .594238 .458841
6 1 .485446 .441113 .992067
7 1 .522061 .472421 .007727
ITEM: TIMESTEP
100
ITEM: NUMBER OF ATOMS
7
ITEM: BOX BOUNDS ss ss ss
-2.8600 3.4588
-2.6851 3.3876
-1.8944 2.0447
ITEM: ATOMS id type xs ys zs
1 1 .492439 .993830 .538469
2 1 .993499 .637114 .549296
3 1 .834920 .034529 .484503
4 1 .232877 .006284 .448937
5 1 .011241 .594821 .458000
6 1 .488957 .442864 .986457
7 1 .524300 .472104 .009535
ITEM: TIMESTEP
150
ITEM: NUMBER OF ATOMS
7
ITEM: BOX BOUNDS ss ss ss
-2.8616 3.4635
-2.6935 3.3901
-1.8988 2.0434
ITEM: ATOMS id type xs ys zs
1 1 .492006 .992982 .539168
2 1 .990802 .636344 .548387
3 1 .834170 .035229 .487319
4 1 .231045 .007392 .448461
5 1 .011357 .596279 .459642
6 1 .488121 .442761 .986616
7 1 .523510 .471953 .008201
ITEM: TIMESTEP
200
ITEM: NUMBER OF ATOMS
7
ITEM: BOX BOUNDS ss ss ss
-2.8654 3.4704
-2.6947 3.3892
-1.8985 2.0490
ITEM: ATOMS id type xs ys zs
1 1 .490293 .992265 .536144
2 1 .990303 .638092 .545676
3 1 .834816 .034983 .488795
4 1 .232045 .009224 .447453
5 1 .012109 .596121 .459410
6 1 .489869 .441823 .985982
7 1 .523613 .470378 .004126
ITEM: TIMESTEP
250
ITEM: NUMBER OF ATOMS
7
ITEM: BOX BOUNDS ss ss ss
-2.8695 3.4658
-2.6933 3.3985
-1.9054 2.0445
ITEM: ATOMS id type xs ys zs
1 1 .489694 .988991 .538679
2 1 .990608 .636693 .546075
3 1 .835085 .036526 .487511
4 1 .232407 .007415 .448633
5 1 .013723 .595382 .460246
6 1 .490347 .438615 .991339
7 1 .525005 .469627 .007368
ITEM: TIMESTEP
300
ITEM: NUMBER OF ATOMS
7
ITEM: BOX BOUNDS ss ss ss
-2.8580 3.4630
-2.7006 3.3988
-1.9089 2.0378
ITEM: ATOMS id type xs ys zs
1 1 .488757 .988534 .541662
2 1 .990820 .638534 .548065
3 1 .833270 .037052 .488534
4 1 .228717 .008492 .448319
5 1 .012444 .596371 .461334
6 1 .490059 .439287 .992781
7 1 .524931 .470517 .008210
ITEM: TIMESTEP
350
ITEM: NUMBER OF ATOMS
7
ITEM: BOX BOUNDS ss ss ss
-2.8595 3.4579
-2.7072 3.3911
-1.9109 2.0456
ITEM: ATOMS id type xs ys zs
1 1 .488386 .990735 .540083
2 1 .991621 .639069 .546579
3 1 .832607 .037000 .486353
4 1 .228321 .010388 .445825
5 1 .013024 .599776 .461730
6 1 .491051 .439971 .989626
7 1 .524061 .471144 .009007
ITEM: TIMESTEP
400
ITEM: NUMBER OF ATOMS
7
ITEM: BOX BOUNDS ss ss ss
-2.8583 3.4618
-2.7052 3.3881
-1.9222 2.0478
ITEM: ATOMS id type xs ys zs
1 1 .487139 .987648 .544403
2 1 .991640 .638776 .549241
3 1 .833274 .037648 .491189
4 1 .229539 .008065 .445192
5 1 .011659 .596485 .460123
6 1 .491637 .438775 .986816
7 1 .524582 .471540 .009825
ITEM: TIMESTEP
1
ITEM: NUMBER OF ATOMS
7
ITEM: BOX BOUNDS ss ss ss
-2.8522 3.4611
-2.6952 3.3802
-1.9223 2.0528
ITEM: ATOMS id type xs ys zs
1 1 .493750 .995959 .542978
2 1 .995404 .637683 .554014
3 1 .832588 .033571 .488233
4 1 .231821 .008901 .449260
5 1 .005462 .594753 .460418
6 1 .483298 .445264 .988889
7 1 .521961 .476041 .014677
ITEM: TIMESTEP
50
ITEM: NUMBER OF ATOMS
7
ITEM: BOX BOUNDS ss ss ss
-2.8522 3.4611
-2.6952 3.3808
-1.9223 2.0528
ITEM: ATOMS id type xs ys zs
1 1 .493703 .994384 .543873
2 1 .994462 .635937 .555743
3 1 .833243 .034700 .491636
4 1 .232316 .009391 .449248
5 1 .006434 .597762 .460140
6 1 .485227 .444422 .989298
7 1 .524283 .475578 .014148
ITEM: TIMESTEP
100
ITEM: NUMBER OF ATOMS
7
ITEM: BOX BOUNDS ss ss ss
-2.8639 3.4652
-2.6952 3.3897
-1.9223 2.0528
ITEM: ATOMS id type xs ys zs
1 1 .492842 .991384 .543412
2 1 .992303 .633231 .559362
3 1 .832570 .034125 .492783
4 1 .234035 .006327 .450267
5 1 .009825 .596048 .459080
6 1 .488268 .444429 .988762
7 1 .524609 .474250 .014633
ITEM: TIMESTEP
150
ITEM: NUMBER OF ATOMS
7
ITEM: BOX BOUNDS ss ss ss
-2.8652 3.4628
-2.6952 3.3951
-1.9223 2.0528
ITEM: ATOMS id type xs ys zs
1 1 .492436 .989925 .542874
2 1 .992989 .633861 .560482
3 1 .832834 .034688 .495156
4 1 .234892 .006292 .447556
5 1 .010736 .595466 .460137
6 1 .488642 .444023 .988228
7 1 .525326 .473620 .014828
ITEM: TIMESTEP
200
ITEM: NUMBER OF ATOMS
7
ITEM: BOX BOUNDS ss ss ss
-2.8656 3.4632
-2.7052 3.3909
-1.9223 2.0528
ITEM: ATOMS id type xs ys zs
1 1 .492980 .990947 .542176
2 1 .993589 .633880 .558903
3 1 .831447 .036545 .494309
4 1 .233324 .010371 .448504
5 1 .011989 .597781 .458858
6 1 .489586 .444267 .989716
7 1 .526057 .474229 .014733
ITEM: TIMESTEP
250
ITEM: NUMBER OF ATOMS
7
ITEM: BOX BOUNDS ss ss ss
-2.8509 3.4622
-2.6998 3.3851
-1.9223 2.0528
ITEM: ATOMS id type xs ys zs
1 1 .490770 .992310 .540898
2 1 .991933 .636363 .557235
3 1 .833611 .037935 .495889
4 1 .234062 .010576 .443176
5 1 .009941 .595797 .461639
6 1 .488757 .442966 .988068
7 1 .525719 .472778 .011766
ITEM: TIMESTEP
300
ITEM: NUMBER OF ATOMS
7
ITEM: BOX BOUNDS ss ss ss
-2.8504 3.4621
-2.7049 3.3948
-1.9149 2.0567
ITEM: ATOMS id type xs ys zs
1 1 .491463 .988593 .539711
2 1 .993345 .636634 .561870
3 1 .833181 .038809 .495553
4 1 .231304 .009378 .448883
5 1 .009541 .597424 .457888
6 1 .488363 .441116 .988247
7 1 .526292 .473718 .014341
ITEM: TIMESTEP
350
ITEM: NUMBER OF ATOMS
7
ITEM: BOX BOUNDS ss ss ss
-2.8446 3.4661
-2.7015 3.3847
-1.9149 2.0612
ITEM: ATOMS id type xs ys zs
1 1 .491799 .989132 .540930
2 1 .993072 .637920 .561174
3 1 .832805 .039107 .496866
4 1 .230418 .008134 .449009
5 1 .010715 .597448 .458422
6 1 .487678 .442369 .988421
7 1 .526527 .473133 .013107
ITEM: TIMESTEP
400
ITEM: NUMBER OF ATOMS
7
ITEM: BOX BOUNDS ss ss ss
-2.8431 3.4697
-2.6991 3.3852
-1.9169 2.0628
ITEM: ATOMS id type xs ys zs
1 1 .490127 .987992 .542013
2 1 .991896 .636753 .559568
3 1 .831995 .037204 .494910
4 1 .230437 .008333 .447926
5 1 .011632 .597605 .457390
6 1 .488165 .441078 .987114
7 1 .525513 .471021 .012028
ITEM: TIMESTEP
1
ITEM: NUMBER OF ATOMS
7
ITEM: BOX BOUNDS ss ss ss
-2.8431 3.4663
-2.6985 3.3773
-1.9149 2.0528
ITEM: ATOMS id type xs ys zs
1 1 .492617 .996487 .542149
2 1 .994606 .638183 .553221
3 1 .831668 .034124 .487258
4 1 .230511 .009443 .448238
5 1 .004000 .595273 .459426
6 1 .482147 .445756 .988845
7 1 .520826 .476569 .012852
ITEM: TIMESTEP
50
ITEM: NUMBER OF ATOMS
7
ITEM: BOX BOUNDS ss ss ss
-2.8490 3.4663
-2.6985 3.3871
-1.9149 2.0528
ITEM: ATOMS id type xs ys zs
1 1 .491137 .994065 .542351
2 1 .993936 .637360 .554675
3 1 .832179 .035403 .490714
4 1 .231038 .009702 .447927
5 1 .006872 .594147 .458196
6 1 .484183 .446198 .988810
7 1 .521680 .476243 .012053
ITEM: TIMESTEP
100
ITEM: NUMBER OF ATOMS
7
ITEM: BOX BOUNDS ss ss ss
-2.8609 3.4677
-2.6895 3.3966
-1.9149 2.0528
ITEM: ATOMS id type xs ys zs
1 1 .491689 .991876 .539127
2 1 .992019 .633649 .556214
3 1 .829592 .032596 .483655
4 1 .232438 .008042 .447844
5 1 .006996 .594988 .463408
6 1 .486702 .442271 .990377
7 1 .521693 .472819 .014942
ITEM: TIMESTEP
150
ITEM: NUMBER OF ATOMS
7
ITEM: BOX BOUNDS ss ss ss
-2.8632 3.4689
-2.6895 3.4035
-1.9149 2.0528
ITEM: ATOMS id type xs ys zs
1 1 .495640 .992876 .541760
2 1 .993138 .634707 .546811
3 1 .834098 .035555 .491343
4 1 .230791 .008053 .446995
5 1 .010160 .596582 .458845
6 1 .489305 .440250 .984878
7 1 .521651 .471821 .012671
ITEM: TIMESTEP
200
ITEM: NUMBER OF ATOMS
7
ITEM: BOX BOUNDS ss ss ss
-2.8660 3.4663
-2.6967 3.4050
-1.9149 2.0528
ITEM: ATOMS id type xs ys zs
1 1 .496342 .990305 .541703
2 1 .993523 .635883 .547534
3 1 .834467 .037034 .490460
4 1 .231429 .010581 .446512
5 1 .010062 .596088 .461395
6 1 .490818 .440400 .982936
7 1 .524430 .472365 .011447
ITEM: TIMESTEP
250
ITEM: NUMBER OF ATOMS
7
ITEM: BOX BOUNDS ss ss ss
-2.8639 3.4663
-2.7083 3.4041
-1.9149 2.0528
ITEM: ATOMS id type xs ys zs
1 1 .494487 .990766 .544665
2 1 .992745 .636891 .548305
3 1 .833458 .039480 .492341
4 1 .231491 .012230 .447772
5 1 .009911 .598113 .458208
6 1 .491984 .443886 .985051
7 1 .522718 .473252 .011573
ITEM: TIMESTEP
300
ITEM: NUMBER OF ATOMS
7
ITEM: BOX BOUNDS ss ss ss
-2.8741 3.4697
-2.7059 3.4081
-1.9149 2.0528
ITEM: ATOMS id type xs ys zs
1 1 .496319 .990115 .543909
2 1 .993468 .635707 .545871
3 1 .834604 .038083 .491804
4 1 .232222 .010943 .445676
5 1 .014591 .598686 .458809
6 1 .493525 .441893 .983034
7 1 .524622 .473560 .012853
ITEM: TIMESTEP
350
ITEM: NUMBER OF ATOMS
7
ITEM: BOX BOUNDS ss ss ss
-2.8652 3.4647
-2.7060 3.4029
-1.9149 2.0592
ITEM: ATOMS id type xs ys zs
1 1 .494678 .991718 .544769
2 1 .995832 .638115 .546282
3 1 .835273 .037025 .496342
4 1 .231056 .010071 .440994
5 1 .013933 .597814 .462251
6 1 .494256 .441915 .982071
7 1 .526915 .471978 .015146
ITEM: TIMESTEP
400
ITEM: NUMBER OF ATOMS
7
ITEM: BOX BOUNDS ss ss ss
-2.8611 3.4738
-2.7038 3.3985
-1.9149 2.0481
ITEM: ATOMS id type xs ys zs
1 1 .494570 .989369 .539651
2 1 .995869 .634863 .543616
3 1 .835807 .036582 .492681
4 1 .231517 .010029 .447215
5 1 .016332 .600710 .463938
6 1 .494930 .441166 .985645
7 1 .524300 .469653 .010771
ITEM: TIMESTEP
1
ITEM: NUMBER OF ATOMS
7
ITEM: BOX BOUNDS ss ss ss
-2.8505 3.4704
-2.6896 3.3925
-1.9104 2.0344
ITEM: ATOMS id type xs ys zs
1 1 .492874 .993960 .544177
2 1 .993953 .636074 .555261
3 1 .831308 .032635 .489020
4 1 .231279 .008000 .449676
5 1 .005155 .593187 .460919
6 1 .482443 .443846 .993411
7 1 .521040 .474602 .011793
ITEM: TIMESTEP
50
ITEM: NUMBER OF ATOMS
7
ITEM: BOX BOUNDS ss ss ss
-2.8505 3.4704
-2.6872 3.3925
-1.9104 2.0418
ITEM: ATOMS id type xs ys zs
1 1 .493149 .991698 .545505
2 1 .991486 .636461 .553637
3 1 .830245 .032512 .486778
4 1 .231032 .006135 .445672
5 1 .006687 .594353 .459074
6 1 .483283 .440895 .988395
7 1 .522781 .474926 .011560
ITEM: TIMESTEP
100
ITEM: NUMBER OF ATOMS
7
ITEM: BOX BOUNDS ss ss ss
-2.8622 3.4716
-2.6877 3.3925
-1.9082 2.0430
ITEM: ATOMS id type xs ys zs
1 1 .490239 .991894 .539095
2 1 .993600 .637878 .554949
3 1 .827458 .034936 .485472
4 1 .231197 .008767 .448812
5 1 .008287 .596135 .456880
6 1 .487084 .444216 .988110
7 1 .522834 .471873 .012089
ITEM: TIMESTEP
150
ITEM: NUMBER OF ATOMS
7
ITEM: BOX BOUNDS ss ss ss
-2.8638 3.4704
-2.6999 3.3964
-1.9035 2.0445
ITEM: ATOMS id type xs ys zs
1 1 .490932 .990641 .539300
2 1 .992714 .636946 .554005
3 1 .826933 .037290 .487156
4 1 .230085 .011261 .449815
5 1 .008948 .596837 .456150
6 1 .487686 .446054 .985274
7 1 .522571 .472437 .009230
ITEM: TIMESTEP
200
ITEM: NUMBER OF ATOMS
7
ITEM: BOX BOUNDS ss ss ss
-2.8587 3.4704
-2.6948 3.3972
-1.9035 2.0431
ITEM: ATOMS id type xs ys zs
1 1 .490501 .992150 .537163
2 1 .990680 .636150 .554088
3 1 .827245 .036086 .484443
4 1 .228222 .010198 .444355
5 1 .008104 .594559 .459066
6 1 .486912 .443541 .988885
7 1 .522845 .473566 .009240
ITEM: TIMESTEP
250
ITEM: NUMBER OF ATOMS
7
ITEM: BOX BOUNDS ss ss ss
-2.8567 3.4704
-2.6943 3.3977
-1.9035 2.0419
ITEM: ATOMS id type xs ys zs
1 1 .490736 .992150 .537571
2 1 .989907 .637565 .552014
3 1 .829040 .036891 .484120
4 1 .228078 .008699 .445265
5 1 .008404 .596233 .457507
6 1 .489313 .443176 .984988
7 1 .524443 .472803 .005814
ITEM: TIMESTEP
300
ITEM: NUMBER OF ATOMS
7
ITEM: BOX BOUNDS ss ss ss
-2.8586 3.4691
-2.6875 3.3949
-1.9102 2.0408
ITEM: ATOMS id type xs ys zs
1 1 .490634 .993044 .539558
2 1 .992854 .639464 .554060
3 1 .828078 .038456 .485976
4 1 .228913 .006685 .447735
5 1 .011114 .597415 .457987
6 1 .490205 .443262 .983818
7 1 .525180 .473926 .006399
ITEM: TIMESTEP
350
ITEM: NUMBER OF ATOMS
7
ITEM: BOX BOUNDS ss ss ss
-2.8658 3.4696
-2.6943 3.4122
-1.9170 2.0410
ITEM: ATOMS id type xs ys zs
1 1 .490705 .989782 .540529
2 1 .992330 .637609 .552227
3 1 .828620 .037336 .488249
4 1 .229070 .008817 .448142
5 1 .012503 .595107 .459915
6 1 .490576 .442405 .984940
7 1 .525274 .472770 .011232
ITEM: TIMESTEP
400
ITEM: NUMBER OF ATOMS
7
ITEM: BOX BOUNDS ss ss ss
-2.8661 3.4646
-2.7043 3.4005
-1.9228 2.0497
ITEM: ATOMS id type xs ys zs
1 1 .491533 .990766 .538776
2 1 .992083 .641309 .553355
3 1 .828926 .039693 .487128
4 1 .229648 .011309 .444744
5 1 .014258 .598684 .461399
6 1 .490818 .445285 .983732
7 1 .525473 .475206 .013259
ITEM: TIMESTEP
1
ITEM: NUMBER OF ATOMS
7
ITEM: BOX BOUNDS ss ss ss
-2.8472 3.4761
-2.6964 3.3985
-1.9156 2.0413
ITEM: ATOMS id type xs ys zs
1 1 .492199 .992992 .543810
2 1 .993083 .635849 .554923
3 1 .830497 .033698 .488804
4 1 .230679 .009086 .449593
5 1 .004648 .593078 .460837
6 1 .481740 .444040 .991721
7 1 .520321 .474736 .013066
ITEM: TIMESTEP
50
ITEM: NUMBER OF ATOMS
7
ITEM: BOX BOUNDS ss ss ss
-2.8492 3.4651
-2.6964 3.3935
-1.9156 2.0401
ITEM: ATOMS id type xs ys zs
1 1 .492636 .994563 .541107
2 1 .995113 .637833 .556390
3 1 .829702 .034615 .489831
4 1 .229763 .008216 .451720
5 1 .006206 .595275 .460098
6 1 .484262 .443736 .992881
7 1 .521307 .475669 .015010
ITEM: TIMESTEP
100
ITEM: NUMBER OF ATOMS
7
ITEM: BOX BOUNDS ss ss ss
-2.8637 3.4656
-2.6964 3.3935
-1.9156 2.0423
ITEM: ATOMS id type xs ys zs
1 1 .495749 .993938 .540206
2 1 .993107 .636624 .555861
3 1 .833136 .036529 .493059
4 1 .231756 .007727 .447958
5 1 .007414 .593342 .462563
6 1 .486595 .442886 .989102
7 1 .524778 .475644 .015408
ITEM: TIMESTEP
150
ITEM: NUMBER OF ATOMS
7
ITEM: BOX BOUNDS ss ss ss
-2.8651 3.4628
-2.6964 3.3982
-1.9156 2.0496
ITEM: ATOMS id type xs ys zs
1 1 .493939 .992061 .540719
2 1 .992874 .633805 .557708
3 1 .831897 .036137 .490635
4 1 .233062 .009707 .445518
5 1 .007448 .594349 .459949
6 1 .486909 .444832 .988435
7 1 .523694 .474753 .014620
ITEM: TIMESTEP
200
ITEM: NUMBER OF ATOMS
7
ITEM: BOX BOUNDS ss ss ss
-2.8725 3.4639
-2.7001 3.4012
-1.9143 2.0484
ITEM: ATOMS id type xs ys zs
1 1 .492830 .988475 .540474
2 1 .995481 .634263 .554508
3 1 .830766 .037735 .485883
4 1 .232446 .007907 .447551
5 1 .007633 .593212 .463292
6 1 .490406 .443636 .987151
7 1 .523693 .469832 .013253
ITEM: TIMESTEP
250
ITEM: NUMBER OF ATOMS
7
ITEM: BOX BOUNDS ss ss ss
-2.8726 3.4740
-2.7091 3.4025
-1.9143 2.0513
ITEM: ATOMS id type xs ys zs
1 1 .496029 .991338 .534414
2 1 .992338 .638033 .560033
3 1 .831619 .040236 .495089
4 1 .228308 .009255 .440635
5 1 .011754 .596736 .463930
6 1 .489573 .444194 .989013
7 1 .525617 .473683 .015905
ITEM: TIMESTEP
300
ITEM: NUMBER OF ATOMS
7
ITEM: BOX BOUNDS ss ss ss
-2.8730 3.4702
-2.7273 3.4020
-1.9126 2.0560
ITEM: ATOMS id type xs ys zs
1 1 .495456 .990585 .535939
2 1 .992702 .639367 .558550
3 1 .829283 .044083 .493933
4 1 .229310 .012129 .438670
5 1 .010951 .598246 .460710
6 1 .490881 .446295 .988748
7 1 .526459 .474448 .014886
ITEM: TIMESTEP
350
ITEM: NUMBER OF ATOMS
7
ITEM: BOX BOUNDS ss ss ss
-2.8753 3.4800
-2.7132 3.3918
-1.9139 2.0497
ITEM: ATOMS id type xs ys zs
1 1 .495480 .991798 .536736
2 1 .992556 .638448 .559431
3 1 .828677 .039946 .494575
4 1 .228027 .010858 .440595
5 1 .012846 .598584 .463455
6 1 .489066 .444978 .988008
7 1 .525369 .473501 .014995
ITEM: TIMESTEP
400
ITEM: NUMBER OF ATOMS
7
ITEM: BOX BOUNDS ss ss ss
-2.8632 3.4758
-2.7038 3.3960
-1.9120 2.0442
ITEM: ATOMS id type xs ys zs
1 1 .493405 .990230 .538653
2 1 .993603 .638681 .557067
3 1 .828440 .039886 .496614
4 1 .228263 .009204 .442445
5 1 .011993 .596326 .463607
6 1 .490167 .444143 .988357
7 1 .523992 .472740 .014471
ITEM: TIMESTEP
1
ITEM: NUMBER OF ATOMS
7
ITEM: BOX BOUNDS ss ss ss
-2.8626 3.4787
-2.6948 3.3893
-1.9120 2.0422
ITEM: ATOMS id type xs ys zs
1 1 .493211 .994511 .543265
2 1 .992663 .636708 .554343
3 1 .830547 .033467 .488176
4 1 .232446 .008821 .449016
5 1 .007046 .593843 .460278
6 1 .482799 .444577 .991465
7 1 .521277 .475317 .012141
ITEM: TIMESTEP
50
ITEM: NUMBER OF ATOMS
7
ITEM: BOX BOUNDS ss ss ss
-2.8626 3.4787
-2.6948 3.3893
-1.9120 2.0422
ITEM: ATOMS id type xs ys zs
1 1 .492183 .993020 .542960
2 1 .991659 .635202 .552942
3 1 .830578 .034055 .489920
4 1 .232615 .008196 .449503
5 1 .007990 .592905 .460883
6 1 .483787 .443705 .989594
7 1 .522240 .474839 .011013
ITEM: TIMESTEP
100
ITEM: NUMBER OF ATOMS
7
ITEM: BOX BOUNDS ss ss ss
-2.8626 3.4777
-2.6924 3.3943
-1.9120 2.0423
ITEM: ATOMS id type xs ys zs
1 1 .492997 .994493 .546211
2 1 .990611 .635191 .556633
3 1 .828385 .032615 .489929
4 1 .231733 .006161 .446259
5 1 .007614 .593725 .460373
6 1 .487400 .442969 .989747
7 1 .522891 .474231 .012527
ITEM: TIMESTEP
150
ITEM: NUMBER OF ATOMS
7
ITEM: BOX BOUNDS ss ss ss
-2.8672 3.4729
-2.6924 3.4016
-1.9120 2.0454
ITEM: ATOMS id type xs ys zs
1 1 .493822 .991200 .546362
2 1 .991011 .632894 .557026
3 1 .828357 .033072 .492596
4 1 .231816 .007899 .445377
5 1 .008111 .593410 .459999
6 1 .486830 .440256 .987130
7 1 .523304 .474811 .014118
ITEM: TIMESTEP
200
ITEM: NUMBER OF ATOMS
7
ITEM: BOX BOUNDS ss ss ss
-2.8699 3.4729
-2.6944 3.4050
-1.9120 2.0441
ITEM: ATOMS id type xs ys zs
1 1 .493007 .989958 .546266
2 1 .991463 .632937 .555135
3 1 .828677 .034336 .492090
4 1 .233494 .007604 .444867
5 1 .009498 .594616 .463737
6 1 .487166 .440813 .987872
7 1 .523481 .474594 .014178
ITEM: TIMESTEP
250
ITEM: NUMBER OF ATOMS
7
ITEM: BOX BOUNDS ss ss ss
-2.8713 3.4729
-2.7047 3.4076
-1.9120 2.0479
ITEM: ATOMS id type xs ys zs
1 1 .494420 .987330 .543467
2 1 .989449 .633836 .553094
3 1 .829094 .036378 .492700
4 1 .232853 .010148 .441377
5 1 .010060 .594360 .463245
6 1 .487600 .440050 .986892
7 1 .522187 .475792 .013476
ITEM: TIMESTEP
300
ITEM: NUMBER OF ATOMS
7
ITEM: BOX BOUNDS ss ss ss
-2.8734 3.4731
-2.7029 3.4072
-1.9120 2.0496
ITEM: ATOMS id type xs ys zs
1 1 .491691 .990056 .549433
2 1 .990818 .632538 .560082
3 1 .829261 .037707 .490359
4 1 .229806 .010097 .447448
5 1 .010296 .596171 .460322
6 1 .488696 .442531 .988231
7 1 .521694 .476185 .016387
ITEM: TIMESTEP
350
ITEM: NUMBER OF ATOMS
7
ITEM: BOX BOUNDS ss ss ss
-2.8660 3.4887
-2.7172 3.4127
-1.9120 2.0438
ITEM: ATOMS id type xs ys zs
1 1 .489866 .989461 .550435
2 1 .989308 .634566 .561498
3 1 .828180 .038350 .493070
4 1 .227217 .011248 .446045
5 1 .009550 .597258 .462682
6 1 .486347 .440840 .989341
7 1 .521669 .474494 .021739
ITEM: TIMESTEP
400
ITEM: NUMBER OF ATOMS
7
ITEM: BOX BOUNDS ss ss ss
-2.8704 3.4729
-2.7054 3.4057
-1.9120 2.0496
ITEM: ATOMS id type xs ys zs
1 1 .489990 .989284 .552143
2 1 .991694 .634372 .559477
3 1 .828660 .037460 .494431
4 1 .227534 .008613 .445854
5 1 .010292 .596173 .459750
6 1 .486830 .440896 .987234
7 1 .523887 .474535 .018795
ITEM: TIMESTEP
1
ITEM: NUMBER OF ATOMS
7
ITEM: BOX BOUNDS ss ss ss
-2.8651 3.4727
-2.7122 3.3955
-1.9120 2.0444
ITEM: ATOMS id type xs ys zs
1 1 .493811 .993472 .542926
2 1 .993588 .637092 .554080
3 1 .831342 .036245 .487884
4 1 .232927 .011705 .448851
5 1 .007554 .594364 .460038
6 1 .483523 .445644 .990935
7 1 .521963 .476309 .012092
ITEM: TIMESTEP
50
ITEM: NUMBER OF ATOMS
7
ITEM: BOX BOUNDS ss ss ss
-2.8651 3.4727
-2.7122 3.3955
-1.9120 2.0426
ITEM: ATOMS id type xs ys zs
1 1 .493524 .992773 .543826
2 1 .993251 .636790 .555752
3 1 .830867 .038556 .487571
4 1 .233356 .010346 .448629
5 1 .008407 .595114 .459446
6 1 .484875 .445777 .989727
7 1 .522544 .474153 .011565
ITEM: TIMESTEP
100
ITEM: NUMBER OF ATOMS
7
ITEM: BOX BOUNDS ss ss ss
-2.8674 3.4727
-2.7122 3.3955
-1.9120 2.0426
ITEM: ATOMS id type xs ys zs
1 1 .492281 .992370 .541357
2 1 .991589 .636506 .557333
3 1 .830120 .040082 .486061
4 1 .234689 .011787 .444701
5 1 .010126 .594433 .460167
6 1 .485974 .446074 .991915
7 1 .522337 .476359 .011657
ITEM: TIMESTEP
150
ITEM: NUMBER OF ATOMS
7
ITEM: BOX BOUNDS ss ss ss
-2.8698 3.4727
-2.7122 3.3986
-1.9120 2.0437
ITEM: ATOMS id type xs ys zs
1 1 .490701 .991100 .540383
2 1 .990340 .636549 .556073
3 1 .831940 .039731 .487580
4 1 .234754 .011039 .444739
5 1 .011199 .595264 .462576
6 1 .486179 .445851 .991219
7 1 .523814 .476610 .014477
ITEM: TIMESTEP
200
ITEM: NUMBER OF ATOMS
7
ITEM: BOX BOUNDS ss ss ss
-2.8810 3.4733
-2.7039 3.3955
-1.9120 2.0440
ITEM: ATOMS id type xs ys zs
1 1 .490394 .991554 .539796
2 1 .990549 .636870 .556764
3 1 .832178 .038694 .487172
4 1 .234398 .011556 .444060
5 1 .012088 .596057 .461336
6 1 .488750 .445914 .991777
7 1 .524167 .476537 .014737
ITEM: TIMESTEP
250
ITEM: NUMBER OF ATOMS
7
ITEM: BOX BOUNDS ss ss ss
-2.8772 3.4834
-2.7048 3.4025
-1.9120 2.0549
ITEM: ATOMS id type xs ys zs
1 1 .485936 .992240 .542399
2 1 .985544 .637513 .552254
3 1 .830573 .038395 .485414
4 1 .232259 .010414 .443459
5 1 .011024 .594779 .461737
6 1 .487199 .445404 .986160
7 1 .524011 .474358 .012982
ITEM: TIMESTEP
300
ITEM: NUMBER OF ATOMS
7
ITEM: BOX BOUNDS ss ss ss
-2.8608 3.4750
-2.6951 3.4002
-1.9120 2.0517
ITEM: ATOMS id type xs ys zs
1 1 .483626 .992839 .540145
2 1 .986943 .639232 .553589
3 1 .830540 .036587 .485125
4 1 .230497 .009462 .445714
5 1 .010730 .594939 .461529
6 1 .486956 .445415 .985213
7 1 .522101 .474166 .013937
ITEM: TIMESTEP
350
ITEM: NUMBER OF ATOMS
7
ITEM: BOX BOUNDS ss ss ss
-2.8577 3.4688
-2.6963 3.4011
-1.9120 2.0531
ITEM: ATOMS id type xs ys zs
1 1 .481466 .994228 .542303
2 1 .986805 .640049 .551419
3 1 .829747 .036536 .481515
4 1 .230559 .012162 .447850
5 1 .009678 .595160 .461861
6 1 .488739 .444365 .984904
7 1 .522664 .474558 .012510
ITEM: TIMESTEP
400
ITEM: NUMBER OF ATOMS
7
ITEM: BOX BOUNDS ss ss ss
-2.8617 3.4693
-2.7017 3.4012
-1.9172 2.0619
ITEM: ATOMS id type xs ys zs
1 1 .481417 .993822 .540081
2 1 .988780 .640533 .554139
3 1 .829546 .036216 .482681
4 1 .230695 .012786 .447961
5 1 .010375 .598033 .464219
6 1 .489204 .445352 .984545
7 1 .522412 .475454 .013839
ITEM: TIMESTEP
1
ITEM: NUMBER OF ATOMS
7
ITEM: BOX BOUNDS ss ss ss
-2.8575 3.4650
-2.6873 3.4040
-1.9111 2.0501
ITEM: ATOMS id type xs ys zs
1 1 .493879 .992089 .542108
2 1 .994795 .634741 .553156
3 1 .832186 .032190 .487103
4 1 .232322 .007600 .448026
5 1 .006263 .591905 .459234
6 1 .483427 .442808 .989516
7 1 .522024 .473493 .011935
ITEM: TIMESTEP
50
ITEM: NUMBER OF ATOMS
7
ITEM: BOX BOUNDS ss ss ss
-2.8575 3.4650
-2.6873 3.4040
-1.9111 2.0501
ITEM: ATOMS id type xs ys zs
1 1 .493207 .991630 .545247
2 1 .993511 .633896 .555084
3 1 .831066 .034807 .487733
4 1 .233083 .008834 .449164
5 1 .007238 .592768 .463359
6 1 .485104 .443609 .987770
7 1 .521919 .474810 .012002
ITEM: TIMESTEP
100
ITEM: NUMBER OF ATOMS
7
ITEM: BOX BOUNDS ss ss ss
-2.8654 3.4728
-2.6873 3.4040
-1.9111 2.0501
ITEM: ATOMS id type xs ys zs
1 1 .493612 .991149 .542429
2 1 .990899 .632494 .557028
3 1 .831093 .035285 .491034
4 1 .233680 .008113 .450448
5 1 .007591 .593310 .462801
6 1 .486042 .443869 .991585
7 1 .522090 .473204 .012885
ITEM: TIMESTEP
150
ITEM: NUMBER OF ATOMS
7
ITEM: BOX BOUNDS ss ss ss
-2.8706 3.4660
-2.6949 3.4040
-1.9111 2.0501
ITEM: ATOMS id type xs ys zs
1 1 .493350 .990686 .544752
2 1 .992208 .633324 .550895
3 1 .831534 .035410 .485070
4 1 .233641 .009927 .445637
5 1 .010157 .593377 .462845
6 1 .487985 .444026 .990988
7 1 .523468 .473620 .013747
ITEM: TIMESTEP
200
ITEM: NUMBER OF ATOMS
7
ITEM: BOX BOUNDS ss ss ss
-2.8817 3.4764
-2.6895 3.4040
-1.9111 2.0488
ITEM: ATOMS id type xs ys zs
1 1 .492411 .989868 .547471
2 1 .991412 .632461 .550882
3 1 .831013 .035089 .484911
4 1 .234613 .007248 .450285
5 1 .012519 .593627 .463556
6 1 .489219 .444067 .990202
7 1 .524126 .473672 .012948
ITEM: TIMESTEP
250
ITEM: NUMBER OF ATOMS
7
ITEM: BOX BOUNDS ss ss ss
-2.8736 3.4749
-2.7025 3.4040
-1.9111 2.0519
ITEM: ATOMS id type xs ys zs
1 1 .493052 .991120 .548534
2 1 .991908 .632551 .550902
3 1 .830256 .036266 .485306
4 1 .233609 .010127 .446426
5 1 .012592 .595282 .463790
6 1 .489542 .443720 .986287
7 1 .523774 .473068 .013101
ITEM: TIMESTEP
300
ITEM: NUMBER OF ATOMS
7
ITEM: BOX BOUNDS ss ss ss
-2.8722 3.4687
-2.6996 3.4072
-1.9111 2.0528
ITEM: ATOMS id type xs ys zs
1 1 .491609 .991296 .546682
2 1 .991844 .633884 .551838
3 1 .832014 .036225 .487257
4 1 .234116 .007838 .449239
5 1 .012696 .594833 .458528
6 1 .491974 .442766 .987313
7 1 .524925 .472606 .015312
ITEM: TIMESTEP
350
ITEM: NUMBER OF ATOMS
7
ITEM: BOX BOUNDS ss ss ss
-2.8573 3.4707
-2.6940 3.4146
-1.9111 2.0546
ITEM: ATOMS id type xs ys zs
1 1 .488911 .990802 .547344
2 1 .990497 .633670 .552235
3 1 .833279 .035374 .486661
4 1 .232252 .005962 .450066
5 1 .012020 .594342 .457835
6 1 .491231 .440329 .986725
7 1 .523572 .471167 .014092
ITEM: TIMESTEP
400
ITEM: NUMBER OF ATOMS
7
ITEM: BOX BOUNDS ss ss ss
-2.8613 3.4701
-2.6931 3.4074
-1.9111 2.0487
ITEM: ATOMS id type xs ys zs
1 1 .491288 .989433 .548250
2 1 .992752 .634145 .556534
3 1 .831998 .036424 .489692
4 1 .232600 .007489 .446825
5 1 .011655 .595174 .459261
6 1 .491515 .439427 .989180
7 1 .523728 .471857 .016244
ITEM: TIMESTEP
1
ITEM: NUMBER OF ATOMS
7
ITEM: BOX BOUNDS ss ss ss
-2.8505 3.4666
-2.7022 3.4040
-1.9111 2.0451
ITEM: ATOMS id type xs ys zs
1 1 .493186 .992119 .542764
2 1 .994538 .635630 .553828
3 1 .831849 .034587 .487773
4 1 .231409 .009996 .448557
5 1 .005162 .592900 .459797
6 1 .482739 .444136 .990732
7 1 .521345 .474796 .011915
ITEM: TIMESTEP
50
ITEM: NUMBER OF ATOMS
7
ITEM: BOX BOUNDS ss ss ss
-2.8516 3.4666
-2.7022 3.4040
-1.9111 2.0451
ITEM: ATOMS id type xs ys zs
1 1 .493136 .992032 .542863
2 1 .992722 .634933 .554609
3 1 .831281 .035244 .487607
4 1 .231977 .009011 .447135
5 1 .005015 .594132 .458909
6 1 .484118 .443609 .989399
7 1 .520696 .474378 .012131
ITEM: TIMESTEP
100
ITEM: NUMBER OF ATOMS
7
ITEM: BOX BOUNDS ss ss ss
-2.8599 3.4701
-2.7022 3.4040
-1.9111 2.0467
ITEM: ATOMS id type xs ys zs
1 1 .494321 .990875 .544237
2 1 .991338 .635229 .554359
3 1 .830821 .036339 .485793
4 1 .230236 .009734 .450394
5 1 .007956 .592430 .458838
6 1 .485515 .444603 .993419
7 1 .522548 .474250 .011198
ITEM: TIMESTEP
150
ITEM: NUMBER OF ATOMS
7
ITEM: BOX BOUNDS ss ss ss
-2.8689 3.4720
-2.6985 3.4040
-1.9111 2.0559
ITEM: ATOMS id type xs ys zs
1 1 .496138 .988439 .548962
2 1 .995358 .633844 .552537
3 1 .828909 .036936 .492647
4 1 .232180 .007505 .444593
5 1 .008710 .592914 .460121
6 1 .488085 .441861 .991703
7 1 .521899 .473653 .010654
ITEM: TIMESTEP
200
ITEM: NUMBER OF ATOMS
7
ITEM: BOX BOUNDS ss ss ss
-2.8746 3.4813
-2.7025 3.4076
-1.9111 2.0545
ITEM: ATOMS id type xs ys zs
1 1 .496050 .987787 .550743
2 1 .993104 .632467 .549955
3 1 .828721 .037126 .495532
4 1 .232404 .007362 .446530
5 1 .010417 .592114 .460579
6 1 .488298 .441945 .991262
7 1 .523527 .474964 .010731
ITEM: TIMESTEP
250
ITEM: NUMBER OF ATOMS
7
ITEM: BOX BOUNDS ss ss ss
-2.8754 3.4738
-2.7090 3.4059
-1.9111 2.0559
ITEM: ATOMS id type xs ys zs
1 1 .497155 .986398 .549287
2 1 .993939 .634360 .549515
3 1 .829354 .037996 .490772
4 1 .231408 .007724 .447770
5 1 .012321 .590599 .464289
6 1 .489564 .444349 .992331
7 1 .522701 .472819 .010983
ITEM: TIMESTEP
300
ITEM: NUMBER OF ATOMS
7
ITEM: BOX BOUNDS ss ss ss
-2.8764 3.4925
-2.7230 3.4083
-1.9111 2.0528
ITEM: ATOMS id type xs ys zs
1 1 .492671 .988988 .541935
2 1 .990867 .633531 .552980
3 1 .827433 .041112 .484034
4 1 .230848 .014098 .451019
5 1 .012326 .593654 .460829
6 1 .487462 .445922 .989012
7 1 .523066 .475204 .015917
ITEM: TIMESTEP
350
ITEM: NUMBER OF ATOMS
7
ITEM: BOX BOUNDS ss ss ss
-2.8800 3.4875
-2.7052 3.4241
-1.9122 2.0607
ITEM: ATOMS id type xs ys zs
1 1 .496851 .982772 .550364
2 1 .991902 .630533 .548837
3 1 .828603 .041282 .493056
4 1 .234238 .008425 .442035
5 1 .015883 .589583 .463625
6 1 .489856 .440307 .996438
7 1 .524365 .471609 .014388
ITEM: TIMESTEP
400
ITEM: NUMBER OF ATOMS
7
ITEM: BOX BOUNDS ss ss ss
-2.8733 3.4815
-2.7171 3.4018
-1.9111 2.0683
ITEM: ATOMS id type xs ys zs
1 1 .498006 .986222 .549327
2 1 .992549 .634553 .548916
3 1 .829754 .042441 .495357
4 1 .232979 .011803 .440321
5 1 .015524 .592037 .462107
6 1 .489617 .442709 .996503
7 1 .524958 .474615 .013537
ITEM: TIMESTEP
1
ITEM: NUMBER OF ATOMS
7
ITEM: BOX BOUNDS ss ss ss
-2.8644 3.4841
-2.7168 3.4006
-1.9139 2.0799
ITEM: ATOMS id type xs ys zs
1 1 .492916 .992666 .538390
2 1 .991811 .636876 .549315
3 1 .829923 .036888 .483832
4 1 .232427 .012390 .445076
5 1 .007344 .594232 .456163
6 1 .482559 .445752 .982153
7 1 .520979 .476288 .012484
ITEM: TIMESTEP
50
ITEM: NUMBER OF ATOMS
7
ITEM: BOX BOUNDS ss ss ss
-2.8644 3.4841
-2.7168 3.4006
-1.9139 2.0799
ITEM: ATOMS id type xs ys zs
1 1 .492404 .989778 .538517
2 1 .989975 .637849 .548914
3 1 .830124 .038580 .484195
4 1 .233155 .011954 .440290
5 1 .005755 .594340 .454494
6 1 .483915 .446295 .979864
7 1 .520998 .475836 .012537
ITEM: TIMESTEP
100
ITEM: NUMBER OF ATOMS
7
ITEM: BOX BOUNDS ss ss ss
-2.8667 3.4841
-2.7168 3.4006
-1.9139 2.0799
ITEM: ATOMS id type xs ys zs
1 1 .490777 .990923 .538716
2 1 .989951 .638134 .548884
3 1 .831742 .039306 .484712
4 1 .232127 .010300 .437367
5 1 .007592 .594254 .453134
6 1 .484719 .446749 .978419
7 1 .521734 .475129 .011107
ITEM: TIMESTEP
150
ITEM: NUMBER OF ATOMS
7
ITEM: BOX BOUNDS ss ss ss
-2.8763 3.4834
-2.7168 3.4137
-1.9139 2.0799
ITEM: ATOMS id type xs ys zs
1 1 .491051 .988750 .540482
2 1 .988979 .636238 .550398
3 1 .831533 .038778 .484397
4 1 .233110 .009765 .435730
5 1 .007215 .592351 .451310
6 1 .485897 .443893 .976027
7 1 .523841 .473717 .012029
ITEM: TIMESTEP
200
ITEM: NUMBER OF ATOMS
7
ITEM: BOX BOUNDS ss ss ss
-2.8870 3.4834
-2.7142 3.4030
-1.9139 2.0799
ITEM: ATOMS id type xs ys zs
1 1 .494633 .990390 .536636
2 1 .987954 .635674 .549943
3 1 .829555 .038302 .483477
4 1 .235108 .012208 .434864
5 1 .011156 .594514 .454485
6 1 .489582 .447140 .975782
7 1 .524386 .475000 .011732
ITEM: TIMESTEP
250
ITEM: NUMBER OF ATOMS
7
ITEM: BOX BOUNDS ss ss ss
-2.8856 3.4767
-2.7046 3.4033
-1.9074 2.0799
ITEM: ATOMS id type xs ys zs
1 1 .491639 .990825 .537458
2 1 .990250 .637436 .550915
3 1 .833856 .038340 .485528
4 1 .235610 .007945 .438806
5 1 .009732 .592608 .452023
6 1 .490460 .445553 .977043
7 1 .525205 .476460 .011540
ITEM: TIMESTEP
300
ITEM: NUMBER OF ATOMS
7
ITEM: BOX BOUNDS ss ss ss
-2.8836 3.4765
-2.7054 3.4006
-1.9075 2.0714
ITEM: ATOMS id type xs ys zs
1 1 .493605 .989653 .537245
2 1 .991463 .635471 .549690
3 1 .830539 .038061 .478802
4 1 .232976 .010223 .436682
5 1 .012551 .595981 .450466
6 1 .486570 .444994 .977197
7 1 .523370 .474727 .009192
ITEM: TIMESTEP
350
ITEM: NUMBER OF ATOMS
7
ITEM: BOX BOUNDS ss ss ss
-2.8853 3.4780
-2.7203 3.4036
-1.9127 2.0714
ITEM: ATOMS id type xs ys zs
1 1 .491412 .989341 .540067