ITEM: TIMESTEP
1
ITEM: NUMBER OF ATOMS
7
ITEM: BOX BOUNDS ss ss ss
-2.8220 3.4367
-2.6447 3.3601
-1.8677 2.0128
ITEM: ATOMS id type xs ys zs
1 1 .493315 .999390 .542206
2 1 .999403 .636796 .553423
3 1 .835098 .025445 .485992
4 1 .229089 .000626 .446198
5 1 .000582 .593278 .457547
6 1 .482508 .442118 .998990
7 1 .521612 .473267 .000936
ITEM: TIMESTEP
50
ITEM: NUMBER OF ATOMS
7
ITEM: BOX BOUNDS ss ss ss
-2.8461 3.4570
-2.6660 3.3833
-1.8885 2.0334
ITEM: ATOMS id type xs ys zs
1 1 .493872 .995433 .541985
2 1 .995781 .635206 .552772
3 1 .833005 .029077 .486009
4 1 .231463 .003922 .446846
5 1 .004110 .592394 .457792
6 1 .483115 .442703 .993394
7 1 .521963 .473434 .006951
ITEM: TIMESTEP
100
ITEM: NUMBER OF ATOMS
7
ITEM: BOX BOUNDS ss ss ss
-2.8600 3.4588
-2.6851 3.3876
-1.8944 2.0447
ITEM: ATOMS id type xs ys zs
1 1 .494621 .994109 .541420
2 1 .994576 .635036 .551991
3 1 .832401 .033327 .485279
4 1 .233129 .006319 .446205
5 1 .006124 .593552 .456888
6 1 .485297 .444466 .990086
7 1 .523315 .474674 .009573
ITEM: TIMESTEP
150
ITEM: NUMBER OF ATOMS
7
ITEM: BOX BOUNDS ss ss ss
-2.8616 3.4635
-2.6935 3.3901
-1.8988 2.0434
ITEM: ATOMS id type xs ys zs
1 1 .494110 .993194 .542034
2 1 .993485 .634805 .553344
3 1 .831368 .035467 .485883
4 1 .232747 .007246 .447084
5 1 .006767 .594097 .457686
6 1 .486220 .444904 .989988
7 1 .523010 .475201 .011180
ITEM: TIMESTEP
200
ITEM: NUMBER OF ATOMS
7
ITEM: BOX BOUNDS ss ss ss
-2.8654 3.4704
-2.6947 3.3892
-1.8985 2.0490
ITEM: ATOMS id type xs ys zs
1 1 .493320 .993297 .540950
2 1 .992033 .635225 .552809
3 1 .830484 .036390 .485619
4 1 .232157 .007236 .446681
5 1 .008060 .594554 .457186
6 1 .486925 .444658 .987869
7 1 .522633 .475228 .011093
ITEM: TIMESTEP
250
ITEM: NUMBER OF ATOMS
7
ITEM: BOX BOUNDS ss ss ss
-2.8695 3.4658
-2.6933 3.3985
-1.9054 2.0445
ITEM: ATOMS id type xs ys zs
1 1 .493213 .991868 .541994
2 1 .992098 .634711 .554647
3 1 .830795 .036390 .487671
4 1 .231560 .006516 .448405
5 1 .009324 .594295 .459860
6 1 .488213 .443014 .988402
7 1 .522896 .474088 .012889
ITEM: TIMESTEP
300
ITEM: NUMBER OF ATOMS
7
ITEM: BOX BOUNDS ss ss ss
-2.8580 3.4630
-2.7006 3.3988
-1.9089 2.0378
ITEM: ATOMS id type xs ys zs
1 1 .491809 .991394 .543131
2 1 .992154 .635403 .556323
3 1 .830529 .037793 .489022
4 1 .229571 .007545 .449649
5 1 .008025 .595439 .462579
6 1 .487862 .442926 .990087
7 1 .521950 .474361 .013389
ITEM: TIMESTEP
350
ITEM: NUMBER OF ATOMS
7
ITEM: BOX BOUNDS ss ss ss
-2.8595 3.4579
-2.7072 3.3911
-1.9109 2.0456
ITEM: ATOMS id type xs ys zs
1 1 .491652 .991981 .542184
2 1 .992884 .636762 .555319
3 1 .831314 .038919 .488043
4 1 .229775 .008957 .448965
5 1 .009111 .597146 .462548
6 1 .489127 .443652 .988448
7 1 .522761 .474950 .012950
ITEM: TIMESTEP
400
ITEM: NUMBER OF ATOMS
7
ITEM: BOX BOUNDS ss ss ss
-2.8583 3.4618
-2.7052 3.3881
-1.9222 2.0478
ITEM: ATOMS id type xs ys zs
1 1 .490273 .991638 .542597
2 1 .991996 .637286 .555202
3 1 .831137 .038510 .488858
4 1 .229391 .009006 .450089
5 1 .010129 .597727 .463518
6 1 .489634 .443045 .988227
7 1 .523021 .474243 .014230
ITEM: TIMESTEP
1
ITEM: NUMBER OF ATOMS
7
ITEM: BOX BOUNDS ss ss ss
-2.8522 3.4611
-2.6952 3.3802
-1.9223 2.0528
ITEM: ATOMS id type xs ys zs
1 1 .493825 .996087 .543031
2 1 .995538 .637710 .553986
3 1 .832650 .033465 .488158
4 1 .231887 .008939 .449316
5 1 .005352 .594691 .460395
6 1 .483111 .445296 .988937
7 1 .521879 .476083 .014647
ITEM: TIMESTEP
50
ITEM: NUMBER OF ATOMS
7
ITEM: BOX BOUNDS ss ss ss
-2.8522 3.4611
-2.6952 3.3808
-1.9223 2.0528
ITEM: ATOMS id type xs ys zs
1 1 .494140 .995923 .543175
2 1 .995253 .637220 .553836
3 1 .832733 .033641 .487908
4 1 .232108 .008709 .449374
5 1 .004964 .594499 .460137
6 1 .483119 .445583 .988749
7 1 .521995 .476206 .015234
ITEM: TIMESTEP
100
ITEM: NUMBER OF ATOMS
7
ITEM: BOX BOUNDS ss ss ss
-2.8639 3.4652
-2.6952 3.3897
-1.9223 2.0528
ITEM: ATOMS id type xs ys zs
1 1 .494519 .993926 .543220
2 1 .993640 .635294 .554005
3 1 .832435 .034536 .487611
4 1 .233573 .008124 .448990
5 1 .006594 .593769 .459918
6 1 .485111 .445205 .987848
7 1 .522776 .475424 .016133
ITEM: TIMESTEP
150
ITEM: NUMBER OF ATOMS
7
ITEM: BOX BOUNDS ss ss ss
-2.8652 3.4628
-2.6952 3.3951
-1.9223 2.0528
ITEM: ATOMS id type xs ys zs
1 1 .494371 .992659 .543219
2 1 .993404 .634078 .555262
3 1 .832803 .035234 .488337
4 1 .233954 .007514 .449008
5 1 .007372 .593985 .459607
6 1 .486664 .444731 .987258
7 1 .523442 .474915 .016434
ITEM: TIMESTEP
200
ITEM: NUMBER OF ATOMS
7
ITEM: BOX BOUNDS ss ss ss
-2.8656 3.4632
-2.7052 3.3909
-1.9223 2.0528
ITEM: ATOMS id type xs ys zs
1 1 .494035 .992311 .543148
2 1 .992732 .634256 .558001
3 1 .832789 .036638 .490845
4 1 .234415 .008684 .449468
5 1 .009284 .596084 .459020
6 1 .487743 .445385 .987658
7 1 .524253 .475715 .015809
ITEM: TIMESTEP
250
ITEM: NUMBER OF ATOMS
7
ITEM: BOX BOUNDS ss ss ss
-2.8509 3.4622
-2.6998 3.3851
-1.9223 2.0528
ITEM: ATOMS id type xs ys zs
1 1 .492573 .992638 .543282
2 1 .992778 .634326 .558704
3 1 .832287 .035925 .492050
4 1 .232686 .007869 .449555
5 1 .007874 .596787 .458769
6 1 .487166 .444770 .988061
7 1 .523540 .475191 .015593
ITEM: TIMESTEP
300
ITEM: NUMBER OF ATOMS
7
ITEM: BOX BOUNDS ss ss ss
-2.8504 3.4621
-2.7049 3.3948
-1.9149 2.0567
ITEM: ATOMS id type xs ys zs
1 1 .492240 .990725 .541817
2 1 .993045 .634034 .556728
3 1 .831999 .037142 .491067
4 1 .231990 .008850 .448353
5 1 .008393 .596592 .457326
6 1 .487872 .444237 .987011
7 1 .523572 .474380 .013409
ITEM: TIMESTEP
350
ITEM: NUMBER OF ATOMS
7
ITEM: BOX BOUNDS ss ss ss
-2.8446 3.4661
-2.7015 3.3847
-1.9149 2.0612
ITEM: ATOMS id type xs ys zs
1 1 .491058 .992070 .541269
2 1 .992567 .635491 .555993
3 1 .831231 .037080 .490680
4 1 .230608 .008313 .448475
5 1 .007894 .597600 .456721
6 1 .487734 .444320 .985652
7 1 .523044 .474568 .013176
ITEM: TIMESTEP
400
ITEM: NUMBER OF ATOMS
7
ITEM: BOX BOUNDS ss ss ss
-2.8431 3.4697
-2.6991 3.3852
-1.9169 2.0628
ITEM: ATOMS id type xs ys zs
1 1 .490371 .991390 .541162
2 1 .992212 .635916 .556907
3 1 .830680 .037121 .491164
4 1 .229776 .007951 .448844
5 1 .008133 .597371 .456662
6 1 .487676 .443590 .985455
7 1 .523122 .473951 .013485
ITEM: TIMESTEP
1
ITEM: NUMBER OF ATOMS
7
ITEM: BOX BOUNDS ss ss ss
-2.8431 3.4663
-2.6985 3.3773
-1.9149 2.0528
ITEM: ATOMS id type xs ys zs
1 1 .492689 .996568 .542189
2 1 .994718 .638206 .553159
3 1 .831729 .033998 .487206
4 1 .230588 .009474 .448296
5 1 .003906 .595198 .459397
6 1 .481964 .445806 .988919
7 1 .520755 .476592 .012828
ITEM: TIMESTEP
50
ITEM: NUMBER OF ATOMS
7
ITEM: BOX BOUNDS ss ss ss
-2.8490 3.4663
-2.6985 3.3871
-1.9149 2.0528
ITEM: ATOMS id type xs ys zs
1 1 .493538 .995017 .542341
2 1 .994530 .636812 .552975
3 1 .832005 .034015 .486980
4 1 .231562 .009280 .448409
5 1 .004423 .594088 .459134
6 1 .482317 .445445 .988732
7 1 .521247 .476058 .013429
ITEM: TIMESTEP
100
ITEM: NUMBER OF ATOMS
7
ITEM: BOX BOUNDS ss ss ss
-2.8609 3.4677
-2.6895 3.3966
-1.9149 2.0528
ITEM: ATOMS id type xs ys zs
1 1 .494566 .993437 .542239
2 1 .993181 .634471 .553130
3 1 .831854 .033472 .486615
4 1 .233010 .007234 .448050
5 1 .006085 .592511 .458479
6 1 .484305 .444255 .987756
7 1 .522240 .474983 .014935
ITEM: TIMESTEP
150
ITEM: NUMBER OF ATOMS
7
ITEM: BOX BOUNDS ss ss ss
-2.8632 3.4689
-2.6895 3.4035
-1.9149 2.0528
ITEM: ATOMS id type xs ys zs
1 1 .494893 .992797 .542176
2 1 .992335 .633340 .553446
3 1 .831321 .034302 .486728
4 1 .232963 .006588 .447482
5 1 .006485 .591844 .458379
6 1 .485494 .443865 .986826
7 1 .522290 .474743 .015938
ITEM: TIMESTEP
200
ITEM: NUMBER OF ATOMS
7
ITEM: BOX BOUNDS ss ss ss
-2.8660 3.4663
-2.6967 3.4050
-1.9149 2.0528
ITEM: ATOMS id type xs ys zs
1 1 .495057 .992358 .542374
2 1 .992320 .633407 .554050
3 1 .831270 .036128 .486945
4 1 .233143 .007618 .447643
5 1 .007169 .592554 .458405
6 1 .486760 .444520 .986530
7 1 .522533 .475249 .016004
ITEM: TIMESTEP
250
ITEM: NUMBER OF ATOMS
7
ITEM: BOX BOUNDS ss ss ss
-2.8639 3.4663
-2.7083 3.4041
-1.9149 2.0528
ITEM: ATOMS id type xs ys zs
1 1 .494286 .991887 .541970
2 1 .992307 .633944 .554180
3 1 .830826 .038130 .487338
4 1 .232096 .009538 .447925
5 1 .007201 .594019 .458341
6 1 .487420 .445278 .986177
7 1 .522149 .475972 .015667
ITEM: TIMESTEP
300
ITEM: NUMBER OF ATOMS
7
ITEM: BOX BOUNDS ss ss ss
-2.8741 3.4697
-2.7059 3.4081
-1.9149 2.0528
ITEM: ATOMS id type xs ys zs
1 1 .494609 .990888 .542056
2 1 .992162 .633644 .552539
3 1 .831168 .037634 .488015
4 1 .232580 .009293 .447991
5 1 .009439 .594608 .458265
6 1 .489132 .444115 .985176
7 1 .522699 .474899 .014996
ITEM: TIMESTEP
350
ITEM: NUMBER OF ATOMS
7
ITEM: BOX BOUNDS ss ss ss
-2.8652 3.4647
-2.7060 3.4029
-1.9149 2.0592
ITEM: ATOMS id type xs ys zs
1 1 .494823 .991477 .541959
2 1 .993407 .635208 .549000
3 1 .832719 .038148 .489046
4 1 .231730 .009762 .446850
5 1 .009204 .596981 .457302
6 1 .490259 .443962 .982328
7 1 .522786 .474665 .013801
ITEM: TIMESTEP
400
ITEM: NUMBER OF ATOMS
7
ITEM: BOX BOUNDS ss ss ss
-2.8611 3.4738
-2.7038 3.3985
-1.9149 2.0481
ITEM: ATOMS id type xs ys zs
1 1 .494047 .991713 .544058
2 1 .992562 .636111 .548305
3 1 .832424 .038184 .492057
4 1 .231211 .009770 .447166
5 1 .009979 .598469 .458540
6 1 .490499 .443644 .984237
7 1 .522313 .474310 .012754
ITEM: TIMESTEP
1
ITEM: NUMBER OF ATOMS
7
ITEM: BOX BOUNDS ss ss ss
-2.8505 3.4704
-2.6896 3.3925
-1.9104 2.0344
ITEM: ATOMS id type xs ys zs
1 1 .492965 .994078 .544185
2 1 .994073 .636082 .555223
3 1 .831382 .032497 .488889
4 1 .231340 .008001 .449749
5 1 .005073 .593118 .460914
6 1 .482257 .443885 .993513
7 1 .520975 .474635 .011747
ITEM: TIMESTEP
50
ITEM: NUMBER OF ATOMS
7
ITEM: BOX BOUNDS ss ss ss
-2.8505 3.4704
-2.6872 3.3925
-1.9104 2.0418
ITEM: ATOMS id type xs ys zs
1 1 .493397 .994117 .543331
2 1 .993944 .635602 .553994
3 1 .831458 .032101 .487623
4 1 .231592 .007454 .449091
5 1 .004615 .592717 .459769
6 1 .482022 .444101 .991551
7 1 .521002 .474686 .012280
ITEM: TIMESTEP
100
ITEM: NUMBER OF ATOMS
7
ITEM: BOX BOUNDS ss ss ss
-2.8622 3.4716
-2.6877 3.3925
-1.9082 2.0430
ITEM: ATOMS id type xs ys zs
1 1 .494479 .993676 .543164
2 1 .992767 .634860 .553860
3 1 .831537 .033132 .486880
4 1 .233066 .007273 .448584
5 1 .006465 .592786 .458871
6 1 .484054 .444594 .990483
7 1 .522065 .475162 .012651
ITEM: TIMESTEP
150
ITEM: NUMBER OF ATOMS
7
ITEM: BOX BOUNDS ss ss ss
-2.8638 3.4704
-2.6999 3.3964
-1.9035 2.0445
ITEM: ATOMS id type xs ys zs
1 1 .494259 .992657 .542051
2 1 .992418 .635214 .553430
3 1 .831229 .036066 .485453
4 1 .233136 .009236 .447934
5 1 .007113 .593370 .456933
6 1 .485993 .445414 .989091
7 1 .522567 .475901 .011440
ITEM: TIMESTEP
200
ITEM: NUMBER OF ATOMS
7
ITEM: BOX BOUNDS ss ss ss
-2.8587 3.4704
-2.6948 3.3972
-1.9035 2.0431
ITEM: ATOMS id type xs ys zs
1 1 .492675 .992058 .540907
2 1 .992327 .635413 .553609
3 1 .829982 .035871 .484558
4 1 .231683 .008526 .448512
5 1 .007027 .593316 .455734
6 1 .486733 .444989 .988622
7 1 .522814 .475011 .010871
ITEM: TIMESTEP
250
ITEM: NUMBER OF ATOMS
7
ITEM: BOX BOUNDS ss ss ss
-2.8567 3.4704
-2.6943 3.3977
-1.9035 2.0419
ITEM: ATOMS id type xs ys zs
1 1 .491218 .991808 .539316
2 1 .991978 .635529 .554197
3 1 .829006 .036230 .483929
4 1 .230411 .008756 .448774
5 1 .007229 .594037 .455531
6 1 .486983 .445210 .988677
7 1 .522947 .474481 .010562
ITEM: TIMESTEP
300
ITEM: NUMBER OF ATOMS
7
ITEM: BOX BOUNDS ss ss ss
-2.8586 3.4691
-2.6875 3.3949
-1.9102 2.0408
ITEM: ATOMS id type xs ys zs
1 1 .490611 .992497 .539444
2 1 .991626 .635622 .555678
3 1 .828868 .035526 .484426
4 1 .229998 .007569 .449619
5 1 .007912 .594085 .456828
6 1 .487721 .444714 .988542
7 1 .523070 .474187 .011559
ITEM: TIMESTEP
350
ITEM: NUMBER OF ATOMS
7
ITEM: BOX BOUNDS ss ss ss
-2.8658 3.4696
-2.6943 3.4122
-1.9170 2.0410
ITEM: ATOMS id type xs ys zs
1 1 .490911 .990065 .540113
2 1 .991286 .634701 .557007
3 1 .828660 .037023 .484895
4 1 .230422 .008378 .451225
5 1 .009861 .593142 .457782
6 1 .488981 .443665 .988186
7 1 .523678 .473925 .012546
ITEM: TIMESTEP
400
ITEM: NUMBER OF ATOMS
7
ITEM: BOX BOUNDS ss ss ss
-2.8661 3.4646
-2.7043 3.4005
-1.9228 2.0497
ITEM: ATOMS id type xs ys zs
1 1 .491285 .992191 .539740
2 1 .992194 .637160 .556654
3 1 .828992 .039186 .484358
4 1 .230202 .009813 .452300
5 1 .010950 .595513 .457431
6 1 .490014 .445340 .985846
7 1 .524379 .475920 .013552
ITEM: TIMESTEP
1
ITEM: NUMBER OF ATOMS
7
ITEM: BOX BOUNDS ss ss ss
-2.8472 3.4761
-2.6964 3.3985
-1.9156 2.0413
ITEM: ATOMS id type xs ys zs
1 1 .492267 .993100 .543843
2 1 .993180 .635864 .554845
3 1 .830552 .033551 .488714
4 1 .230743 .009110 .449696
5 1 .004559 .592984 .460820
6 1 .481558 .444068 .991804
7 1 .520265 .474755 .013025
ITEM: TIMESTEP
50
ITEM: NUMBER OF ATOMS
7
ITEM: BOX BOUNDS ss ss ss
-2.8492 3.4651
-2.6964 3.3935
-1.9156 2.0401
ITEM: ATOMS id type xs ys zs
1 1 .493804 .994046 .544173
2 1 .994866 .636046 .554716
3 1 .832182 .033512 .488505
4 1 .231666 .008943 .450072
5 1 .004338 .593255 .460669
6 1 .482170 .444853 .992022
7 1 .521299 .475400 .013559
ITEM: TIMESTEP
100
ITEM: NUMBER OF ATOMS
7
ITEM: BOX BOUNDS ss ss ss
-2.8637 3.4656
-2.6964 3.3935
-1.9156 2.0423
ITEM: ATOMS id type xs ys zs
1 1 .495270 .993550 .544223
2 1 .993972 .635110 .554776
3 1 .832304 .034441 .488159
4 1 .233492 .008533 .449621
5 1 .005979 .593218 .460012
6 1 .484033 .445571 .990766
7 1 .522524 .475639 .014453
ITEM: TIMESTEP
150
ITEM: NUMBER OF ATOMS
7
ITEM: BOX BOUNDS ss ss ss
-2.8651 3.4628
-2.6964 3.3982
-1.9156 2.0496
ITEM: ATOMS id type xs ys zs
1 1 .495433 .992406 .543690
2 1 .993544 .633547 .554354
3 1 .832640 .035366 .487216
4 1 .233969 .008253 .449028
5 1 .005839 .592834 .459105
6 1 .485327 .445527 .988423
7 1 .522713 .475317 .014691
ITEM: TIMESTEP
200
ITEM: NUMBER OF ATOMS
7
ITEM: BOX BOUNDS ss ss ss
-2.8725 3.4639
-2.7001 3.4012
-1.9143 2.0484
ITEM: ATOMS id type xs ys zs
1 1 .495708 .992121 .543539
2 1 .992926 .633044 .555094
3 1 .832655 .036644 .487139
4 1 .234908 .008421 .448773
5 1 .006887 .592729 .459166
6 1 .486753 .445686 .987920
7 1 .522763 .475461 .014307
ITEM: TIMESTEP
250
ITEM: NUMBER OF ATOMS
7
ITEM: BOX BOUNDS ss ss ss
-2.8726 3.4740
-2.7091 3.4025
-1.9143 2.0513
ITEM: ATOMS id type xs ys zs
1 1 .495185 .991984 .542397
2 1 .991132 .633519 .555492
3 1 .830979 .038869 .487044
4 1 .234391 .009623 .447940
5 1 .007350 .592995 .459325
6 1 .486744 .446399 .986834
7 1 .521582 .476273 .014137
ITEM: TIMESTEP
300
ITEM: NUMBER OF ATOMS
7
ITEM: BOX BOUNDS ss ss ss
-2.8730 3.4702
-2.7273 3.4020
-1.9126 2.0560
ITEM: ATOMS id type xs ys zs
1 1 .495777 .991934 .539692
2 1 .992159 .635277 .555708
3 1 .830895 .042474 .488330
4 1 .233045 .012750 .445232
5 1 .008244 .594844 .459361
6 1 .487932 .447817 .986040
7 1 .522461 .477443 .014291
ITEM: TIMESTEP
350
ITEM: NUMBER OF ATOMS
7
ITEM: BOX BOUNDS ss ss ss
-2.8753 3.4800
-2.7132 3.3918
-1.9139 2.0497
ITEM: ATOMS id type xs ys zs
1 1 .494616 .993297 .539967
2 1 .991362 .636353 .559502
3 1 .828810 .040938 .492688
4 1 .230948 .010955 .441976
5 1 .009361 .596258 .461201
6 1 .487838 .446633 .987727
7 1 .522775 .476580 .016163
ITEM: TIMESTEP
400
ITEM: NUMBER OF ATOMS
7
ITEM: BOX BOUNDS ss ss ss
-2.8632 3.4758
-2.7038 3.3960
-1.9120 2.0442
ITEM: ATOMS id type xs ys zs
1 1 .494176 .992515 .541479
2 1 .992751 .636513 .560215
3 1 .828419 .039773 .494760
4 1 .228747 .009099 .441886
5 1 .008471 .595385 .462399
6 1 .487667 .444954 .988569
7 1 .522661 .475079 .016104
ITEM: TIMESTEP
1
ITEM: NUMBER OF ATOMS
7
ITEM: BOX BOUNDS ss ss ss
-2.8626 3.4787
-2.6948 3.3893
-1.9120 2.0422
ITEM: ATOMS id type xs ys zs
1 1 .493286 .994612 .543302
2 1 .992783 .636730 .554305
3 1 .830616 .033338 .488128
4 1 .232501 .008854 .449087
5 1 .006961 .593775 .460222
6 1 .482605 .444591 .991571
7 1 .521203 .475336 .012116
ITEM: TIMESTEP
50
ITEM: NUMBER OF ATOMS
7
ITEM: BOX BOUNDS ss ss ss
-2.8626 3.4787
-2.6948 3.3893
-1.9120 2.0422
ITEM: ATOMS id type xs ys zs
1 1 .493783 .994768 .543488
2 1 .992766 .636373 .554010
3 1 .830782 .033202 .487633
4 1 .232822 .008633 .449273
5 1 .006393 .593442 .459900
6 1 .482200 .445058 .991520
7 1 .521145 .475584 .012676
ITEM: TIMESTEP
100
ITEM: NUMBER OF ATOMS
7
ITEM: BOX BOUNDS ss ss ss
-2.8626 3.4777
-2.6924 3.3943
-1.9120 2.0423
ITEM: ATOMS id type xs ys zs
1 1 .494130 .993686 .544417
2 1 .991708 .634928 .553166
3 1 .830730 .033937 .487424
4 1 .232925 .007287 .448984
5 1 .005977 .592229 .459394
6 1 .483451 .445001 .990462
7 1 .521617 .475342 .013421
ITEM: TIMESTEP
150
ITEM: NUMBER OF ATOMS
7
ITEM: BOX BOUNDS ss ss ss
-2.8672 3.4729
-2.6924 3.4016
-1.9120 2.0454
ITEM: ATOMS id type xs ys zs
1 1 .495270 .992983 .545389
2 1 .991867 .633548 .552624
3 1 .831007 .034302 .488101
4 1 .233494 .006711 .448098
5 1 .006855 .591543 .458686
6 1 .485802 .444363 .988419
7 1 .522540 .474809 .014138
ITEM: TIMESTEP
200
ITEM: NUMBER OF ATOMS
7
ITEM: BOX BOUNDS ss ss ss
-2.8699 3.4729
-2.6944 3.4050
-1.9120 2.0441
ITEM: ATOMS id type xs ys zs
1 1 .495626 .992529 .545845
2 1 .991740 .632765 .553353
3 1 .830535 .034559 .488984
4 1 .233584 .006797 .447926
5 1 .007608 .591518 .458444
6 1 .486923 .443958 .988283
7 1 .522837 .474856 .014895
ITEM: TIMESTEP
250
ITEM: NUMBER OF ATOMS
7
ITEM: BOX BOUNDS ss ss ss
-2.8713 3.4729
-2.7047 3.4076
-1.9120 2.0479
ITEM: ATOMS id type xs ys zs
1 1 .495267 .992040 .545556
2 1 .991757 .632656 .554491
3 1 .830266 .036142 .488898
4 1 .233388 .008377 .447306
5 1 .008175 .592160 .457949
6 1 .487409 .444409 .987392
7 1 .523046 .475676 .015602
ITEM: TIMESTEP
300
ITEM: NUMBER OF ATOMS
7
ITEM: BOX BOUNDS ss ss ss
-2.8734 3.4731
-2.7029 3.4072
-1.9120 2.0496
ITEM: ATOMS id type xs ys zs
1 1 .494126 .991843 .546628
2 1 .991954 .632209 .556660
3 1 .829916 .036170 .489111
4 1 .232724 .008392 .447309
5 1 .008802 .592856 .458256
6 1 .487672 .444067 .987422
7 1 .522998 .475623 .016425
ITEM: TIMESTEP
350
ITEM: NUMBER OF ATOMS
7
ITEM: BOX BOUNDS ss ss ss
-2.8660 3.4887
-2.7172 3.4127
-1.9120 2.0438
ITEM: ATOMS id type xs ys zs
1 1 .491127 .990685 .549261
2 1 .989516 .632174 .560002
3 1 .826996 .038867 .490336
4 1 .230390 .010806 .448010
5 1 .007730 .594007 .459291
6 1 .485623 .444626 .989336
7 1 .520960 .476952 .017291
ITEM: TIMESTEP
400
ITEM: NUMBER OF ATOMS
7
ITEM: BOX BOUNDS ss ss ss
-2.8704 3.4729
-2.7054 3.4057
-1.9120 2.0496
ITEM: ATOMS id type xs ys zs
1 1 .492113 .991568 .549556
2 1 .992060 .632374 .560143
3 1 .828872 .037358 .490174
4 1 .230811 .008938 .447546
5 1 .008548 .594485 .458870
6 1 .487005 .443618 .987938
7 1 .522753 .476603 .017775
ITEM: TIMESTEP
1
ITEM: NUMBER OF ATOMS
7
ITEM: BOX BOUNDS ss ss ss
-2.8651 3.4727
-2.7122 3.3955
-1.9120 2.0444
ITEM: ATOMS id type xs ys zs
1 1 .493962 .993615 .542994
2 1 .993734 .637118 .553992
3 1 .831476 .036056 .487857
4 1 .233036 .011667 .448835
5 1 .007367 .594325 .459961
6 1 .483274 .445721 .991011
7 1 .521893 .476346 .012111
ITEM: TIMESTEP
50
ITEM: NUMBER OF ATOMS
7
ITEM: BOX BOUNDS ss ss ss
-2.8651 3.4727
-2.7122 3.3955
-1.9120 2.0426
ITEM: ATOMS id type xs ys zs
1 1 .494498 .993911 .543415
2 1 .993800 .636777 .554066
3 1 .831624 .035936 .487615
4 1 .233377 .011509 .449241
5 1 .006769 .594053 .459864
6 1 .482747 .446177 .991400
7 1 .521851 .476612 .012643
ITEM: TIMESTEP
100
ITEM: NUMBER OF ATOMS
7
ITEM: BOX BOUNDS ss ss ss
-2.8674 3.4727
-2.7122 3.3955
-1.9120 2.0426
ITEM: ATOMS id type xs ys zs
1 1 .494899 .993495 .542988
2 1 .993136 .635714 .554371
3 1 .831336 .037233 .487089
4 1 .233686 .011011 .449027
5 1 .006788 .594334 .459485
6 1 .483761 .446649 .990129
7 1 .522797 .476682 .013952
ITEM: TIMESTEP
150
ITEM: NUMBER OF ATOMS
7
ITEM: BOX BOUNDS ss ss ss
-2.8698 3.4727
-2.7122 3.3986
-1.9120 2.0437
ITEM: ATOMS id type xs ys zs
1 1 .495225 .992403 .542603
2 1 .992873 .634845 .555115
3 1 .831209 .038071 .486300
4 1 .234136 .010775 .448497
5 1 .007320 .594058 .458932
6 1 .485023 .446873 .989276
7 1 .523167 .476477 .014438
ITEM: TIMESTEP
200
ITEM: NUMBER OF ATOMS
7
ITEM: BOX BOUNDS ss ss ss
-2.8810 3.4733
-2.7039 3.3955
-1.9120 2.0440
ITEM: ATOMS id type xs ys zs
1 1 .495449 .992448 .542181
2 1 .992326 .634472 .555052
3 1 .831048 .037597 .486100
4 1 .235941 .009307 .447396
5 1 .009857 .593701 .458885
6 1 .487020 .446117 .989349
7 1 .523643 .476399 .013924
ITEM: TIMESTEP
250
ITEM: NUMBER OF ATOMS
7
ITEM: BOX BOUNDS ss ss ss
-2.8772 3.4834
-2.7048 3.4025
-1.9120 2.0549
ITEM: ATOMS id type xs ys zs
1 1 .492980 .991249 .539899
2 1 .989840 .633992 .553703
3 1 .829912 .038231 .484961
4 1 .235287 .009092 .445502
5 1 .010286 .593594 .458395
6 1 .486441 .445618 .987189
7 1 .522392 .475931 .013811
ITEM: TIMESTEP
300
ITEM: NUMBER OF ATOMS
7
ITEM: BOX BOUNDS ss ss ss
-2.8608 3.4750
-2.6951 3.4002
-1.9120 2.0517
ITEM: ATOMS id type xs ys zs
1 1 .490923 .991899 .540527
2 1 .990281 .633939 .554775
3 1 .830312 .036838 .485678
4 1 .233324 .007715 .445912
5 1 .008357 .593925 .458865
6 1 .485910 .445111 .988048
7 1 .521947 .475330 .013254
ITEM: TIMESTEP
350
ITEM: NUMBER OF ATOMS
7
ITEM: BOX BOUNDS ss ss ss
-2.8577 3.4688
-2.6963 3.4011
-1.9120 2.0531
ITEM: ATOMS id type xs ys zs
1 1 .490298 .991947 .540545
2 1 .990813 .634264 .555210
3 1 .830527 .037101 .485365
4 1 .232817 .008179 .446052
5 1 .007919 .594177 .458115
6 1 .486412 .445206 .987292
7 1 .522280 .475683 .012514
ITEM: TIMESTEP
400
ITEM: NUMBER OF ATOMS
7
ITEM: BOX BOUNDS ss ss ss
-2.8617 3.4693
-2.7017 3.4012
-1.9172 2.0619
ITEM: ATOMS id type xs ys zs
1 1 .490154 .992035 .539990
2 1 .990765 .634651 .555111
3 1 .830238 .038035 .484450
4 1 .232822 .009153 .446001
5 1 .008422 .594611 .457333
6 1 .486957 .445470 .984723
7 1 .522556 .476409 .013610
ITEM: TIMESTEP
1
ITEM: NUMBER OF ATOMS
7
ITEM: BOX BOUNDS ss ss ss
-2.8575 3.4650
-2.6873 3.4040
-1.9111 2.0501
ITEM: ATOMS id type xs ys zs
1 1 .493949 .992196 .542121
2 1 .994929 .634744 .553105
3 1 .832280 .032070 .487048
4 1 .232389 .007618 .448074
5 1 .006175 .591837 .459184
6 1 .483233 .442832 .989592
7 1 .521946 .473542 .011880
ITEM: TIMESTEP
50
ITEM: NUMBER OF ATOMS
7
ITEM: BOX BOUNDS ss ss ss
-2.8575 3.4650
-2.6873 3.4040
-1.9111 2.0501
ITEM: ATOMS id type xs ys zs
1 1 .494507 .992451 .542339
2 1 .995040 .634482 .552780
3 1 .832551 .031895 .486605
4 1 .232820 .007519 .448328
5 1 .005510 .591477 .458895
6 1 .482690 .443222 .989577
7 1 .521880 .473866 .012465
ITEM: TIMESTEP
100
ITEM: NUMBER OF ATOMS
7
ITEM: BOX BOUNDS ss ss ss
-2.8654 3.4728
-2.6873 3.4040
-1.9111 2.0501
ITEM: ATOMS id type xs ys zs
1 1 .494845 .992142 .543234
2 1 .992382 .633417 .553416
3 1 .831847 .033716 .487163
4 1 .233792 .007578 .448968
5 1 .006584 .591902 .459523
6 1 .483737 .444099 .989449
7 1 .521962 .474264 .014145
ITEM: TIMESTEP
150
ITEM: NUMBER OF ATOMS
7
ITEM: BOX BOUNDS ss ss ss
-2.8706 3.4660
-2.6949 3.4040
-1.9111 2.0501
ITEM: ATOMS id type xs ys zs
1 1 .496222 .992230 .543932
2 1 .992441 .632938 .554456
3 1 .832831 .036100 .488231
4 1 .235083 .009132 .449453
5 1 .007223 .592813 .460527
6 1 .485377 .445595 .989648
7 1 .522505 .475122 .014487
ITEM: TIMESTEP
200
ITEM: NUMBER OF ATOMS
7
ITEM: BOX BOUNDS ss ss ss
-2.8817 3.4764
-2.6895 3.4040
-1.9111 2.0488
ITEM: ATOMS id type xs ys zs
1 1 .496325 .992432 .544264
2 1 .990409 .632215 .554646
3 1 .831499 .035415 .488581
4 1 .236071 .007951 .449824
5 1 .009222 .592899 .461043
6 1 .486281 .445633 .990317
7 1 .522246 .474746 .014858
ITEM: TIMESTEP
250
ITEM: NUMBER OF ATOMS
7
ITEM: BOX BOUNDS ss ss ss
-2.8736 3.4749
-2.7025 3.4040
-1.9111 2.0519
ITEM: ATOMS id type xs ys zs
1 1 .495269 .992346 .544205
2 1 .990620 .632705 .553361
3 1 .831113 .037391 .487282
4 1 .235132 .009901 .449595
5 1 .008719 .593987 .460536
6 1 .486610 .446887 .989415
7 1 .521708 .475825 .014741
ITEM: TIMESTEP
300
ITEM: NUMBER OF ATOMS
7
ITEM: BOX BOUNDS ss ss ss
-2.8722 3.4687
-2.6996 3.4072
-1.9111 2.0528
ITEM: ATOMS id type xs ys zs
1 1 .495032 .991548 .544551
2 1 .991919 .632204 .552632
3 1 .831704 .036970 .486063
4 1 .235086 .009222 .449508
5 1 .009075 .593444 .460619
6 1 .487791 .446073 .988684
7 1 .522321 .475327 .014149
ITEM: TIMESTEP
350
ITEM: NUMBER OF ATOMS
7
ITEM: BOX BOUNDS ss ss ss
-2.8573 3.4707
-2.6940 3.4146
-1.9111 2.0546
ITEM: ATOMS id type xs ys zs
1 1 .493157 .990258 .544406
2 1 .992066 .631209 .551933
3 1 .830710 .036138 .484659
4 1 .232782 .007956 .450038
5 1 .007584 .592733 .459658
6 1 .487541 .444418 .987367
7 1 .521663 .474211 .013607
ITEM: TIMESTEP
400
ITEM: NUMBER OF ATOMS
7
ITEM: BOX BOUNDS ss ss ss
-2.8613 3.4701
-2.6931 3.4074
-1.9111 2.0487
ITEM: ATOMS id type xs ys zs
1 1 .491973 .992043 .546721
2 1 .991950 .632788 .552658
3 1 .831266 .035194 .485753
4 1 .232718 .006847 .450667
5 1 .010010 .593950 .458585
6 1 .489408 .443408 .987903
7 1 .522858 .473424 .014887
ITEM: TIMESTEP
1
ITEM: NUMBER OF ATOMS
7
ITEM: BOX BOUNDS ss ss ss
-2.8505 3.4666
-2.7022 3.4040
-1.9111 2.0451
ITEM: ATOMS id type xs ys zs
1 1 .493267 .992216 .542807
2 1 .994675 .635636 .553806
3 1 .831887 .034434 .487660
4 1 .231487 .010038 .448641
5 1 .005075 .592833 .459767
6 1 .482538 .444195 .990840
7 1 .521291 .474824 .011891
ITEM: TIMESTEP
50
ITEM: NUMBER OF ATOMS
7
ITEM: BOX BOUNDS ss ss ss
-2.8516 3.4666
-2.7022 3.4040
-1.9111 2.0451
ITEM: ATOMS id type xs ys zs
1 1 .494019 .992533 .543179
2 1 .994803 .635374 .553481
3 1 .832210 .034122 .487090
4 1 .232070 .009951 .448965
5 1 .004579 .592485 .459435
6 1 .482009 .444725 .990851
7 1 .521280 .475087 .012432
ITEM: TIMESTEP
100
ITEM: NUMBER OF ATOMS
7
ITEM: BOX BOUNDS ss ss ss
-2.8599 3.4701
-2.7022 3.4040
-1.9111 2.0467
ITEM: ATOMS id type xs ys zs
1 1 .494956 .992419 .543636
2 1 .993389 .634588 .552839
3 1 .831647 .034707 .486027
4 1 .233045 .009240 .449178
5 1 .005475 .592595 .458543
6 1 .483220 .445332 .989529
7 1 .521958 .474957 .014022
ITEM: TIMESTEP
150
ITEM: NUMBER OF ATOMS
7
ITEM: BOX BOUNDS ss ss ss
-2.8689 3.4720
-2.6985 3.4040
-1.9111 2.0559
ITEM: ATOMS id type xs ys zs
1 1 .495863 .992259 .542546
2 1 .992172 .633541 .551916
3 1 .831455 .034919 .484829
4 1 .233960 .008338 .448184
5 1 .006647 .592409 .456665
6 1 .484707 .445011 .987163
7 1 .522288 .474697 .014285
ITEM: TIMESTEP
200
ITEM: NUMBER OF ATOMS
7
ITEM: BOX BOUNDS ss ss ss
-2.8746 3.4813
-2.7025 3.4076
-1.9111 2.0545
ITEM: ATOMS id type xs ys zs
1 1 .495984 .991135 .543272
2 1 .990463 .632600 .552407
3 1 .830337 .036512 .485045
4 1 .234437 .008586 .447875
5 1 .007651 .592100 .456270
6 1 .485060 .445042 .987779
7 1 .521439 .475188 .014262
ITEM: TIMESTEP
250
ITEM: NUMBER OF ATOMS
7
ITEM: BOX BOUNDS ss ss ss
-2.8754 3.4738
-2.7090 3.4059
-1.9111 2.0559
ITEM: ATOMS id type xs ys zs
1 1 .496981 .990943 .544161
2 1 .991926 .632995 .552107
3 1 .830967 .038108 .485316
4 1 .234584 .009444 .448518
5 1 .007869 .592361 .456173
6 1 .486560 .445742 .987243
7 1 .521908 .476030 .014277
ITEM: TIMESTEP
300
ITEM: NUMBER OF ATOMS
7
ITEM: BOX BOUNDS ss ss ss
-2.8764 3.4925
-2.7230 3.4083
-1.9111 2.0528
ITEM: ATOMS id type xs ys zs
1 1 .495850 .990232 .545803
2 1 .989235 .633596 .552249
3 1 .827757 .040538 .487268
4 1 .233602 .011631 .449539
5 1 .008342 .592560 .456879
6 1 .485839 .446457 .987734
7 1 .520633 .477266 .013741
ITEM: TIMESTEP
350
ITEM: NUMBER OF ATOMS
7
ITEM: BOX BOUNDS ss ss ss
-2.8800 3.4875
-2.7052 3.4241
-1.9122 2.0607
ITEM: ATOMS id type xs ys zs
1 1 .496503 .987640 .546253
2 1 .989935 .630833 .550873
3 1 .828023 .037806 .488019
4 1 .234116 .008358 .448629
5 1 .009449 .589155 .455861
6 1 .486842 .443281 .985437
7 1 .521700 .474907 .013671
ITEM: TIMESTEP
400
ITEM: NUMBER OF ATOMS
7
ITEM: BOX BOUNDS ss ss ss
-2.8733 3.4815
-2.7171 3.4018
-1.9111 2.0683
ITEM: ATOMS id type xs ys zs
1 1 .497062 .991006 .546963
2 1 .991417 .633270 .549112
3 1 .828174 .039894 .488598
4 1 .233513 .009648 .447384
5 1 .009113 .591770 .454852
6 1 .487260 .445497 .983447
7 1 .522163 .477599 .013303
ITEM: TIMESTEP
1
ITEM: NUMBER OF ATOMS
7
ITEM: BOX BOUNDS ss ss ss
-2.8644 3.4841
-2.7168 3.4006
-1.9139 2.0799
ITEM: ATOMS id type xs ys zs
1 1 .493023 .992797 .538392
2 1 .991950 .636867 .549289
3 1 .829968 .036756 .483765
4 1 .232538 .012409 .445114
5 1 .007248 .594142 .456133
6 1 .482346 .445776 .982220
7 1 .520903 .476350 .012471
ITEM: TIMESTEP
50
ITEM: NUMBER OF ATOMS
7
ITEM: BOX BOUNDS ss ss ss
-2.8644 3.4841
-2.7168 3.4006
-1.9139 2.0799
ITEM: ATOMS id type xs ys zs
1 1 .493686 .993101 .538645
2 1 .992112 .636578 .549009
3 1 .830255 .036458 .483194
4 1 .232997 .012353 .445432
5 1 .006506 .593708 .455828
6 1 .481618 .446247 .982316
7 1 .520751 .476681 .012944
ITEM: TIMESTEP
100
ITEM: NUMBER OF ATOMS
7
ITEM: BOX BOUNDS ss ss ss
-2.8667 3.4841
-2.7168 3.4006
-1.9139 2.0799
ITEM: ATOMS id type xs ys zs
1 1 .494344 .992485 .538785
2 1 .991268 .636000 .548925
3 1 .830426 .037330 .482622
4 1 .233693 .011667 .444895
5 1 .006193 .593261 .455247
6 1 .482242 .447040 .981606
7 1 .521261 .477090 .014064
ITEM: TIMESTEP
150
ITEM: NUMBER OF ATOMS
7
ITEM: BOX BOUNDS ss ss ss
-2.8763 3.4834
-2.7168 3.4137
-1.9139 2.0799
ITEM: ATOMS id type xs ys zs
1 1 .494797 .988915 .538583
2 1 .990548 .635040 .549068
3 1 .831288 .038631 .482776
4 1 .234842 .010854 .441912
5 1 .006626 .591507 .453538
6 1 .484033 .446337 .979460
7 1 .521992 .475572 .013825
ITEM: TIMESTEP
200
ITEM: NUMBER OF ATOMS
7
ITEM: BOX BOUNDS ss ss ss
-2.8870 3.4834
-2.7142 3.4030
-1.9139 2.0799
ITEM: ATOMS id type xs ys zs
1 1 .495543 .990726 .538119
2 1 .990223 .635961 .549023
3 1 .831940 .038776 .483322
4 1 .236017 .010011 .439571
5 1 .007758 .592436 .451974
6 1 .485961 .446456 .977208
7 1 .522858 .475667 .013577
ITEM: TIMESTEP
250
ITEM: NUMBER OF ATOMS
7
ITEM: BOX BOUNDS ss ss ss
-2.8856 3.4767
-2.7046 3.4033
-1.9074 2.0799
ITEM: ATOMS id type xs ys zs
1 1 .495787 .990798 .537643
2 1 .991345 .635004 .548733
3 1 .832676 .037729 .482682
4 1 .236257 .007747 .437776
5 1 .007729 .591841 .449998
6 1 .486827 .444885 .975926
7 1 .523245 .475129 .012091
ITEM: TIMESTEP
300
ITEM: NUMBER OF ATOMS
7
ITEM: BOX BOUNDS ss ss ss
-2.8836 3.4765
-2.7054 3.4006
-1.9075 2.0714
ITEM: ATOMS id type xs ys zs
1 1 .495507 .991419 .538636
2 1 .991548 .635038 .550488
3 1 .832463 .038402 .483967
4 1 .236314 .007426 .439033
5 1 .007639 .591989 .450580
6 1 .486927 .444838 .977362
7 1 .522925 .475819 .012079
ITEM: TIMESTEP
350
ITEM: NUMBER OF ATOMS
7
ITEM: BOX BOUNDS ss ss ss
-2.8853 3.4780
-2.7203 3.4036
-1.9127 2.0714
ITEM: ATOMS id type xs ys zs
1 1 .495145 .991240 .539792