ITEM: TIMESTEP
1
ITEM: NUMBER OF ATOMS
7
ITEM: BOX BOUNDS ss ss ss
-3.3136 2.8588
-2.6475 3.2879
-1.7868 2.2115
ITEM: ATOMS id type xs ys zs
1 1 .466599 .999274 .478426
2 1 .999319 .667536 .463543
3 1 .851637 .047132 .478874
4 1 .226587 .000658 .522687
5 1 .000804 .591620 .510054
6 1 .529502 .462593 .999200
7 1 .497274 .455389 .001126
ITEM: TIMESTEP
50
ITEM: NUMBER OF ATOMS
7
ITEM: BOX BOUNDS ss ss ss
-3.3370 2.8801
-2.6690 3.3100
-1.8103 2.2355
ITEM: ATOMS id type xs ys zs
1 1 .467901 .994430 .478912
2 1 .994274 .668490 .466605
3 1 .848969 .048904 .478649
4 1 .228174 .005375 .523803
5 1 .006062 .591073 .511576
6 1 .528954 .462816 .993301
7 1 .496703 .456318 .008905
ITEM: TIMESTEP
100
ITEM: NUMBER OF ATOMS
7
ITEM: BOX BOUNDS ss ss ss
-3.3479 2.8876
-2.6726 3.3167
-1.8171 2.2357
ITEM: ATOMS id type xs ys zs
1 1 .465969 .994984 .478322
2 1 .997104 .667231 .459308
3 1 .847245 .052357 .478494
4 1 .231798 .005171 .529250
5 1 .005249 .589822 .514813
6 1 .528817 .463470 .988229
7 1 .502772 .455936 .007839
ITEM: TIMESTEP
150
ITEM: NUMBER OF ATOMS
7
ITEM: BOX BOUNDS ss ss ss
-3.3622 2.8901
-2.6805 3.3234
-1.8208 2.2294
ITEM: ATOMS id type xs ys zs
1 1 .466058 .992378 .481582
2 1 .995408 .667724 .459400
3 1 .846415 .052818 .479900
4 1 .230734 .008919 .530130
5 1 .009569 .590078 .513418
6 1 .530399 .466874 .991158
7 1 .503203 .456285 .008619
ITEM: TIMESTEP
200
ITEM: NUMBER OF ATOMS
7
ITEM: BOX BOUNDS ss ss ss
-3.3485 2.8837
-2.6863 3.3344
-1.8260 2.2294
ITEM: ATOMS id type xs ys zs
1 1 .469014 .991936 .477347
2 1 .995358 .662649 .461866
3 1 .851968 .051993 .478855
4 1 .235336 .010722 .533672
5 1 .005362 .587061 .516732
6 1 .527769 .464748 .988730
7 1 .501449 .453110 .008791
ITEM: TIMESTEP
250
ITEM: NUMBER OF ATOMS
7
ITEM: BOX BOUNDS ss ss ss
-3.3565 2.8866
-2.6929 3.3437
-1.8266 2.2283
ITEM: ATOMS id type xs ys zs
1 1 .469951 .995077 .482584
2 1 .991176 .668099 .461960
3 1 .845896 .047909 .482857
4 1 .237325 .004375 .524505
5 1 .006908 .587768 .520821
6 1 .529404 .464368 .986776
7 1 .497935 .453891 .013002
ITEM: TIMESTEP
300
ITEM: NUMBER OF ATOMS
7
ITEM: BOX BOUNDS ss ss ss
-3.3643 2.8804
-2.6926 3.3465
-1.8282 2.2171
ITEM: ATOMS id type xs ys zs
1 1 .473353 .993741 .484303
2 1 .991960 .667644 .461719
3 1 .845690 .047841 .481067
4 1 .238909 .003556 .525668
5 1 .009358 .588087 .521491
6 1 .529651 .463365 .991485
7 1 .498757 .454761 .013742
ITEM: TIMESTEP
350
ITEM: NUMBER OF ATOMS
7
ITEM: BOX BOUNDS ss ss ss
-3.3616 2.8865
-2.6941 3.3483
-1.8258 2.2252
ITEM: ATOMS id type xs ys zs
1 1 .474848 .994588 .484376
2 1 .989774 .668161 .461153
3 1 .845694 .049860 .479598
4 1 .237882 .003831 .524650
5 1 .008583 .586060 .519211
6 1 .528731 .462802 .988109
7 1 .498299 .454860 .012806
ITEM: TIMESTEP
400
ITEM: NUMBER OF ATOMS
7
ITEM: BOX BOUNDS ss ss ss
-3.3608 2.8860
-2.6998 3.3550
-1.8288 2.2146
ITEM: ATOMS id type xs ys zs
1 1 .470204 .993351 .491755
2 1 .993559 .668116 .461552
3 1 .845528 .051724 .486902
4 1 .235471 .008110 .531064
5 1 .005861 .586035 .521330
6 1 .526452 .464233 .990531
7 1 .500766 .456800 .017074
ITEM: TIMESTEP
1
ITEM: NUMBER OF ATOMS
7
ITEM: BOX BOUNDS ss ss ss
-3.3459 2.8620
-2.6978 3.3392
-1.7991 2.2114
ITEM: ATOMS id type xs ys zs
1 1 .469362 .991160 .479791
2 1 .998596 .664690 .464673
3 1 .851839 .054389 .480506
4 1 .230495 .008985 .524382
5 1 .005995 .589888 .511472
6 1 .531911 .463160 .998846
7 1 .499531 .456221 .003799
ITEM: TIMESTEP
50
ITEM: NUMBER OF ATOMS
7
ITEM: BOX BOUNDS ss ss ss
-3.3459 2.8783
-2.6978 3.3392
-1.8105 2.2393
ITEM: ATOMS id type xs ys zs
1 1 .469627 .990618 .476686
2 1 .992474 .666297 .463819
3 1 .849129 .055835 .477787
4 1 .229738 .010886 .521628
5 1 .007132 .588726 .507615
6 1 .530312 .463246 .995851
7 1 .498463 .455218 .009910
ITEM: TIMESTEP
100
ITEM: NUMBER OF ATOMS
7
ITEM: BOX BOUNDS ss ss ss
-3.3476 2.8860
-2.6978 3.3392
-1.8259 2.2401
ITEM: ATOMS id type xs ys zs
1 1 .466064 .991459 .479359
2 1 .993458 .665387 .466868
3 1 .846746 .052823 .479999
4 1 .231647 .011336 .524988
5 1 .004923 .591882 .512095
6 1 .528352 .461077 .993206
7 1 .499880 .457168 .009112
ITEM: TIMESTEP
150
ITEM: NUMBER OF ATOMS
7
ITEM: BOX BOUNDS ss ss ss
-3.3518 2.8846
-2.6978 3.3392
-1.8376 2.2383
ITEM: ATOMS id type xs ys zs
1 1 .465181 .990529 .481761
2 1 .990617 .665014 .470691
3 1 .846982 .055871 .480181
4 1 .234051 .010680 .532617
5 1 .002883 .588493 .512925
6 1 .526958 .462815 .987615
7 1 .499290 .452728 .008799
ITEM: TIMESTEP
200
ITEM: NUMBER OF ATOMS
7
ITEM: BOX BOUNDS ss ss ss
-3.3667 2.8825
-2.6978 3.3392
-1.8380 2.2359
ITEM: ATOMS id type xs ys zs
1 1 .467200 .989839 .482644
2 1 .990334 .664117 .471147
3 1 .846649 .056659 .483254
4 1 .234630 .011974 .532297
5 1 .004243 .588863 .514813
6 1 .528365 .463896 .988318
7 1 .499416 .452600 .010457
ITEM: TIMESTEP
250
ITEM: NUMBER OF ATOMS
7
ITEM: BOX BOUNDS ss ss ss
-3.3711 2.8800
-2.6978 3.3392
-1.8405 2.2311
ITEM: ATOMS id type xs ys zs
1 1 .469834 .989720 .483681
2 1 .989709 .667524 .464591
3 1 .848348 .056153 .477818
4 1 .235059 .011448 .530009
5 1 .004668 .589539 .522540
6 1 .527522 .464602 .986908
7 1 .501151 .452574 .008234
ITEM: TIMESTEP
300
ITEM: NUMBER OF ATOMS
7
ITEM: BOX BOUNDS ss ss ss
-3.3680 2.8877
-2.6978 3.3392
-1.8297 2.2371
ITEM: ATOMS id type xs ys zs
1 1 .475368 .992983 .473868
2 1 .992622 .664875 .468665
3 1 .846022 .054097 .478090
4 1 .237488 .006526 .525616
5 1 .011614 .586443 .518055
6 1 .528953 .466093 .986048
7 1 .499880 .454050 .007774
ITEM: TIMESTEP
350
ITEM: NUMBER OF ATOMS
7
ITEM: BOX BOUNDS ss ss ss
-3.3586 2.8889
-2.6978 3.3392
-1.8388 2.2291
ITEM: ATOMS id type xs ys zs
1 1 .475765 .992589 .478008
2 1 .991302 .663409 .469883
3 1 .844174 .053775 .481416
4 1 .235986 .007077 .526017
5 1 .010394 .586904 .519091
6 1 .526464 .468060 .986978
7 1 .499041 .453008 .010285
ITEM: TIMESTEP
400
ITEM: NUMBER OF ATOMS
7
ITEM: BOX BOUNDS ss ss ss
-3.3611 2.8869
-2.6978 3.3409
-1.8385 2.2286
ITEM: ATOMS id type xs ys zs
1 1 .473347 .992515 .486615
2 1 .989617 .666149 .466330
3 1 .847183 .050350 .490415
4 1 .237885 .006012 .524836
5 1 .007975 .586867 .527913
6 1 .527487 .463139 .987460
7 1 .498538 .452288 .014921
ITEM: TIMESTEP
1
ITEM: NUMBER OF ATOMS
7
ITEM: BOX BOUNDS ss ss ss
-3.3537 2.8735
-2.6978 3.3392
-1.8113 2.2118
ITEM: ATOMS id type xs ys zs
1 1 .468765 .990884 .481063
2 1 .997045 .664618 .465928
3 1 .850294 .054707 .482017
4 1 .231404 .008994 .525565
5 1 .007071 .589918 .513942
6 1 .531079 .463180 .999168
7 1 .499258 .456026 .007295
ITEM: TIMESTEP
50
ITEM: NUMBER OF ATOMS
7
ITEM: BOX BOUNDS ss ss ss
-3.3537 2.8817
-2.6978 3.3392
-1.8113 2.2394
ITEM: ATOMS id type xs ys zs
1 1 .468537 .991493 .476376
2 1 .996048 .664842 .465473
3 1 .848433 .054159 .479704
4 1 .230514 .009928 .520916
5 1 .005927 .590377 .509593
6 1 .533554 .463781 .991288
7 1 .498769 .454289 .007384
ITEM: TIMESTEP
100
ITEM: NUMBER OF ATOMS
7
ITEM: BOX BOUNDS ss ss ss
-3.3537 2.8910
-2.6978 3.3392
-1.8172 2.2386
ITEM: ATOMS id type xs ys zs
1 1 .469935 .990719 .473322
2 1 .995436 .665814 .463825
3 1 .847303 .053190 .475367
4 1 .231945 .007677 .526254
5 1 .007768 .589725 .512618
6 1 .529532 .463097 .994781
7 1 .496194 .455069 .007857
ITEM: TIMESTEP
150
ITEM: NUMBER OF ATOMS
7
ITEM: BOX BOUNDS ss ss ss
-3.3557 2.8841
-2.6978 3.3392
-1.8312 2.2421
ITEM: ATOMS id type xs ys zs
1 1 .470179 .989879 .473135
2 1 .993177 .666985 .464634
3 1 .847583 .056405 .484078
4 1 .233648 .012081 .527191
5 1 .005777 .590805 .513402
6 1 .531795 .462710 .990475
7 1 .500049 .451829 .007231
ITEM: TIMESTEP
200
ITEM: NUMBER OF ATOMS
7
ITEM: BOX BOUNDS ss ss ss
-3.3592 2.8834
-2.6978 3.3392
-1.8476 2.2386
ITEM: ATOMS id type xs ys zs
1 1 .472192 .991231 .478354
2 1 .995780 .665508 .470206
3 1 .847776 .050093 .489173
4 1 .234849 .011203 .520783
5 1 .006502 .593099 .511401
6 1 .529091 .465807 .990191
7 1 .504168 .451998 .012163
ITEM: TIMESTEP
250
ITEM: NUMBER OF ATOMS
7
ITEM: BOX BOUNDS ss ss ss
-3.3579 2.8822
-2.6978 3.3400
-1.8632 2.2348
ITEM: ATOMS id type xs ys zs
1 1 .468391 .990299 .486558
2 1 .992082 .669217 .471145
3 1 .844739 .053316 .486115
4 1 .233703 .014611 .524005
5 1 .006450 .588948 .514755
6 1 .527171 .467333 .988602
7 1 .500491 .456546 .012858
ITEM: TIMESTEP
300
ITEM: NUMBER OF ATOMS
7
ITEM: BOX BOUNDS ss ss ss
-3.3570 2.8777
-2.6978 3.3402
-1.8452 2.2255
ITEM: ATOMS id type xs ys zs
1 1 .469720 .991974 .488207
2 1 .993279 .668927 .467821
3 1 .852564 .056614 .489373
4 1 .238495 .007229 .531497
5 1 .006385 .589364 .512033
6 1 .527089 .465484 .986159
7 1 .503827 .449843 .010743
ITEM: TIMESTEP
350
ITEM: NUMBER OF ATOMS
7
ITEM: BOX BOUNDS ss ss ss
-3.3583 2.8790
-2.6978 3.3499
-1.8463 2.2262
ITEM: ATOMS id type xs ys zs
1 1 .469396 .990692 .491188
2 1 .992924 .668603 .468036
3 1 .851075 .057273 .486814
4 1 .239141 .008953 .532651
5 1 .008854 .589604 .514442
6 1 .528617 .466216 .986325
7 1 .505189 .449374 .013086
ITEM: TIMESTEP
400
ITEM: NUMBER OF ATOMS
7
ITEM: BOX BOUNDS ss ss ss
-3.3593 2.8889
-2.7037 3.3404
-1.8384 2.2407
ITEM: ATOMS id type xs ys zs
1 1 .470768 .991634 .488463
2 1 .992568 .667935 .463414
3 1 .849895 .056535 .486525
4 1 .236982 .007463 .525685
5 1 .005150 .588979 .505721
6 1 .523875 .466515 .981280
7 1 .505289 .452488 .008393
ITEM: TIMESTEP
1
ITEM: NUMBER OF ATOMS
7
ITEM: BOX BOUNDS ss ss ss
-3.3537 2.8893
-2.6979 3.3392
-1.8182 2.2122
ITEM: ATOMS id type xs ys zs
1 1 .467913 .991200 .481470
2 1 .994571 .664956 .467024
3 1 .848453 .054453 .483324
4 1 .230362 .008792 .526283
5 1 .007202 .589674 .514224
6 1 .530025 .463259 .999007
7 1 .497924 .455747 .009425
ITEM: TIMESTEP
50
ITEM: NUMBER OF ATOMS
7
ITEM: BOX BOUNDS ss ss ss
-3.3537 2.8893
-2.6979 3.3392
-1.8182 2.2424
ITEM: ATOMS id type xs ys zs
1 1 .467277 .989289 .480591
2 1 .995448 .664739 .463874
3 1 .847763 .053630 .480294
4 1 .228997 .011004 .521844
5 1 .006236 .588633 .513807
6 1 .528542 .463688 .990552
7 1 .500263 .458121 .004975
ITEM: TIMESTEP
100
ITEM: NUMBER OF ATOMS
7
ITEM: BOX BOUNDS ss ss ss
-3.3537 2.8893
-2.6979 3.3392
-1.8272 2.2433
ITEM: ATOMS id type xs ys zs
1 1 .468500 .989556 .476673
2 1 .993638 .664195 .463444
3 1 .848487 .054887 .478861
4 1 .230092 .009752 .526301
5 1 .005198 .588931 .507776
6 1 .528173 .465520 .987142
7 1 .497195 .451079 .010814
ITEM: TIMESTEP
150
ITEM: NUMBER OF ATOMS
7
ITEM: BOX BOUNDS ss ss ss
-3.3537 2.8948
-2.6979 3.3392
-1.8261 2.2389
ITEM: ATOMS id type xs ys zs
1 1 .470462 .988987 .478929
2 1 .995230 .665229 .457827
3 1 .843901 .054658 .476602
4 1 .232514 .011769 .525917
5 1 .003680 .589157 .512659
6 1 .527262 .464323 .989057
7 1 .496235 .454104 .006549
ITEM: TIMESTEP
200
ITEM: NUMBER OF ATOMS
7
ITEM: BOX BOUNDS ss ss ss
-3.3573 2.8983
-2.6978 3.3392
-1.8348 2.2329
ITEM: ATOMS id type xs ys zs
1 1 .467902 .990991 .480645
2 1 .991709 .664564 .464844
3 1 .846325 .053842 .480979
4 1 .233510 .009256 .531497
5 1 .007641 .589680 .521303
6 1 .523453 .464831 .992876
7 1 .500734 .456140 .008878
ITEM: TIMESTEP
250
ITEM: NUMBER OF ATOMS
7
ITEM: BOX BOUNDS ss ss ss
-3.3577 2.9006
-2.6978 3.3392
-1.8366 2.2299
ITEM: ATOMS id type xs ys zs
1 1 .469838 .989478 .479534
2 1 .993594 .664647 .461936
3 1 .844215 .055534 .483172
4 1 .231637 .009587 .534914
5 1 .007488 .588290 .522245
6 1 .521881 .463010 .990673
7 1 .496441 .451592 .007260
ITEM: TIMESTEP
300
ITEM: NUMBER OF ATOMS
7
ITEM: BOX BOUNDS ss ss ss
-3.3587 2.9138
-2.6825 3.3314
-1.8436 2.2297
ITEM: ATOMS id type xs ys zs
1 1 .467808 .991444 .478623
2 1 .992500 .664629 .463741
3 1 .841453 .051412 .484679
4 1 .232303 .005999 .532503
5 1 .004711 .587565 .524252
6 1 .525684 .464879 .988666
7 1 .498220 .455232 .014211
ITEM: TIMESTEP
350
ITEM: NUMBER OF ATOMS
7
ITEM: BOX BOUNDS ss ss ss
-3.3730 2.8970
-2.6829 3.3412
-1.8462 2.2301
ITEM: ATOMS id type xs ys zs
1 1 .473509 .990290 .478263
2 1 .994130 .663900 .475442
3 1 .848677 .051431 .493146
4 1 .237629 .006949 .535695
5 1 .009346 .587193 .525676
6 1 .522863 .467247 .985482
7 1 .501337 .451542 .014121
ITEM: TIMESTEP
400
ITEM: NUMBER OF ATOMS
7
ITEM: BOX BOUNDS ss ss ss
-3.3774 2.8912
-2.6896 3.3463
-1.8400 2.2219
ITEM: ATOMS id type xs ys zs
1 1 .474491 .991035 .480343
2 1 .995136 .663231 .471505
3 1 .851633 .051460 .493618
4 1 .238177 .008823 .538100
5 1 .010488 .586523 .525104
6 1 .523468 .466751 .987888
7 1 .500847 .450845 .012091
ITEM: TIMESTEP
1
ITEM: NUMBER OF ATOMS
7
ITEM: BOX BOUNDS ss ss ss
-3.3514 2.8829
-2.6837 3.3376
-1.8056 2.2119
ITEM: ATOMS id type xs ys zs
1 1 .467699 .991250 .480058
2 1 .995476 .664220 .465122
3 1 .849161 .052343 .481033
4 1 .230269 .006748 .524808
5 1 .006664 .589511 .512424
6 1 .530303 .462490 .999134
7 1 .498259 .454826 .005756
ITEM: TIMESTEP
50
ITEM: NUMBER OF ATOMS
7
ITEM: BOX BOUNDS ss ss ss
-3.3514 2.8829
-2.6837 3.3376
-1.8118 2.2413
ITEM: ATOMS id type xs ys zs
1 1 .466894 .991583 .481827
2 1 .995765 .661902 .464584
3 1 .849735 .051898 .479413
4 1 .230217 .005620 .521615
5 1 .007190 .588458 .510108
6 1 .529706 .462830 .992619
7 1 .499704 .455791 .009179
ITEM: TIMESTEP
100
ITEM: NUMBER OF ATOMS
7
ITEM: BOX BOUNDS ss ss ss
-3.3534 2.8900
-2.6837 3.3376
-1.8230 2.2470
ITEM: ATOMS id type xs ys zs
1 1 .467907 .993413 .481233
2 1 .994094 .667557 .461218
3 1 .846798 .054298 .479575
4 1 .229844 .005238 .519217
5 1 .007392 .588451 .513879
6 1 .526408 .463828 .989166
7 1 .500223 .453162 .008821
ITEM: TIMESTEP
150
ITEM: NUMBER OF ATOMS
7
ITEM: BOX BOUNDS ss ss ss
-3.3578 2.8886
-2.6837 3.3376
-1.8301 2.2511
ITEM: ATOMS id type xs ys zs
1 1 .466001 .991321 .480601
2 1 .993518 .667782 .462158
3 1 .848287 .055389 .482540
4 1 .230623 .004994 .518331
5 1 .008733 .588842 .514267
6 1 .526828 .464374 .989336
7 1 .500914 .453950 .007824
ITEM: TIMESTEP
200
ITEM: NUMBER OF ATOMS
7
ITEM: BOX BOUNDS ss ss ss
-3.3652 2.8923
-2.6837 3.3380
-1.8346 2.2441
ITEM: ATOMS id type xs ys zs
1 1 .471031 .988927 .482928
2 1 .991027 .665212 .464567
3 1 .848349 .052799 .469197
4 1 .233214 .009144 .524150
5 1 .006284 .587191 .509600
6 1 .527369 .459820 .988129
7 1 .500415 .456832 .014944
ITEM: TIMESTEP
250
ITEM: NUMBER OF ATOMS
7
ITEM: BOX BOUNDS ss ss ss
-3.3727 2.8867
-2.6837 3.3419
-1.8349 2.2346
ITEM: ATOMS id type xs ys zs
1 1 .474865 .995507 .483868
2 1 .991444 .664179 .467121
3 1 .848778 .055426 .484641
4 1 .233179 .009028 .528404
5 1 .010719 .586370 .517908
6 1 .530623 .464366 .987038
7 1 .500397 .454798 .016814
ITEM: TIMESTEP
300
ITEM: NUMBER OF ATOMS
7
ITEM: BOX BOUNDS ss ss ss
-3.3770 2.8840
-2.6837 3.3501
-1.8257 2.2346
ITEM: ATOMS id type xs ys zs
1 1 .472614 .992211 .482466
2 1 .993263 .668491 .464570
3 1 .846799 .050986 .479934
4 1 .235106 .010803 .523142
5 1 .010885 .588630 .515098
6 1 .530536 .463023 .986848
7 1 .500500 .451430 .013255
ITEM: TIMESTEP
350
ITEM: NUMBER OF ATOMS
7
ITEM: BOX BOUNDS ss ss ss
-3.3681 2.8865
-2.6837 3.3518
-1.8268 2.2416
ITEM: ATOMS id type xs ys zs
1 1 .467270 .991049 .486186
2 1 .997340 .667469 .459444
3 1 .846732 .052265 .479201
4 1 .236131 .005795 .526282
5 1 .006764 .585604 .518985
6 1 .529183 .462086 .988528
7 1 .501239 .453909 .010052
ITEM: TIMESTEP
400
ITEM: NUMBER OF ATOMS
7
ITEM: BOX BOUNDS ss ss ss
-3.3753 2.8884
-2.6906 3.3488
-1.8244 2.2385
ITEM: ATOMS id type xs ys zs
1 1 .469134 .993755 .483172
2 1 .991520 .667533 .462085
3 1 .844984 .053136 .477571
4 1 .233781 .008861 .516974
5 1 .009483 .589988 .523232
6 1 .528747 .462762 .986928
7 1 .503497 .454505 .007591
ITEM: TIMESTEP
1
ITEM: NUMBER OF ATOMS
7
ITEM: BOX BOUNDS ss ss ss
-3.3514 2.8829
-2.6837 3.3440
-1.8056 2.2122
ITEM: ATOMS id type xs ys zs
1 1 .468097 .990078 .480304
2 1 .995387 .663392 .465480
3 1 .849214 .052197 .481060
4 1 .230672 .006490 .524685
5 1 .006818 .588417 .512519
6 1 .530458 .461519 .998719
7 1 .498652 .454399 .005113
ITEM: TIMESTEP
50
ITEM: NUMBER OF ATOMS
7
ITEM: BOX BOUNDS ss ss ss
-3.3514 2.8867
-2.6837 3.3440
-1.8108 2.2414
ITEM: ATOMS id type xs ys zs
1 1 .466194 .989897 .477358
2 1 .992434 .662568 .463326
3 1 .848788 .052796 .477423
4 1 .226521 .005985 .521025
5 1 .004556 .588216 .508621
6 1 .531217 .460318 .993613
7 1 .497355 .453088 .006163
ITEM: TIMESTEP
100
ITEM: NUMBER OF ATOMS
7
ITEM: BOX BOUNDS ss ss ss
-3.3531 2.8954
-2.6837 3.3440
-1.8191 2.2487
ITEM: ATOMS id type xs ys zs
1 1 .465659 .991490 .480819
2 1 .993016 .662062 .462977
3 1 .847594 .050701 .482282
4 1 .229477 .007373 .519464
5 1 .006235 .590325 .508755
6 1 .529316 .460731 .988259
7 1 .497689 .452876 .010681
ITEM: TIMESTEP
150
ITEM: NUMBER OF ATOMS
7
ITEM: BOX BOUNDS ss ss ss
-3.3586 2.8976
-2.6837 3.3440
-1.8316 2.2478
ITEM: ATOMS id type xs ys zs
1 1 .466820 .987184 .481972
2 1 .990293 .663010 .459201
3 1 .842993 .053618 .483071
4 1 .228472 .007347 .522358
5 1 .004029 .590278 .513177
6 1 .528127 .459906 .989962
7 1 .499394 .454916 .009192
ITEM: TIMESTEP
200
ITEM: NUMBER OF ATOMS
7
ITEM: BOX BOUNDS ss ss ss
-3.3613 2.8978
-2.6837 3.3440
-1.8328 2.2480
ITEM: ATOMS id type xs ys zs
1 1 .467368 .992371 .481100
2 1 .995420 .665465 .461033
3 1 .847225 .052377 .481835
4 1 .230204 .011405 .524109
5 1 .008323 .587371 .516870
6 1 .526777 .462013 .985919
7 1 .499299 .455263 .010760
ITEM: TIMESTEP
250
ITEM: NUMBER OF ATOMS
7
ITEM: BOX BOUNDS ss ss ss
-3.3701 2.8895
-2.6854 3.3440
-1.8442 2.2522
ITEM: ATOMS id type xs ys zs
1 1 .468661 .993660 .485806
2 1 .988304 .665580 .465149
3 1 .848991 .050733 .479903
4 1 .232392 .009401 .525939
5 1 .007347 .587513 .517678
6 1 .530144 .459561 .983767
7 1 .496696 .450067 .017408
ITEM: TIMESTEP
300
ITEM: NUMBER OF ATOMS
7
ITEM: BOX BOUNDS ss ss ss
-3.3794 2.8938
-2.6867 3.3440
-1.8407 2.2505
ITEM: ATOMS id type xs ys zs
1 1 .466980 .991249 .479238
2 1 .987091 .663372 .459654
3 1 .849157 .049805 .479269
4 1 .234290 .008855 .521026
5 1 .006849 .589846 .511788
6 1 .528502 .459533 .982593
7 1 .496525 .451870 .014796
ITEM: TIMESTEP
350
ITEM: NUMBER OF ATOMS
7
ITEM: BOX BOUNDS ss ss ss
-3.3720 2.8927
-2.6837 3.3440
-1.8366 2.2579
ITEM: ATOMS id type xs ys zs
1 1 .472133 .990981 .476276
2 1 .993053 .668604 .469536
3 1 .849440 .051548 .473123
4 1 .237257 .008655 .521156
5 1 .006710 .591502 .511215
6 1 .531489 .465458 .972230
7 1 .499258 .452911 .006532
ITEM: TIMESTEP
400
ITEM: NUMBER OF ATOMS
7
ITEM: BOX BOUNDS ss ss ss
-3.3811 2.8891
-2.6922 3.3440
-1.8427 2.2380
ITEM: ATOMS id type xs ys zs
1 1 .471748 .992336 .484258
2 1 .992329 .667119 .470531
3 1 .847280 .050160 .479491
4 1 .238966 .009456 .527731
5 1 .007694 .589179 .511150
6 1 .530320 .468279 .982902
7 1 .497972 .448572 .012640
ITEM: TIMESTEP
1
ITEM: NUMBER OF ATOMS
7
ITEM: BOX BOUNDS ss ss ss
-3.3535 2.8829
-2.6837 3.3376
-1.8245 2.2119
ITEM: ATOMS id type xs ys zs
1 1 .468461 .991347 .482894
2 1 .995551 .664141 .468312
3 1 .849431 .052023 .484044
4 1 .230508 .006836 .526942
5 1 .006986 .589298 .515200
6 1 .530360 .462141 .998937
7 1 .498640 .455101 .010211
ITEM: TIMESTEP
50
ITEM: NUMBER OF ATOMS
7
ITEM: BOX BOUNDS ss ss ss
-3.3535 2.8881
-2.6837 3.3376
-1.8245 2.2410
ITEM: ATOMS id type xs ys zs
1 1 .468798 .991560 .479366
2 1 .995940 .663175 .465307
3 1 .849345 .052861 .477157
4 1 .229218 .007528 .523879
5 1 .005852 .589083 .507408
6 1 .530751 .460189 .992663
7 1 .497743 .453966 .008529
ITEM: TIMESTEP
100
ITEM: NUMBER OF ATOMS
7
ITEM: BOX BOUNDS ss ss ss
-3.3535 2.8947
-2.6837 3.3376
-1.8245 2.2490
ITEM: ATOMS id type xs ys zs
1 1 .467413 .989876 .478393
2 1 .992714 .663909 .465503
3 1 .848146 .052661 .480010
4 1 .230151 .010443 .521357
5 1 .006419 .590195 .507544
6 1 .528933 .461854 .987700
7 1 .500000 .455147 .011560
ITEM: TIMESTEP
150
ITEM: NUMBER OF ATOMS
7
ITEM: BOX BOUNDS ss ss ss
-3.3643 2.8963
-2.6837 3.3376
-1.8291 2.2517
ITEM: ATOMS id type xs ys zs
1 1 .467944 .991581 .480161
2 1 .992698 .665186 .465323
3 1 .844167 .052835 .480189
4 1 .233360 .008667 .524401
5 1 .006294 .589575 .513199
6 1 .530723 .463099 .990870
7 1 .502527 .453856 .008995
ITEM: TIMESTEP
200
ITEM: NUMBER OF ATOMS
7
ITEM: BOX BOUNDS ss ss ss
-3.3596 2.9006
-2.6837 3.3376
-1.8245 2.2479
ITEM: ATOMS id type xs ys zs
1 1 .473024 .991933 .479492
2 1 .994686 .666371 .461220
3 1 .844436 .051850 .480937
4 1 .232178 .008669 .530667
5 1 .008057 .586516 .505189
6 1 .528412 .462651 .989040
7 1 .499332 .456052 .010715
ITEM: TIMESTEP
250
ITEM: NUMBER OF ATOMS
7
ITEM: BOX BOUNDS ss ss ss
-3.3630 2.9012
-2.6848 3.3376
-1.8333 2.2450
ITEM: ATOMS id type xs ys zs
1 1 .470162 .991032 .479940
2 1 .992897 .665892 .459882
3 1 .843177 .049954 .472157
4 1 .234867 .004787 .532490
5 1 .008218 .588269 .510197
6 1 .527083 .465959 .983020
7 1 .501012 .451584 .010273
ITEM: TIMESTEP
300
ITEM: NUMBER OF ATOMS
7
ITEM: BOX BOUNDS ss ss ss
-3.3652 2.8906
-2.6837 3.3376
-1.8349 2.2422
ITEM: ATOMS id type xs ys zs
1 1 .471363 .991695 .479765
2 1 .994359 .665951 .461467
3 1 .846077 .049705 .471803
4 1 .235273 .005059 .533591
5 1 .009687 .587745 .509695
6 1 .530241 .465309 .985450
7 1 .501910 .452069 .008399
ITEM: TIMESTEP
350
ITEM: NUMBER OF ATOMS
7
ITEM: BOX BOUNDS ss ss ss
-3.3719 2.8976
-2.6837 3.3376
-1.8391 2.2302
ITEM: ATOMS id type xs ys zs
1 1 .471056 .990423 .481196
2 1 .994876 .665821 .462917
3 1 .845364 .050608 .473026
4 1 .235734 .004925 .540655
5 1 .012415 .588151 .510610
6 1 .529963 .465480 .987745
7 1 .502764 .453314 .011496
ITEM: TIMESTEP
400
ITEM: NUMBER OF ATOMS
7
ITEM: BOX BOUNDS ss ss ss
-3.3823 2.9013
-2.6983 3.3376
-1.8492 2.2320
ITEM: ATOMS id type xs ys zs
1 1 .474080 .990467 .486811
2 1 .990841 .665868 .464912
3 1 .843317 .051880 .478566
4 1 .237134 .006860 .535557
5 1 .011438 .587888 .514063
6 1 .527447 .466308 .984107
7 1 .500972 .452816 .018485
ITEM: TIMESTEP
1
ITEM: NUMBER OF ATOMS
7
ITEM: BOX BOUNDS ss ss ss
-3.3574 2.8829
-2.6837 3.3376
-1.8252 2.2120
ITEM: ATOMS id type xs ys zs
1 1 .468653 .991389 .482608
2 1 .995410 .664267 .467922
3 1 .849337 .052102 .483734
4 1 .231397 .006658 .526957
5 1 .007437 .589456 .515181
6 1 .530793 .462354 .999022
7 1 .498804 .454959 .009678
ITEM: TIMESTEP
50
ITEM: NUMBER OF ATOMS
7
ITEM: BOX BOUNDS ss ss ss
-3.3574 2.8843
-2.6837 3.3376
-1.8252 2.2407
ITEM: ATOMS id type xs ys zs
1 1 .467382 .991760 .480326
2 1 .996824 .662729 .466086
3 1 .850084 .051165 .479959
4 1 .228674 .005798 .523296
5 1 .009429 .589002 .511256
6 1 .529596 .462995 .993026
7 1 .497675 .453775 .011061
ITEM: TIMESTEP
100
ITEM: NUMBER OF ATOMS
7
ITEM: BOX BOUNDS ss ss ss
-3.3574 2.8966
-2.6837 3.3376
-1.8252 2.2491
ITEM: ATOMS id type xs ys zs
1 1 .466951 .989531 .476425
2 1 .993259 .665179 .466716
3 1 .849948 .050699 .485532
4 1 .233214 .007179 .518615
5 1 .006010 .587479 .506435
6 1 .527907 .461552 .989203
7 1 .499003 .454748 .009752
ITEM: TIMESTEP
150
ITEM: NUMBER OF ATOMS
7
ITEM: BOX BOUNDS ss ss ss
-3.3574 2.9007
-2.6837 3.3376
-1.8296 2.2451
ITEM: ATOMS id type xs ys zs
1 1 .467419 .989664 .483795
2 1 .993239 .666131 .462293
3 1 .847409 .052079 .484439
4 1 .232286 .010237 .524789
5 1 .008463 .587979 .513556
6 1 .529225 .463571 .987631
7 1 .501326 .455068 .010765
ITEM: TIMESTEP
200
ITEM: NUMBER OF ATOMS
7
ITEM: BOX BOUNDS ss ss ss
-3.3582 2.8953
-2.6837 3.3376
-1.8252 2.2384
ITEM: ATOMS id type xs ys zs
1 1 .468080 .989147 .485795
2 1 .995406 .666868 .461112
3 1 .848791 .054789 .485057
4 1 .229698 .009293 .522546
5 1 .009661 .591602 .515918
6 1 .531513 .464002 .989293
7 1 .504536 .454841 .011482
ITEM: TIMESTEP
250
ITEM: NUMBER OF ATOMS
7
ITEM: BOX BOUNDS ss ss ss
-3.3625 2.8984
-2.6837 3.3376
-1.8288 2.2263
ITEM: ATOMS id type xs ys zs
1 1 .472353 .988519 .486178
2 1 .991961 .666505 .463198
3 1 .847883 .052931 .487822
4 1 .235016 .008361 .530758
5 1 .005391 .584389 .521400
6 1 .527732 .465516 .985350
7 1 .501306 .455926 .012866
ITEM: TIMESTEP
300
ITEM: NUMBER OF ATOMS
7
ITEM: BOX BOUNDS ss ss ss
-3.3712 2.9048
-2.6843 3.3376
-1.8449 2.2265
ITEM: ATOMS id type xs ys zs
1 1 .471160 .990907 .485068
2 1 .991870 .667739 .464402
3 1 .846895 .050198 .486064
4 1 .237535 .004169 .525708
5 1 .007875 .588476 .523489
6 1 .527300 .460553 .983133
7 1 .500961 .452014 .012245
ITEM: TIMESTEP
350
ITEM: NUMBER OF ATOMS
7
ITEM: BOX BOUNDS ss ss ss
-3.3663 2.9087
-2.6837 3.3376
-1.8439 2.2195
ITEM: ATOMS id type xs ys zs
1 1 .470349 .991920 .486487
2 1 .991800 .669363 .465347
3 1 .842763 .051268 .485572
4 1 .238647 .003194 .525063
5 1 .005510 .587963 .523076
6 1 .527878 .458754 .984810
7 1 .500665 .451916 .012408
ITEM: TIMESTEP
400
ITEM: NUMBER OF ATOMS
7
ITEM: BOX BOUNDS ss ss ss
-3.3654 2.9040
-2.6980 3.3376
-1.8392 2.2080
ITEM: ATOMS id type xs ys zs
1 1 .475007 .993223 .483892
2 1 .992207 .667007 .461600
3 1 .851585 .051489 .490873
4 1 .235628 .006459 .526067
5 1 .005009 .589509 .520361
6 1 .521560 .459313 .979063
7 1 .502153 .449895 .008405
ITEM: TIMESTEP
1
ITEM: NUMBER OF ATOMS
7
ITEM: BOX BOUNDS ss ss ss
-3.3421 2.8841
-2.6938 3.3232
-1.8174 2.2119
ITEM: ATOMS id type xs ys zs
1 1 .467164 .993592 .481930
2 1 .995489 .666403 .466922
3 1 .848795 .054194 .482329
4 1 .229365 .008160 .526330
5 1 .005202 .591434 .514313
6 1 .529473 .464353 .999089
7 1 .497584 .456673 .008384
ITEM: TIMESTEP
50
ITEM: NUMBER OF ATOMS
7
ITEM: BOX BOUNDS ss ss ss
-3.3421 2.8889
-2.6938 3.3232
-1.8174 2.2406
ITEM: ATOMS id type xs ys zs
1 1 .468057 .993952 .475540
2 1 .994604 .663414 .462081
3 1 .846474 .055426 .479626
4 1 .228612 .008847 .521476
5 1 .004259 .591099 .514270
6 1 .530951 .463936 .994569
7 1 .497650 .457042 .008843
ITEM: TIMESTEP
100
ITEM: NUMBER OF ATOMS
7
ITEM: BOX BOUNDS ss ss ss
-3.3507 2.8934
-2.6938 3.3232
-1.8289 2.2544
ITEM: ATOMS id type xs ys zs
1 1 .467477 .992486 .479877
2 1 .991562 .668759 .463040
3 1 .844724 .053867 .475823
4 1 .229837 .008175 .526610
5 1 .007097 .594471 .509080
6 1 .530363 .463700 .987558
7 1 .498114 .456146 .009516
ITEM: TIMESTEP
150
ITEM: NUMBER OF ATOMS
7
ITEM: BOX BOUNDS ss ss ss
-3.3556 2.8922
-2.6938 3.3232
-1.8219 2.2479
ITEM: ATOMS id type xs ys zs
1 1 .470816 .994119 .474798
2 1 .994963 .668027 .466755
3 1 .843570 .051782 .476774
4 1 .230197 .011255 .521644
5 1 .004820 .594162 .512933
6 1 .531377 .465006 .988916
7 1 .500774 .456379 .006330
ITEM: TIMESTEP
200
ITEM: NUMBER OF ATOMS
7
ITEM: BOX BOUNDS ss ss ss
-3.3663 2.8967
-2.6938 3.3232
-1.8314 2.2401
ITEM: ATOMS id type xs ys zs
1 1 .470181 .992956 .487264
2 1 .991933 .672226 .466463
3 1 .845830 .051220 .481618
4 1 .230156 .009246 .520409
5 1 .011456 .595482 .513436
6 1 .531910 .463722 .989028
7 1 .504498 .455320 .010097
ITEM: TIMESTEP
250
ITEM: NUMBER OF ATOMS
7
ITEM: BOX BOUNDS ss ss ss
-3.3746 2.9045
-2.6938 3.3232
-1.8344 2.2303
ITEM: ATOMS id type xs ys zs
1 1 .473698 .993490 .482914
2 1 .991757 .670743 .472233
3 1 .845887 .052161 .484898
4 1 .232987 .006388 .528190
5 1 .005865 .590130 .519193
6 1 .526580 .464944 .989711
7 1 .498742 .454788 .011712
ITEM: TIMESTEP
300
ITEM: NUMBER OF ATOMS
7
ITEM: BOX BOUNDS ss ss ss
-3.3759 2.9054
-2.6938 3.3371
-1.8337 2.2460
ITEM: ATOMS id type xs ys zs
1 1 .470433 .988415 .485355
2 1 .992713 .663046 .464341
3 1 .841042 .049999 .477133
4 1 .234183 .011192 .524614
5 1 .009431 .592422 .512038
6 1 .529019 .463490 .989776
7 1 .502545 .456362 .018384
ITEM: TIMESTEP
350
ITEM: NUMBER OF ATOMS
7
ITEM: BOX BOUNDS ss ss ss
-3.3751 2.9071
-2.6938 3.3379
-1.8292 2.2383
ITEM: ATOMS id type xs ys zs
1 1 .470518 .988345 .482573
2 1 .990325 .666944 .462598
3 1 .843478 .050673 .474605
4 1 .230106 .013507 .530110
5 1 .009934 .595358 .517318
6 1 .529652 .460459 .981523
7 1 .505280 .455704 .008523
ITEM: TIMESTEP
400
ITEM: NUMBER OF ATOMS
7
ITEM: BOX BOUNDS ss ss ss
-3.3730 2.8927
-2.6938 3.3315
-1.8344 2.2415
ITEM: ATOMS id type xs ys zs
1 1 .474714 .991063 .494086
2 1 .996035 .664549 .464097
3 1 .845099 .046358 .490942
4 1 .230408 .014151 .530312
5 1 .011256 .597736 .512151
6 1 .532475 .464911 .981993
7 1 .503155 .454255 .014495
ITEM: TIMESTEP
1
ITEM: NUMBER OF ATOMS
7
ITEM: BOX BOUNDS ss ss ss
-3.3484 2.8841
-2.6938 3.3232
-1.8174 2.2130
ITEM: ATOMS id type xs ys zs
1 1 .467992 .993314 .481582
2 1 .995210 .666393 .466733
3 1 .848922 .053964 .482711
4 1 .230008 .008561 .525556
5 1 .006208 .591063 .514553
6 1 .530288 .464289 .999130
7 1 .497916 .457066 .008757
ITEM: TIMESTEP
50
ITEM: NUMBER OF ATOMS
7
ITEM: BOX BOUNDS ss ss ss
-3.3484 2.8847
-2.6938 3.3232
-1.8174 2.2429
ITEM: ATOMS id type xs ys zs
1 1 .466741 .993594 .478733
2 1 .995200 .666419 .461764
3 1 .848403 .053421 .481170
4 1 .229164 .008968 .522287
5 1 .006420 .592265 .510639
6 1 .532242 .464731 .988832
7 1 .497711 .455877 .007683
ITEM: TIMESTEP
100
ITEM: NUMBER OF ATOMS
7
ITEM: BOX BOUNDS ss ss ss
-3.3579 2.8885
-2.6938 3.3232
-1.8198 2.2585
ITEM: ATOMS id type xs ys zs
1 1 .470094 .993296 .474748
2 1 .995721 .667180 .460124
3 1 .848873 .052727 .479832
4 1 .229400 .009251 .524035
5 1 .009095 .588538 .507355
6 1 .532659 .464331 .989546
7 1 .501713 .454219 .011504
ITEM: TIMESTEP
150
ITEM: NUMBER OF ATOMS
7
ITEM: BOX BOUNDS ss ss ss
-3.3709 2.8937
-2.6938 3.3303
-1.8232 2.2431
ITEM: ATOMS id type xs ys zs
1 1 .466666 .994608 .476499
2 1 .993825 .665608 .462672
3 1 .848886 .052514 .478788
4 1 .237175 .007546 .521937
5 1 .005792 .588487 .507182
6 1 .532745 .468089 .986690
7 1 .501048 .455715 .014070
ITEM: TIMESTEP
200
ITEM: NUMBER OF ATOMS
7
ITEM: BOX BOUNDS ss ss ss
-3.3803 2.9015
-2.6938 3.3315
-1.8245 2.2466
ITEM: ATOMS id type xs ys zs
1 1 .467064 .994091 .478746
2 1 .993211 .665239 .462924
3 1 .849765 .051505 .478347
4 1 .237522 .008197 .519681
5 1 .008768 .588328 .505661
6 1 .532337 .469218 .989785
7 1 .502132 .456522 .014686
ITEM: TIMESTEP
250
ITEM: NUMBER OF ATOMS
7
ITEM: BOX BOUNDS ss ss ss
-3.3875 2.9030
-2.6938 3.3398
-1.8323 2.2375
ITEM: ATOMS id type xs ys zs
1 1 .471729 .990090 .479527
2 1 .991560 .669162 .468174
3 1 .850872 .055602 .492156
4 1 .234903 .007785 .523343
5 1 .011566 .586149 .506238
6 1 .529562 .464161 .984055
7 1 .505267 .451087 .017250
ITEM: TIMESTEP
300
ITEM: NUMBER OF ATOMS
7
ITEM: BOX BOUNDS ss ss ss
-3.3728 2.8973
-2.6938 3.3460
-1.8437 2.2257
ITEM: ATOMS id type xs ys zs
1 1 .473148 .989644 .484001
2 1 .991213 .669291 .471213
3 1 .851312 .055227 .494802
4 1 .232476 .007418 .526999
5 1 .008102 .584314 .507673
6 1 .531738 .463707 .986449
7 1 .505093 .454324 .020524
ITEM: TIMESTEP
350
ITEM: NUMBER OF ATOMS
7
ITEM: BOX BOUNDS ss ss ss
-3.3771 2.9018
-2.6938 3.3368
-1.8392 2.2206
ITEM: ATOMS id type xs ys zs
1 1 .471155 .995153 .483670