ITEM: TIMESTEP
1
ITEM: NUMBER OF ATOMS
7
ITEM: BOX BOUNDS ss ss ss
-3.3136 2.8588
-2.6475 3.2879
-1.7868 2.2115
ITEM: ATOMS id type xs ys zs
1 1 .466760 .999472 .477914
2 1 .999329 .667605 .463003
3 1 .851465 .046873 .478955
4 1 .226749 .000685 .522640
5 1 .000601 .591579 .510725
6 1 .529401 .462770 .998849
7 1 .497342 .455397 .001064
ITEM: TIMESTEP
50
ITEM: NUMBER OF ATOMS
7
ITEM: BOX BOUNDS ss ss ss
-3.3370 2.8801
-2.6690 3.3100
-1.8103 2.2355
ITEM: ATOMS id type xs ys zs
1 1 .466622 .996305 .476788
2 1 .995082 .665929 .462562
3 1 .849950 .050113 .478791
4 1 .232073 .004242 .525925
5 1 .004988 .589558 .513915
6 1 .529031 .464222 .988330
7 1 .500445 .454373 .005971
ITEM: TIMESTEP
100
ITEM: NUMBER OF ATOMS
7
ITEM: BOX BOUNDS ss ss ss
-3.3479 2.8876
-2.6726 3.3167
-1.8171 2.2357
ITEM: ATOMS id type xs ys zs
1 1 .468333 .996016 .479800
2 1 .993103 .666693 .462745
3 1 .846166 .048792 .481820
4 1 .232157 .002553 .524726
5 1 .007174 .590682 .515242
6 1 .526058 .463446 .986602
7 1 .500796 .452310 .008637
ITEM: TIMESTEP
150
ITEM: NUMBER OF ATOMS
7
ITEM: BOX BOUNDS ss ss ss
-3.3622 2.8901
-2.6805 3.3234
-1.8208 2.2294
ITEM: ATOMS id type xs ys zs
1 1 .469217 .996577 .480561
2 1 .991274 .669413 .464001
3 1 .846218 .049862 .484604
4 1 .235852 .004572 .527464
5 1 .009524 .589888 .518080
6 1 .527883 .466136 .987219
7 1 .500378 .453545 .011879
ITEM: TIMESTEP
200
ITEM: NUMBER OF ATOMS
7
ITEM: BOX BOUNDS ss ss ss
-3.3485 2.8837
-2.6863 3.3344
-1.8260 2.2294
ITEM: ATOMS id type xs ys zs
1 1 .469015 .996258 .478124
2 1 .992065 .667553 .465009
3 1 .844702 .050376 .484074
4 1 .235757 .005431 .529479
5 1 .004959 .590084 .520162
6 1 .526754 .466270 .984529
7 1 .499526 .452960 .014761
ITEM: TIMESTEP
250
ITEM: NUMBER OF ATOMS
7
ITEM: BOX BOUNDS ss ss ss
-3.3565 2.8866
-2.6929 3.3437
-1.8266 2.2283
ITEM: ATOMS id type xs ys zs
1 1 .470229 .993416 .482700
2 1 .992012 .666368 .464886
3 1 .846662 .050791 .484251
4 1 .233344 .005662 .527428
5 1 .006053 .588364 .519718
6 1 .525820 .464621 .982003
7 1 .500037 .452374 .013401
ITEM: TIMESTEP
300
ITEM: NUMBER OF ATOMS
7
ITEM: BOX BOUNDS ss ss ss
-3.3643 2.8804
-2.6926 3.3465
-1.8282 2.2171
ITEM: ATOMS id type xs ys zs
1 1 .472365 .995773 .486650
2 1 .993195 .664782 .464103
3 1 .847737 .049198 .482375
4 1 .234610 .005547 .525826
5 1 .007093 .589184 .522023
6 1 .527663 .464390 .981739
7 1 .500716 .452861 .013242
ITEM: TIMESTEP
350
ITEM: NUMBER OF ATOMS
7
ITEM: BOX BOUNDS ss ss ss
-3.3616 2.8865
-2.6941 3.3483
-1.8258 2.2252
ITEM: ATOMS id type xs ys zs
1 1 .473541 .994368 .480604
2 1 .992101 .662269 .464827
3 1 .846731 .048713 .485822
4 1 .237858 .003897 .529519
5 1 .008925 .587235 .519027
6 1 .524516 .465219 .982793
7 1 .500657 .451077 .013859
ITEM: TIMESTEP
400
ITEM: NUMBER OF ATOMS
7
ITEM: BOX BOUNDS ss ss ss
-3.3608 2.8860
-2.6998 3.3550
-1.8288 2.2146
ITEM: ATOMS id type xs ys zs
1 1 .473757 .992656 .482956
2 1 .992641 .660933 .467131
3 1 .846843 .049345 .487820
4 1 .237748 .004212 .532425
5 1 .008296 .586835 .522769
6 1 .524722 .465019 .985706
7 1 .500257 .451158 .015080
ITEM: TIMESTEP
1
ITEM: NUMBER OF ATOMS
7
ITEM: BOX BOUNDS ss ss ss
-3.3459 2.8620
-2.6978 3.3392
-1.7991 2.2114
ITEM: ATOMS id type xs ys zs
1 1 .469285 .990975 .479529
2 1 .998798 .664720 .464681
3 1 .851816 .054381 .480589
4 1 .230669 .008993 .524114
5 1 .005816 .589952 .512252
6 1 .531566 .463295 .998868
7 1 .499708 .456041 .004107
ITEM: TIMESTEP
50
ITEM: NUMBER OF ATOMS
7
ITEM: BOX BOUNDS ss ss ss
-3.3459 2.8783
-2.6978 3.3392
-1.8105 2.2393
ITEM: ATOMS id type xs ys zs
1 1 .468179 .990323 .477673
2 1 .995351 .664901 .463371
3 1 .848214 .053943 .479782
4 1 .231176 .008777 .522906
5 1 .005785 .590160 .510280
6 1 .528774 .462183 .986826
7 1 .499320 .455239 .007786
ITEM: TIMESTEP
100
ITEM: NUMBER OF ATOMS
7
ITEM: BOX BOUNDS ss ss ss
-3.3476 2.8860
-2.6978 3.3392
-1.8259 2.2401
ITEM: ATOMS id type xs ys zs
1 1 .469791 .991012 .482852
2 1 .992993 .663684 .468363
3 1 .847497 .052690 .481325
4 1 .233839 .009580 .524423
5 1 .005658 .588081 .511686
6 1 .525182 .463030 .988793
7 1 .500143 .455928 .012356
ITEM: TIMESTEP
150
ITEM: NUMBER OF ATOMS
7
ITEM: BOX BOUNDS ss ss ss
-3.3518 2.8846
-2.6978 3.3392
-1.8376 2.2383
ITEM: ATOMS id type xs ys zs
1 1 .470941 .991325 .479206
2 1 .992611 .663674 .467671
3 1 .846869 .051153 .485211
4 1 .236785 .008403 .526559
5 1 .005261 .590007 .518172
6 1 .525934 .464099 .987539
7 1 .500859 .454255 .015910
ITEM: TIMESTEP
200
ITEM: NUMBER OF ATOMS
7
ITEM: BOX BOUNDS ss ss ss
-3.3667 2.8825
-2.6978 3.3392
-1.8380 2.2359
ITEM: ATOMS id type xs ys zs
1 1 .473468 .992828 .483935
2 1 .992527 .664783 .464246
3 1 .847935 .051779 .483521
4 1 .236623 .008469 .523866
5 1 .009072 .588472 .521459
6 1 .526968 .464801 .986311
7 1 .502333 .453757 .014322
ITEM: TIMESTEP
250
ITEM: NUMBER OF ATOMS
7
ITEM: BOX BOUNDS ss ss ss
-3.3711 2.8800
-2.6978 3.3392
-1.8405 2.2311
ITEM: ATOMS id type xs ys zs
1 1 .474802 .994185 .483104
2 1 .993092 .664430 .464964
3 1 .848567 .052257 .486016
4 1 .237689 .008721 .528426
5 1 .007911 .588719 .521902
6 1 .525566 .466259 .986277
7 1 .501553 .453250 .014748
ITEM: TIMESTEP
300
ITEM: NUMBER OF ATOMS
7
ITEM: BOX BOUNDS ss ss ss
-3.3680 2.8877
-2.6978 3.3392
-1.8297 2.2371
ITEM: ATOMS id type xs ys zs
1 1 .473742 .992553 .483285
2 1 .992093 .663771 .462748
3 1 .847180 .051925 .486019
4 1 .237309 .005782 .523817
5 1 .008807 .588218 .520569
6 1 .524753 .464896 .982462
7 1 .500613 .452008 .012507
ITEM: TIMESTEP
350
ITEM: NUMBER OF ATOMS
7
ITEM: BOX BOUNDS ss ss ss
-3.3586 2.8889
-2.6978 3.3392
-1.8388 2.2291
ITEM: ATOMS id type xs ys zs
1 1 .473261 .994669 .483286
2 1 .991712 .665048 .465408
3 1 .847271 .051032 .487361
4 1 .236400 .005576 .524920
5 1 .007637 .588764 .522332
6 1 .525153 .465121 .983268
7 1 .498969 .452643 .015212
ITEM: TIMESTEP
400
ITEM: NUMBER OF ATOMS
7
ITEM: BOX BOUNDS ss ss ss
-3.3611 2.8869
-2.6978 3.3409
-1.8385 2.2286
ITEM: ATOMS id type xs ys zs
1 1 .473938 .994171 .485547
2 1 .993783 .663713 .464401
3 1 .847423 .050357 .487964
4 1 .237220 .005719 .527497
5 1 .007897 .590052 .521647
6 1 .525531 .465717 .981596
7 1 .501039 .452967 .016750
ITEM: TIMESTEP
1
ITEM: NUMBER OF ATOMS
7
ITEM: BOX BOUNDS ss ss ss
-3.3537 2.8735
-2.6978 3.3392
-1.8113 2.2118
ITEM: ATOMS id type xs ys zs
1 1 .469056 .990977 .481043
2 1 .996959 .664728 .466230
3 1 .850414 .054426 .482097
4 1 .231192 .008992 .525518
5 1 .007033 .589956 .513652
6 1 .531161 .463316 .998748
7 1 .499403 .456040 .007077
ITEM: TIMESTEP
50
ITEM: NUMBER OF ATOMS
7
ITEM: BOX BOUNDS ss ss ss
-3.3537 2.8817
-2.6978 3.3392
-1.8113 2.2394
ITEM: ATOMS id type xs ys zs
1 1 .470238 .991658 .473905
2 1 .995159 .665263 .462086
3 1 .849047 .053324 .481883
4 1 .233740 .009726 .520070
5 1 .007321 .591150 .510191
6 1 .529064 .463950 .989353
7 1 .499143 .454124 .004952
ITEM: TIMESTEP
100
ITEM: NUMBER OF ATOMS
7
ITEM: BOX BOUNDS ss ss ss
-3.3537 2.8910
-2.6978 3.3392
-1.8172 2.2386
ITEM: ATOMS id type xs ys zs
1 1 .470897 .993624 .479029
2 1 .992143 .667902 .465408
3 1 .849617 .054857 .481038
4 1 .233159 .009415 .525205
5 1 .006904 .590143 .509959
6 1 .526623 .465816 .988343
7 1 .498899 .454021 .007587
ITEM: TIMESTEP
150
ITEM: NUMBER OF ATOMS
7
ITEM: BOX BOUNDS ss ss ss
-3.3557 2.8841
-2.6978 3.3392
-1.8312 2.2421
ITEM: ATOMS id type xs ys zs
1 1 .471306 .993573 .478741
2 1 .992849 .669012 .465852
3 1 .850755 .055064 .486714
4 1 .236572 .007452 .527478
5 1 .007643 .590461 .510315
6 1 .527933 .466531 .985236
7 1 .499857 .453129 .010140
ITEM: TIMESTEP
200
ITEM: NUMBER OF ATOMS
7
ITEM: BOX BOUNDS ss ss ss
-3.3592 2.8834
-2.6978 3.3392
-1.8476 2.2386
ITEM: ATOMS id type xs ys zs
1 1 .472158 .993233 .479181
2 1 .993312 .670741 .467388
3 1 .849177 .055249 .491669
4 1 .237661 .007352 .529757
5 1 .007433 .588249 .513567
6 1 .527960 .467064 .983045
7 1 .500591 .452653 .016497
ITEM: TIMESTEP
250
ITEM: NUMBER OF ATOMS
7
ITEM: BOX BOUNDS ss ss ss
-3.3579 2.8822
-2.6978 3.3400
-1.8632 2.2348
ITEM: ATOMS id type xs ys zs
1 1 .469293 .994257 .489767
2 1 .992513 .668599 .471881
3 1 .850568 .055649 .488367
4 1 .238659 .007989 .531514
5 1 .006521 .589516 .514975
6 1 .525440 .466499 .983164
7 1 .501422 .453111 .017534
ITEM: TIMESTEP
300
ITEM: NUMBER OF ATOMS
7
ITEM: BOX BOUNDS ss ss ss
-3.3570 2.8777
-2.6978 3.3402
-1.8452 2.2255
ITEM: ATOMS id type xs ys zs
1 1 .474296 .993139 .484393
2 1 .995945 .666160 .472665
3 1 .850952 .054345 .490117
4 1 .238613 .007479 .529284
5 1 .004312 .590920 .517443
6 1 .525203 .465481 .985454
7 1 .502670 .454117 .016492
ITEM: TIMESTEP
350
ITEM: NUMBER OF ATOMS
7
ITEM: BOX BOUNDS ss ss ss
-3.3583 2.8790
-2.6978 3.3499
-1.8463 2.2262
ITEM: ATOMS id type xs ys zs
1 1 .475719 .992923 .485125
2 1 .995659 .666619 .470905
3 1 .851454 .053565 .490604
4 1 .239320 .005959 .535547
5 1 .006974 .587101 .516688
6 1 .525634 .465774 .983748
7 1 .503861 .452287 .018254
ITEM: TIMESTEP
400
ITEM: NUMBER OF ATOMS
7
ITEM: BOX BOUNDS ss ss ss
-3.3593 2.8889
-2.7037 3.3404
-1.8384 2.2407
ITEM: ATOMS id type xs ys zs
1 1 .472659 .994578 .480526
2 1 .993517 .668951 .468097
3 1 .851444 .055554 .490061
4 1 .239801 .005477 .536398
5 1 .009050 .587057 .513437
6 1 .526096 .468953 .978490
7 1 .502423 .452541 .015752
ITEM: TIMESTEP
1
ITEM: NUMBER OF ATOMS
7
ITEM: BOX BOUNDS ss ss ss
-3.3537 2.8893
-2.6979 3.3392
-1.8182 2.2122
ITEM: ATOMS id type xs ys zs
1 1 .467912 .990973 .481863
2 1 .994443 .664743 .467122
3 1 .848292 .054427 .482955
4 1 .230613 .008978 .526273
5 1 .007008 .589969 .514472
6 1 .529839 .463307 .998666
7 1 .498151 .456074 .008812
ITEM: TIMESTEP
50
ITEM: NUMBER OF ATOMS
7
ITEM: BOX BOUNDS ss ss ss
-3.3537 2.8893
-2.6979 3.3392
-1.8182 2.2424
ITEM: ATOMS id type xs ys zs
1 1 .468712 .991149 .476191
2 1 .995217 .664022 .462373
3 1 .846472 .054892 .477520
4 1 .231790 .007886 .524773
5 1 .007416 .589882 .511807
6 1 .527701 .464403 .988507
7 1 .500175 .455274 .009662
ITEM: TIMESTEP
100
ITEM: NUMBER OF ATOMS
7
ITEM: BOX BOUNDS ss ss ss
-3.3537 2.8893
-2.6979 3.3392
-1.8272 2.2433
ITEM: ATOMS id type xs ys zs
1 1 .470130 .991968 .478410
2 1 .996699 .663426 .462610
3 1 .845313 .054385 .478447
4 1 .232180 .007029 .527603
5 1 .006835 .590336 .513418
6 1 .525928 .464725 .985430
7 1 .500350 .455116 .013804
ITEM: TIMESTEP
150
ITEM: NUMBER OF ATOMS
7
ITEM: BOX BOUNDS ss ss ss
-3.3537 2.8948
-2.6979 3.3392
-1.8261 2.2389
ITEM: ATOMS id type xs ys zs
1 1 .470217 .993853 .477414
2 1 .993845 .663135 .463980
3 1 .844605 .053893 .479160
4 1 .231536 .006163 .528162
5 1 .006264 .591339 .515343
6 1 .525394 .466273 .984310
7 1 .499706 .454567 .013242
ITEM: TIMESTEP
200
ITEM: NUMBER OF ATOMS
7
ITEM: BOX BOUNDS ss ss ss
-3.3573 2.8983
-2.6978 3.3392
-1.8348 2.2329
ITEM: ATOMS id type xs ys zs
1 1 .471364 .993193 .478364
2 1 .993882 .663807 .465576
3 1 .845029 .053534 .482761
4 1 .233777 .008497 .532702
5 1 .007270 .590216 .515530
6 1 .525292 .465462 .983509
7 1 .499050 .454371 .015353
ITEM: TIMESTEP
250
ITEM: NUMBER OF ATOMS
7
ITEM: BOX BOUNDS ss ss ss
-3.3577 2.9006
-2.6978 3.3392
-1.8366 2.2299
ITEM: ATOMS id type xs ys zs
1 1 .471904 .993957 .479230
2 1 .991462 .665212 .465410
3 1 .843617 .052395 .481928
4 1 .233704 .008792 .531737
5 1 .008201 .592611 .518624
6 1 .525156 .465562 .984160
7 1 .498351 .454467 .014786
ITEM: TIMESTEP
300
ITEM: NUMBER OF ATOMS
7
ITEM: BOX BOUNDS ss ss ss
-3.3587 2.9138
-2.6825 3.3314
-1.8436 2.2297
ITEM: ATOMS id type xs ys zs
1 1 .471456 .996988 .481622
2 1 .988959 .664669 .471224
3 1 .842353 .048624 .483053
4 1 .233805 .004459 .535555
5 1 .008206 .591779 .518202
6 1 .524480 .464298 .984391
7 1 .498092 .452536 .016998
ITEM: TIMESTEP
350
ITEM: NUMBER OF ATOMS
7
ITEM: BOX BOUNDS ss ss ss
-3.3730 2.8970
-2.6829 3.3412
-1.8462 2.2301
ITEM: ATOMS id type xs ys zs
1 1 .472892 .994381 .484400
2 1 .990946 .664344 .472486
3 1 .844762 .049007 .485083
4 1 .235499 .003510 .536345
5 1 .008683 .589620 .519857
6 1 .525195 .463375 .981669
7 1 .500309 .452370 .018350
ITEM: TIMESTEP
400
ITEM: NUMBER OF ATOMS
7
ITEM: BOX BOUNDS ss ss ss
-3.3774 2.8912
-2.6896 3.3463
-1.8400 2.2219
ITEM: ATOMS id type xs ys zs
1 1 .473520 .994004 .484400
2 1 .993085 .663259 .471141
3 1 .845515 .048070 .485814
4 1 .237376 .004492 .534671
5 1 .010780 .589889 .519555
6 1 .526258 .464325 .985023
7 1 .501189 .452244 .018558
ITEM: TIMESTEP
1
ITEM: NUMBER OF ATOMS
7
ITEM: BOX BOUNDS ss ss ss
-3.3514 2.8829
-2.6837 3.3376
-1.8056 2.2119
ITEM: ATOMS id type xs ys zs
1 1 .468182 .991198 .480305
2 1 .995455 .664128 .465469
3 1 .849083 .052184 .481381
4 1 .230580 .006653 .524804
5 1 .006654 .589150 .512936
6 1 .530201 .462216 .998727
7 1 .498468 .454866 .005688
ITEM: TIMESTEP
50
ITEM: NUMBER OF ATOMS
7
ITEM: BOX BOUNDS ss ss ss
-3.3514 2.8829
-2.6837 3.3376
-1.8118 2.2413
ITEM: ATOMS id type xs ys zs
1 1 .469274 .991879 .478819
2 1 .995544 .664888 .463615
3 1 .848577 .051320 .478954
4 1 .231015 .005686 .522255
5 1 .005537 .588623 .510400
6 1 .528027 .462937 .991328
7 1 .498272 .453288 .008182
ITEM: TIMESTEP
100
ITEM: NUMBER OF ATOMS
7
ITEM: BOX BOUNDS ss ss ss
-3.3534 2.8900
-2.6837 3.3376
-1.8230 2.2470
ITEM: ATOMS id type xs ys zs
1 1 .469868 .993746 .481665
2 1 .993644 .664923 .465653
3 1 .846091 .050938 .480357
4 1 .231381 .007009 .525544
5 1 .005598 .590520 .512750
6 1 .527212 .463856 .987690
7 1 .497948 .455185 .009796
ITEM: TIMESTEP
150
ITEM: NUMBER OF ATOMS
7
ITEM: BOX BOUNDS ss ss ss
-3.3578 2.8886
-2.6837 3.3376
-1.8301 2.2511
ITEM: ATOMS id type xs ys zs
1 1 .469723 .996103 .482493
2 1 .992668 .666289 .464880
3 1 .846285 .052199 .483979
4 1 .233418 .008062 .522843
5 1 .005859 .589883 .515797
6 1 .528044 .463304 .984356
7 1 .500492 .455718 .013563
ITEM: TIMESTEP
200
ITEM: NUMBER OF ATOMS
7
ITEM: BOX BOUNDS ss ss ss
-3.3652 2.8923
-2.6837 3.3380
-1.8346 2.2441
ITEM: ATOMS id type xs ys zs
1 1 .471230 .996146 .483803
2 1 .990960 .665450 .466621
3 1 .846962 .051730 .483457
4 1 .233097 .007742 .527275
5 1 .007621 .589934 .519239
6 1 .527579 .463687 .984194
7 1 .500185 .455481 .015772
ITEM: TIMESTEP
250
ITEM: NUMBER OF ATOMS
7
ITEM: BOX BOUNDS ss ss ss
-3.3727 2.8867
-2.6837 3.3419
-1.8349 2.2346
ITEM: ATOMS id type xs ys zs
1 1 .471784 .995096 .484322
2 1 .992070 .665141 .471137
3 1 .846953 .051177 .488233
4 1 .234798 .005853 .528540
5 1 .010046 .589129 .520288
6 1 .527816 .463774 .986045
7 1 .501743 .454239 .016453
ITEM: TIMESTEP
300
ITEM: NUMBER OF ATOMS
7
ITEM: BOX BOUNDS ss ss ss
-3.3770 2.8840
-2.6837 3.3501
-1.8257 2.2346
ITEM: ATOMS id type xs ys zs
1 1 .473223 .993329 .483995
2 1 .991805 .664669 .472180
3 1 .846662 .050195 .490770
4 1 .237088 .006715 .526138
5 1 .010119 .588741 .518656
6 1 .524920 .462802 .988185
7 1 .502400 .455048 .013132
ITEM: TIMESTEP
350
ITEM: NUMBER OF ATOMS
7
ITEM: BOX BOUNDS ss ss ss
-3.3681 2.8865
-2.6837 3.3518
-1.8268 2.2416
ITEM: ATOMS id type xs ys zs
1 1 .474034 .994355 .487426
2 1 .993108 .666511 .468650
3 1 .848290 .051115 .485609
4 1 .237135 .005308 .526181
5 1 .007399 .590555 .516489
6 1 .524902 .463038 .983978
7 1 .500944 .454187 .018091
ITEM: TIMESTEP
400
ITEM: NUMBER OF ATOMS
7
ITEM: BOX BOUNDS ss ss ss
-3.3753 2.8884
-2.6906 3.3488
-1.8244 2.2385
ITEM: ATOMS id type xs ys zs
1 1 .475229 .994031 .485155
2 1 .995677 .663974 .469800
3 1 .849788 .050916 .488292
4 1 .240032 .003838 .525023
5 1 .007498 .589013 .512331
6 1 .523012 .465551 .981994
7 1 .502502 .453825 .018855
ITEM: TIMESTEP
1
ITEM: NUMBER OF ATOMS
7
ITEM: BOX BOUNDS ss ss ss
-3.3514 2.8829
-2.6837 3.3440
-1.8056 2.2122
ITEM: ATOMS id type xs ys zs
1 1 .468184 .990157 .480262
2 1 .995461 .663409 .465465
3 1 .849119 .052146 .481375
4 1 .230566 .006646 .524801
5 1 .006654 .588537 .512913
6 1 .530179 .461709 .998641
7 1 .498453 .454422 .005662
ITEM: TIMESTEP
50
ITEM: NUMBER OF ATOMS
7
ITEM: BOX BOUNDS ss ss ss
-3.3514 2.8867
-2.6837 3.3440
-1.8108 2.2414
ITEM: ATOMS id type xs ys zs
1 1 .468733 .989100 .478935
2 1 .993027 .663508 .461690
3 1 .847720 .050875 .475335
4 1 .230056 .006496 .520778
5 1 .007581 .589621 .513653
6 1 .529611 .462922 .989322
7 1 .498745 .454189 .005873
ITEM: TIMESTEP
100
ITEM: NUMBER OF ATOMS
7
ITEM: BOX BOUNDS ss ss ss
-3.3531 2.8954
-2.6837 3.3440
-1.8191 2.2487
ITEM: ATOMS id type xs ys zs
1 1 .467231 .988905 .477680
2 1 .992885 .663256 .460416
3 1 .847867 .049905 .478540
4 1 .230475 .006071 .520645
5 1 .005368 .589207 .513558
6 1 .528884 .461181 .983399
7 1 .496591 .453154 .007282
ITEM: TIMESTEP
150
ITEM: NUMBER OF ATOMS
7
ITEM: BOX BOUNDS ss ss ss
-3.3586 2.8976
-2.6837 3.3440
-1.8316 2.2478
ITEM: ATOMS id type xs ys zs
1 1 .466963 .990471 .480572
2 1 .992520 .666283 .462235
3 1 .844588 .051316 .481973
4 1 .234092 .005537 .524653
5 1 .006259 .587631 .512750
6 1 .529311 .464902 .982682
7 1 .496988 .452226 .009754
ITEM: TIMESTEP
200
ITEM: NUMBER OF ATOMS
7
ITEM: BOX BOUNDS ss ss ss
-3.3613 2.8978
-2.6837 3.3440
-1.8328 2.2480
ITEM: ATOMS id type xs ys zs
1 1 .466846 .992062 .472987
2 1 .991560 .664702 .463015
3 1 .845660 .051033 .484124
4 1 .235669 .005829 .526916
5 1 .007347 .587582 .513343
6 1 .528445 .466314 .981415
7 1 .498198 .450441 .012882
ITEM: TIMESTEP
250
ITEM: NUMBER OF ATOMS
7
ITEM: BOX BOUNDS ss ss ss
-3.3701 2.8895
-2.6854 3.3440
-1.8442 2.2522
ITEM: ATOMS id type xs ys zs
1 1 .470228 .991556 .480978
2 1 .992740 .665502 .464406
3 1 .846221 .051738 .479836
4 1 .236770 .006252 .526303
5 1 .007139 .588191 .514090
6 1 .528640 .465648 .980712
7 1 .499130 .452572 .013514
ITEM: TIMESTEP
300
ITEM: NUMBER OF ATOMS
7
ITEM: BOX BOUNDS ss ss ss
-3.3794 2.8938
-2.6867 3.3440
-1.8407 2.2505
ITEM: ATOMS id type xs ys zs
1 1 .470824 .993998 .480623
2 1 .993508 .664910 .467804
3 1 .846060 .052645 .477608
4 1 .239073 .007587 .524397
5 1 .007672 .590137 .519291
6 1 .527750 .467242 .979817
7 1 .499192 .453870 .012863
ITEM: TIMESTEP
350
ITEM: NUMBER OF ATOMS
7
ITEM: BOX BOUNDS ss ss ss
-3.3720 2.8927
-2.6837 3.3440
-1.8366 2.2579
ITEM: ATOMS id type xs ys zs
1 1 .470186 .993314 .479327
2 1 .992316 .666091 .464283
3 1 .845685 .050051 .475338
4 1 .237702 .006374 .524290
5 1 .007770 .589699 .518739
6 1 .526894 .465509 .976691
7 1 .499381 .455361 .014595
ITEM: TIMESTEP
400
ITEM: NUMBER OF ATOMS
7
ITEM: BOX BOUNDS ss ss ss
-3.3811 2.8891
-2.6922 3.3440
-1.8427 2.2380
ITEM: ATOMS id type xs ys zs
1 1 .469911 .994893 .483026
2 1 .992704 .666624 .466057
3 1 .846209 .052543 .480536
4 1 .238573 .008505 .527127
5 1 .008212 .590204 .524388
6 1 .526907 .466124 .980631
7 1 .499906 .456528 .016322
ITEM: TIMESTEP
1
ITEM: NUMBER OF ATOMS
7
ITEM: BOX BOUNDS ss ss ss
-3.3535 2.8829
-2.6837 3.3376
-1.8245 2.2119
ITEM: ATOMS id type xs ys zs
1 1 .468360 .991231 .482726
2 1 .995463 .664122 .467977
3 1 .849157 .052205 .483828
4 1 .230832 .006647 .527049
5 1 .006974 .589135 .515233
6 1 .530393 .462173 .998739
7 1 .498665 .454903 .010345
ITEM: TIMESTEP
50
ITEM: NUMBER OF ATOMS
7
ITEM: BOX BOUNDS ss ss ss
-3.3535 2.8881
-2.6837 3.3376
-1.8245 2.2410
ITEM: ATOMS id type xs ys zs
1 1 .467550 .991688 .479785
2 1 .994747 .664150 .465389
3 1 .847585 .052364 .477905
4 1 .231310 .005982 .523131
5 1 .005847 .587750 .512807
6 1 .529229 .464927 .989156
7 1 .499462 .454054 .011692
ITEM: TIMESTEP
100
ITEM: NUMBER OF ATOMS
7
ITEM: BOX BOUNDS ss ss ss
-3.3535 2.8947
-2.6837 3.3376
-1.8245 2.2490
ITEM: ATOMS id type xs ys zs
1 1 .467830 .993545 .478449
2 1 .994129 .667078 .460677
3 1 .849406 .054257 .481620
4 1 .231010 .004731 .523654
5 1 .006747 .589426 .511521
6 1 .527067 .462425 .983030
7 1 .499841 .454202 .011408
ITEM: TIMESTEP
150
ITEM: NUMBER OF ATOMS
7
ITEM: BOX BOUNDS ss ss ss
-3.3643 2.8963
-2.6837 3.3376
-1.8291 2.2517
ITEM: ATOMS id type xs ys zs
1 1 .471969 .991829 .476499
2 1 .992185 .666406 .462959
3 1 .843229 .051331 .477865
4 1 .231152 .005995 .527806
5 1 .009525 .590235 .512417
6 1 .526332 .464559 .983271
7 1 .499858 .452222 .013199
ITEM: TIMESTEP
200
ITEM: NUMBER OF ATOMS
7
ITEM: BOX BOUNDS ss ss ss
-3.3596 2.9006
-2.6837 3.3376
-1.8245 2.2479
ITEM: ATOMS id type xs ys zs
1 1 .471096 .993504 .476950
2 1 .990482 .665895 .460415
3 1 .842882 .051163 .476742
4 1 .232211 .006181 .528123
5 1 .008048 .589721 .512917
6 1 .525429 .465142 .985831
7 1 .498979 .452798 .010727
ITEM: TIMESTEP
250
ITEM: NUMBER OF ATOMS
7
ITEM: BOX BOUNDS ss ss ss
-3.3630 2.9012
-2.6848 3.3376
-1.8333 2.2450
ITEM: ATOMS id type xs ys zs
1 1 .473287 .991668 .479523
2 1 .992727 .663872 .457501
3 1 .843387 .048444 .477151
4 1 .235072 .005988 .528984
5 1 .007822 .588834 .508571
6 1 .526969 .465262 .982428
7 1 .500019 .451538 .009751
ITEM: TIMESTEP
300
ITEM: NUMBER OF ATOMS
7
ITEM: BOX BOUNDS ss ss ss
-3.3652 2.8906
-2.6837 3.3376
-1.8349 2.2422
ITEM: ATOMS id type xs ys zs
1 1 .473781 .992714 .481839
2 1 .994289 .662870 .463908
3 1 .846590 .048529 .476524
4 1 .235215 .004696 .534192
5 1 .007365 .589479 .513639
6 1 .528777 .465776 .980929
7 1 .501025 .452276 .009832
ITEM: TIMESTEP
350
ITEM: NUMBER OF ATOMS
7
ITEM: BOX BOUNDS ss ss ss
-3.3719 2.8976
-2.6837 3.3376
-1.8391 2.2302
ITEM: ATOMS id type xs ys zs
1 1 .473621 .991503 .481639
2 1 .992168 .664992 .464844
3 1 .846096 .048738 .478756
4 1 .237558 .004711 .536077
5 1 .008351 .589416 .513487
6 1 .528043 .466357 .981332
7 1 .501728 .451758 .012403
ITEM: TIMESTEP
400
ITEM: NUMBER OF ATOMS
7
ITEM: BOX BOUNDS ss ss ss
-3.3823 2.9013
-2.6983 3.3376
-1.8492 2.2320
ITEM: ATOMS id type xs ys zs
1 1 .473920 .993209 .485170
2 1 .993124 .667169 .463948
3 1 .845079 .051562 .481668
4 1 .238429 .009480 .532401
5 1 .013197 .590960 .514015
6 1 .527241 .466116 .978788
7 1 .500530 .452510 .013941
ITEM: TIMESTEP
1
ITEM: NUMBER OF ATOMS
7
ITEM: BOX BOUNDS ss ss ss
-3.3574 2.8829
-2.6837 3.3376
-1.8252 2.2120
ITEM: ATOMS id type xs ys zs
1 1 .468669 .991250 .482852
2 1 .995472 .664141 .468076
3 1 .849205 .052206 .483901
4 1 .231323 .006646 .527078
5 1 .007609 .589150 .515305
6 1 .530655 .462201 .998702
7 1 .498955 .454914 .010504
ITEM: TIMESTEP
50
ITEM: NUMBER OF ATOMS
7
ITEM: BOX BOUNDS ss ss ss
-3.3574 2.8843
-2.6837 3.3376
-1.8252 2.2407
ITEM: ATOMS id type xs ys zs
1 1 .470158 .991415 .477931
2 1 .996071 .663989 .465321
3 1 .848264 .051560 .480339
4 1 .230748 .005638 .524301
5 1 .008696 .589136 .511801
6 1 .528811 .462544 .987776
7 1 .498562 .454772 .010263
ITEM: TIMESTEP
100
ITEM: NUMBER OF ATOMS
7
ITEM: BOX BOUNDS ss ss ss
-3.3574 2.8966
-2.6837 3.3376
-1.8252 2.2491
ITEM: ATOMS id type xs ys zs
1 1 .468636 .990456 .480333
2 1 .993416 .664789 .458888
3 1 .848736 .051810 .482159
4 1 .233545 .006732 .522314
5 1 .006445 .588435 .515175
6 1 .528445 .463507 .984590
7 1 .499752 .454107 .010463
ITEM: TIMESTEP
150
ITEM: NUMBER OF ATOMS
7
ITEM: BOX BOUNDS ss ss ss
-3.3574 2.9007
-2.6837 3.3376
-1.8296 2.2451
ITEM: ATOMS id type xs ys zs
1 1 .469982 .990531 .481692
2 1 .992630 .664768 .459408
3 1 .848729 .050640 .484067
4 1 .233392 .006557 .522366
5 1 .006238 .588159 .516005
6 1 .526747 .462775 .979402
7 1 .499842 .454480 .009263
ITEM: TIMESTEP
200
ITEM: NUMBER OF ATOMS
7
ITEM: BOX BOUNDS ss ss ss
-3.3582 2.8953
-2.6837 3.3376
-1.8252 2.2384
ITEM: ATOMS id type xs ys zs
1 1 .470166 .991910 .480533
2 1 .992885 .664729 .459042
3 1 .848981 .050969 .484982
4 1 .234408 .005996 .521049
5 1 .005991 .587246 .516781
6 1 .525932 .463062 .980915
7 1 .499911 .452663 .006845
ITEM: TIMESTEP
250
ITEM: NUMBER OF ATOMS
7
ITEM: BOX BOUNDS ss ss ss
-3.3625 2.8984
-2.6837 3.3376
-1.8288 2.2263
ITEM: ATOMS id type xs ys zs
1 1 .471433 .993066 .482236
2 1 .992371 .664971 .459013
3 1 .848250 .050509 .486110
4 1 .234653 .004658 .523807
5 1 .007403 .590003 .515173
6 1 .527223 .462836 .980368
7 1 .500202 .453547 .011714
ITEM: TIMESTEP
300
ITEM: NUMBER OF ATOMS
7
ITEM: BOX BOUNDS ss ss ss
-3.3712 2.9048
-2.6843 3.3376
-1.8449 2.2265
ITEM: ATOMS id type xs ys zs
1 1 .473467 .992448 .482310
2 1 .991229 .663777 .460520
3 1 .847091 .050472 .485216
4 1 .236103 .004321 .529086
5 1 .008713 .589029 .516542
6 1 .524203 .463898 .980043
7 1 .500328 .451365 .014071
ITEM: TIMESTEP
350
ITEM: NUMBER OF ATOMS
7
ITEM: BOX BOUNDS ss ss ss
-3.3663 2.9087
-2.6837 3.3376
-1.8439 2.2195
ITEM: ATOMS id type xs ys zs
1 1 .471856 .991639 .483893
2 1 .988952 .664567 .461123
3 1 .845892 .048885 .486812
4 1 .235803 .002411 .524118
5 1 .006673 .586913 .521757
6 1 .522943 .462827 .981281
7 1 .499894 .451055 .012048
ITEM: TIMESTEP
400
ITEM: NUMBER OF ATOMS
7
ITEM: BOX BOUNDS ss ss ss
-3.3654 2.9040
-2.6980 3.3376
-1.8392 2.2080
ITEM: ATOMS id type xs ys zs
1 1 .472481 .992722 .484152
2 1 .992986 .665323 .460757
3 1 .846493 .051407 .487815
4 1 .236997 .004476 .524232
5 1 .007744 .588466 .523388
6 1 .523848 .464422 .981354
7 1 .501113 .452965 .011164
ITEM: TIMESTEP
1
ITEM: NUMBER OF ATOMS
7
ITEM: BOX BOUNDS ss ss ss
-3.3421 2.8841
-2.6938 3.3232
-1.8174 2.2119
ITEM: ATOMS id type xs ys zs
1 1 .467285 .993592 .481823
2 1 .995223 .666271 .467045
3 1 .848729 .053940 .482908
4 1 .229365 .008344 .526236
5 1 .005164 .591240 .514377
6 1 .529405 .464178 .998725
7 1 .497604 .456904 .008606
ITEM: TIMESTEP
50
ITEM: NUMBER OF ATOMS
7
ITEM: BOX BOUNDS ss ss ss
-3.3421 2.8889
-2.6938 3.3232
-1.8174 2.2406
ITEM: ATOMS id type xs ys zs
1 1 .466861 .993212 .478294
2 1 .995640 .667151 .463374
3 1 .846521 .051682 .482235
4 1 .230143 .007985 .522711
5 1 .004063 .591381 .512177
6 1 .527445 .464502 .990028
7 1 .497494 .456459 .007682
ITEM: TIMESTEP
100
ITEM: NUMBER OF ATOMS
7
ITEM: BOX BOUNDS ss ss ss
-3.3507 2.8934
-2.6938 3.3232
-1.8289 2.2544
ITEM: ATOMS id type xs ys zs
1 1 .469447 .993774 .477884
2 1 .994600 .666868 .463518
3 1 .844866 .049677 .478875
4 1 .231031 .010146 .520934
5 1 .006109 .594483 .513119
6 1 .528500 .464922 .984098
7 1 .498885 .456477 .011133
ITEM: TIMESTEP
150
ITEM: NUMBER OF ATOMS
7
ITEM: BOX BOUNDS ss ss ss
-3.3556 2.8922
-2.6938 3.3232
-1.8219 2.2479
ITEM: ATOMS id type xs ys zs
1 1 .469388 .993458 .478360
2 1 .992672 .667661 .461199
3 1 .845333 .048883 .481604
4 1 .233856 .008791 .523850
5 1 .004566 .594620 .514536
6 1 .529455 .466094 .981202
7 1 .499176 .456825 .006629
ITEM: TIMESTEP
200
ITEM: NUMBER OF ATOMS
7
ITEM: BOX BOUNDS ss ss ss
-3.3663 2.8967
-2.6938 3.3232
-1.8314 2.2401
ITEM: ATOMS id type xs ys zs
1 1 .472817 .994593 .484646
2 1 .991733 .665493 .464600
3 1 .843697 .048569 .484509
4 1 .232801 .010624 .523330
5 1 .006734 .594423 .516025
6 1 .527834 .464641 .987541
7 1 .501205 .455190 .015274
ITEM: TIMESTEP
250
ITEM: NUMBER OF ATOMS
7
ITEM: BOX BOUNDS ss ss ss
-3.3746 2.9045
-2.6938 3.3232
-1.8344 2.2303
ITEM: ATOMS id type xs ys zs
1 1 .473455 .995299 .490194
2 1 .991518 .663439 .466036
3 1 .842805 .049310 .488246
4 1 .234032 .012648 .525035
5 1 .007588 .594213 .519452
6 1 .525715 .464970 .991040
7 1 .502747 .456627 .017068
ITEM: TIMESTEP
300
ITEM: NUMBER OF ATOMS
7
ITEM: BOX BOUNDS ss ss ss
-3.3759 2.9054
-2.6938 3.3371
-1.8337 2.2460
ITEM: ATOMS id type xs ys zs
1 1 .474357 .992613 .487481
2 1 .990658 .663378 .464561
3 1 .842516 .049316 .484054
4 1 .234531 .011104 .527322
5 1 .006666 .592825 .517357
6 1 .526995 .466305 .983765
7 1 .500264 .452873 .014824
ITEM: TIMESTEP
350
ITEM: NUMBER OF ATOMS
7
ITEM: BOX BOUNDS ss ss ss
-3.3751 2.9071
-2.6938 3.3379
-1.8292 2.2383
ITEM: ATOMS id type xs ys zs
1 1 .473855 .993579 .488768
2 1 .989906 .663203 .464152
3 1 .842887 .049330 .484021
4 1 .234962 .010036 .527548
5 1 .006889 .591654 .518365
6 1 .525236 .467122 .984053
7 1 .498683 .452712 .010350
ITEM: TIMESTEP
400
ITEM: NUMBER OF ATOMS
7
ITEM: BOX BOUNDS ss ss ss
-3.3730 2.8927
-2.6938 3.3315
-1.8344 2.2415
ITEM: ATOMS id type xs ys zs
1 1 .475965 .994409 .487327
2 1 .990610 .664069 .463673
3 1 .844976 .049185 .482247
4 1 .234373 .008980 .528325
5 1 .009146 .592670 .522280
6 1 .526501 .467209 .981456
7 1 .499900 .454681 .010814
ITEM: TIMESTEP
1
ITEM: NUMBER OF ATOMS
7
ITEM: BOX BOUNDS ss ss ss
-3.3484 2.8841
-2.6938 3.3232
-1.8174 2.2130
ITEM: ATOMS id type xs ys zs
1 1 .467798 .993620 .481680
2 1 .995264 .666263 .466917
3 1 .848860 .053905 .482733
4 1 .230138 .008329 .526039
5 1 .006157 .591265 .514239
6 1 .529856 .464169 .998495
7 1 .498130 .456883 .008584
ITEM: TIMESTEP
50
ITEM: NUMBER OF ATOMS
7
ITEM: BOX BOUNDS ss ss ss
-3.3484 2.8847
-2.6938 3.3232
-1.8174 2.2429
ITEM: ATOMS id type xs ys zs
1 1 .467367 .994074 .475259
2 1 .995797 .668085 .462802
3 1 .848583 .054190 .481339
4 1 .231920 .008286 .522110
5 1 .003108 .590981 .508225
6 1 .529898 .466613 .987811
7 1 .499696 .455412 .011107
ITEM: TIMESTEP
100
ITEM: NUMBER OF ATOMS
7
ITEM: BOX BOUNDS ss ss ss
-3.3579 2.8885
-2.6938 3.3232
-1.8198 2.2585
ITEM: ATOMS id type xs ys zs
1 1 .467202 .996875 .472836
2 1 .993486 .668177 .461994
3 1 .847315 .054077 .478261
4 1 .234170 .009632 .522662
5 1 .005098 .591304 .503172
6 1 .529770 .467332 .980457
7 1 .501603 .454211 .010530
ITEM: TIMESTEP
150
ITEM: NUMBER OF ATOMS
7
ITEM: BOX BOUNDS ss ss ss
-3.3709 2.8937
-2.6938 3.3303
-1.8232 2.2431
ITEM: ATOMS id type xs ys zs
1 1 .468407 .997594 .476603
2 1 .992631 .666756 .465075
3 1 .848316 .053727 .480753
4 1 .235844 .010574 .526057
5 1 .009272 .592014 .504200
6 1 .529189 .466249 .981974
7 1 .502296 .453444 .010043
ITEM: TIMESTEP
200
ITEM: NUMBER OF ATOMS
7
ITEM: BOX BOUNDS ss ss ss
-3.3803 2.9015
-2.6938 3.3315
-1.8245 2.2466
ITEM: ATOMS id type xs ys zs
1 1 .472021 .994109 .477233
2 1 .991634 .670100 .465366
3 1 .847103 .054658 .487313
4 1 .238222 .008572 .520818
5 1 .010954 .586772 .511382
6 1 .529063 .464809 .980238
7 1 .503778 .452446 .010793
ITEM: TIMESTEP
250
ITEM: NUMBER OF ATOMS
7
ITEM: BOX BOUNDS ss ss ss
-3.3875 2.9030
-2.6938 3.3398
-1.8323 2.2375
ITEM: ATOMS id type xs ys zs
1 1 .473179 .992358 .479788
2 1 .992902 .668636 .466377
3 1 .847909 .054769 .491131
4 1 .239198 .006474 .523419
5 1 .012084 .586330 .514552
6 1 .528739 .464723 .981279
7 1 .504219 .450868 .011369
ITEM: TIMESTEP
300
ITEM: NUMBER OF ATOMS
7
ITEM: BOX BOUNDS ss ss ss
-3.3728 2.8973
-2.6938 3.3460
-1.8437 2.2257
ITEM: ATOMS id type xs ys zs
1 1 .471889 .992525 .484313
2 1 .992298 .669347 .466684
3 1 .849723 .053687 .495989
4 1 .238414 .006700 .525296
5 1 .009746 .588554 .517084
6 1 .528880 .465206 .984427
7 1 .502964 .450215 .017967
ITEM: TIMESTEP
350
ITEM: NUMBER OF ATOMS
7
ITEM: BOX BOUNDS ss ss ss
-3.3771 2.9018
-2.6938 3.3368
-1.8392 2.2206
ITEM: ATOMS id type xs ys zs
1 1 .470796 .995021 .488209