ITEM: TIMESTEP
1
ITEM: NUMBER OF ATOMS
7
ITEM: BOX BOUNDS ss ss ss
-3.3136 2.8588
-2.6475 3.2879
-1.7868 2.2115
ITEM: ATOMS id type xs ys zs
1 1 .466647 .999385 .477813
2 1 .999378 .667594 .463032
3 1 .851540 .046921 .478967
4 1 .226625 .000681 .522617
5 1 .000647 .591591 .510574
6 1 .529514 .462728 .999145
7 1 .497271 .455437 .000974
ITEM: TIMESTEP
50
ITEM: NUMBER OF ATOMS
7
ITEM: BOX BOUNDS ss ss ss
-3.3370 2.8801
-2.6690 3.3100
-1.8103 2.2355
ITEM: ATOMS id type xs ys zs
1 1 .467202 .995675 .478050
2 1 .995806 .666442 .463408
3 1 .848917 .050334 .478971
4 1 .228959 .004550 .522453
5 1 .004208 .590801 .510436
6 1 .529628 .462802 .993291
7 1 .497800 .455409 .006722
ITEM: TIMESTEP
100
ITEM: NUMBER OF ATOMS
7
ITEM: BOX BOUNDS ss ss ss
-3.3479 2.8876
-2.6726 3.3167
-1.8171 2.2357
ITEM: ATOMS id type xs ys zs
1 1 .467674 .994938 .478481
2 1 .994161 .666333 .463383
3 1 .847603 .050455 .479604
4 1 .231857 .005428 .525243
5 1 .006227 .590053 .513481
6 1 .529262 .462913 .990869
7 1 .499602 .454523 .008148
ITEM: TIMESTEP
150
ITEM: NUMBER OF ATOMS
7
ITEM: BOX BOUNDS ss ss ss
-3.3622 2.8901
-2.6805 3.3234
-1.8208 2.2294
ITEM: ATOMS id type xs ys zs
1 1 .469291 .994405 .479939
2 1 .992547 .666800 .464083
3 1 .846906 .050665 .482144
4 1 .233880 .006091 .526816
5 1 .009122 .589635 .516432
6 1 .529180 .463583 .990185
7 1 .500985 .453699 .009555
ITEM: TIMESTEP
200
ITEM: NUMBER OF ATOMS
7
ITEM: BOX BOUNDS ss ss ss
-3.3485 2.8837
-2.6863 3.3344
-1.8260 2.2294
ITEM: ATOMS id type xs ys zs
1 1 .469129 .993160 .480843
2 1 .992728 .666800 .464831
3 1 .846844 .050602 .483296
4 1 .232731 .006579 .527488
5 1 .006839 .588938 .518050
6 1 .527820 .463626 .988432
7 1 .500479 .452781 .011377
ITEM: TIMESTEP
250
ITEM: NUMBER OF ATOMS
7
ITEM: BOX BOUNDS ss ss ss
-3.3565 2.8866
-2.6929 3.3437
-1.8266 2.2283
ITEM: ATOMS id type xs ys zs
1 1 .469838 .992024 .481419
2 1 .991822 .666471 .465475
3 1 .846478 .050911 .483807
4 1 .234018 .007513 .527902
5 1 .007593 .588581 .519237
6 1 .527312 .463939 .987243
7 1 .500818 .452470 .011748
ITEM: TIMESTEP
300
ITEM: NUMBER OF ATOMS
7
ITEM: BOX BOUNDS ss ss ss
-3.3643 2.8804
-2.6926 3.3465
-1.8282 2.2171
ITEM: ATOMS id type xs ys zs
1 1 .471276 .991901 .483456
2 1 .992773 .665742 .467492
3 1 .847533 .050555 .485845
4 1 .235678 .007138 .530157
5 1 .008499 .588445 .521431
6 1 .527577 .464191 .988499
7 1 .501656 .452141 .011999
ITEM: TIMESTEP
350
ITEM: NUMBER OF ATOMS
7
ITEM: BOX BOUNDS ss ss ss
-3.3616 2.8865
-2.6941 3.3483
-1.8258 2.2252
ITEM: ATOMS id type xs ys zs
1 1 .470873 .992086 .482516
2 1 .991912 .665353 .466657
3 1 .846835 .050592 .484709
4 1 .235334 .006886 .529220
5 1 .007804 .588263 .520475
6 1 .526185 .464373 .984983
7 1 .500825 .452200 .011549
ITEM: TIMESTEP
400
ITEM: NUMBER OF ATOMS
7
ITEM: BOX BOUNDS ss ss ss
-3.3608 2.8860
-2.6998 3.3550
-1.8288 2.2146
ITEM: ATOMS id type xs ys zs
1 1 .471365 .991674 .484301
2 1 .992117 .664566 .468322
3 1 .846959 .051138 .486523
4 1 .235636 .007069 .531229
5 1 .007705 .587859 .522426
6 1 .525489 .464490 .986505
7 1 .500821 .452322 .012841
ITEM: TIMESTEP
1
ITEM: NUMBER OF ATOMS
7
ITEM: BOX BOUNDS ss ss ss
-3.3459 2.8620
-2.6978 3.3392
-1.7991 2.2114
ITEM: ATOMS id type xs ys zs
1 1 .469181 .990905 .479421
2 1 .998872 .664697 .464688
3 1 .851878 .054467 .480574
4 1 .230532 .009004 .524093
5 1 .005841 .589970 .512078
6 1 .531691 .463278 .999162
7 1 .499631 .456110 .004039
ITEM: TIMESTEP
50
ITEM: NUMBER OF ATOMS
7
ITEM: BOX BOUNDS ss ss ss
-3.3459 2.8783
-2.6978 3.3392
-1.8105 2.2393
ITEM: ATOMS id type xs ys zs
1 1 .467971 .990734 .477603
2 1 .996117 .664784 .463016
3 1 .849457 .054678 .478590
4 1 .229914 .009324 .521838
5 1 .005551 .589887 .509792
6 1 .530531 .463066 .992587
7 1 .498586 .455821 .006655
ITEM: TIMESTEP
100
ITEM: NUMBER OF ATOMS
7
ITEM: BOX BOUNDS ss ss ss
-3.3476 2.8860
-2.6978 3.3392
-1.8259 2.2401
ITEM: ATOMS id type xs ys zs
1 1 .467965 .990457 .480432
2 1 .994016 .665231 .465315
3 1 .847562 .054286 .480803
4 1 .230943 .010177 .524027
5 1 .005220 .589580 .512095
6 1 .529071 .462989 .991178
7 1 .498986 .455312 .010295
ITEM: TIMESTEP
150
ITEM: NUMBER OF ATOMS
7
ITEM: BOX BOUNDS ss ss ss
-3.3518 2.8846
-2.6978 3.3392
-1.8376 2.2383
ITEM: ATOMS id type xs ys zs
1 1 .468628 .990014 .482957
2 1 .992926 .665337 .468434
3 1 .847019 .053786 .482715
4 1 .233072 .010764 .527806
5 1 .005232 .589219 .515208
6 1 .527493 .464155 .990542
7 1 .499949 .454167 .011462
ITEM: TIMESTEP
200
ITEM: NUMBER OF ATOMS
7
ITEM: BOX BOUNDS ss ss ss
-3.3667 2.8825
-2.6978 3.3392
-1.8380 2.2359
ITEM: ATOMS id type xs ys zs
1 1 .471029 .990107 .483326
2 1 .992864 .664874 .468314
3 1 .847319 .052902 .483187
4 1 .236409 .010401 .527694
5 1 .008068 .589182 .516743
6 1 .527945 .464631 .989989
7 1 .501853 .453810 .011706
ITEM: TIMESTEP
250
ITEM: NUMBER OF ATOMS
7
ITEM: BOX BOUNDS ss ss ss
-3.3711 2.8800
-2.6978 3.3392
-1.8405 2.2311
ITEM: ATOMS id type xs ys zs
1 1 .472554 .990601 .484269
2 1 .993146 .664705 .468626
3 1 .847619 .052164 .484443
4 1 .237700 .009896 .527803
5 1 .009275 .589391 .518607
6 1 .528112 .464701 .989868
7 1 .502759 .453840 .012571
ITEM: TIMESTEP
300
ITEM: NUMBER OF ATOMS
7
ITEM: BOX BOUNDS ss ss ss
-3.3680 2.8877
-2.6978 3.3392
-1.8297 2.2371
ITEM: ATOMS id type xs ys zs
1 1 .472497 .991287 .482408
2 1 .991789 .664726 .465784
3 1 .846677 .051780 .481989
4 1 .237184 .009069 .526060
5 1 .008877 .589737 .517734
6 1 .526787 .464726 .986384
7 1 .501509 .453622 .010188
ITEM: TIMESTEP
350
ITEM: NUMBER OF ATOMS
7
ITEM: BOX BOUNDS ss ss ss
-3.3586 2.8889
-2.6978 3.3392
-1.8388 2.2291
ITEM: ATOMS id type xs ys zs
1 1 .472126 .991808 .484994
2 1 .991598 .664782 .467162
3 1 .846520 .051738 .483922
4 1 .235960 .008223 .528627
5 1 .007272 .589721 .521113
6 1 .525539 .464683 .986766
7 1 .499936 .453251 .012657
ITEM: TIMESTEP
400
ITEM: NUMBER OF ATOMS
7
ITEM: BOX BOUNDS ss ss ss
-3.3611 2.8869
-2.6978 3.3409
-1.8385 2.2286
ITEM: ATOMS id type xs ys zs
1 1 .472787 .992005 .484927
2 1 .991966 .664628 .466626
3 1 .847078 .051640 .484435
4 1 .236424 .007502 .528541
5 1 .007732 .589419 .522206
6 1 .525491 .464591 .985672
7 1 .500064 .452967 .012980
ITEM: TIMESTEP
1
ITEM: NUMBER OF ATOMS
7
ITEM: BOX BOUNDS ss ss ss
-3.3537 2.8735
-2.6978 3.3392
-1.8113 2.2118
ITEM: ATOMS id type xs ys zs
1 1 .468973 .990902 .480948
2 1 .997022 .664696 .466262
3 1 .850486 .054465 .482097
4 1 .231065 .009000 .525474
5 1 .007078 .589970 .513505
6 1 .531294 .463276 .999076
7 1 .499332 .456110 .007042
ITEM: TIMESTEP
50
ITEM: NUMBER OF ATOMS
7
ITEM: BOX BOUNDS ss ss ss
-3.3537 2.8817
-2.6978 3.3392
-1.8113 2.2394
ITEM: ATOMS id type xs ys zs
1 1 .468326 .990769 .477590
2 1 .995687 .664738 .463140
3 1 .849296 .054708 .478639
4 1 .230606 .009333 .521887
5 1 .006880 .589926 .509852
6 1 .530900 .463097 .992819
7 1 .498888 .455828 .006830
ITEM: TIMESTEP
100
ITEM: NUMBER OF ATOMS
7
ITEM: BOX BOUNDS ss ss ss
-3.3537 2.8910
-2.6978 3.3392
-1.8172 2.2386
ITEM: ATOMS id type xs ys zs
1 1 .468389 .990852 .478235
2 1 .993742 .665087 .464520
3 1 .847290 .054329 .479792
4 1 .231015 .009745 .522781
5 1 .006385 .590151 .511329
6 1 .529624 .463095 .991441
7 1 .498659 .455022 .007912
ITEM: TIMESTEP
150
ITEM: NUMBER OF ATOMS
7
ITEM: BOX BOUNDS ss ss ss
-3.3557 2.8841
-2.6978 3.3392
-1.8312 2.2421
ITEM: ATOMS id type xs ys zs
1 1 .470255 .991241 .478986
2 1 .993848 .666578 .465519
3 1 .848072 .054170 .482256
4 1 .232718 .010408 .524165
5 1 .006372 .590499 .513175
6 1 .529029 .463467 .988949
7 1 .500221 .454459 .009862
ITEM: TIMESTEP
200
ITEM: NUMBER OF ATOMS
7
ITEM: BOX BOUNDS ss ss ss
-3.3592 2.8834
-2.6978 3.3392
-1.8476 2.2386
ITEM: ATOMS id type xs ys zs
1 1 .471259 .991556 .481484
2 1 .993227 .667503 .467950
3 1 .848438 .054263 .484890
4 1 .234278 .010707 .526825
5 1 .007063 .590903 .516139
6 1 .528326 .464154 .988405
7 1 .501072 .454161 .012879
ITEM: TIMESTEP
250
ITEM: NUMBER OF ATOMS
7
ITEM: BOX BOUNDS ss ss ss
-3.3579 2.8822
-2.6978 3.3400
-1.8632 2.2348
ITEM: ATOMS id type xs ys zs
1 1 .471495 .991913 .484516
2 1 .993223 .668295 .471152
3 1 .849121 .054955 .487616
4 1 .235545 .009812 .530557
5 1 .007422 .590288 .517757
6 1 .527739 .465054 .988364
7 1 .501260 .453619 .017251
ITEM: TIMESTEP
300
ITEM: NUMBER OF ATOMS
7
ITEM: BOX BOUNDS ss ss ss
-3.3570 2.8777
-2.6978 3.3402
-1.8452 2.2255
ITEM: ATOMS id type xs ys zs
1 1 .471673 .992256 .484229
2 1 .993709 .668677 .470303
3 1 .850041 .055283 .486738
4 1 .236527 .008770 .530765
5 1 .007426 .589416 .515842
6 1 .527034 .465511 .989043
7 1 .501994 .453310 .013197
ITEM: TIMESTEP
350
ITEM: NUMBER OF ATOMS
7
ITEM: BOX BOUNDS ss ss ss
-3.3583 2.8790
-2.6978 3.3499
-1.8463 2.2262
ITEM: ATOMS id type xs ys zs
1 1 .471887 .990926 .484754
2 1 .993381 .667630 .470844
3 1 .850345 .055121 .486751
4 1 .237410 .008138 .532162
5 1 .007519 .588025 .514748
6 1 .526155 .465156 .987344
7 1 .502250 .452439 .013469
ITEM: TIMESTEP
400
ITEM: NUMBER OF ATOMS
7
ITEM: BOX BOUNDS ss ss ss
-3.3593 2.8889
-2.7037 3.3404
-1.8384 2.2407
ITEM: ATOMS id type xs ys zs
1 1 .471735 .992940 .482083
2 1 .992064 .668842 .468543
3 1 .849437 .055701 .483785
4 1 .237803 .008510 .531090
5 1 .007701 .589132 .511257
6 1 .524986 .466632 .982701
7 1 .501894 .453753 .012285
ITEM: TIMESTEP
1
ITEM: NUMBER OF ATOMS
7
ITEM: BOX BOUNDS ss ss ss
-3.3537 2.8893
-2.6979 3.3392
-1.8182 2.2122
ITEM: ATOMS id type xs ys zs
1 1 .467792 .990904 .481800
2 1 .994506 .664701 .467140
3 1 .848343 .054483 .482948
4 1 .230480 .009021 .526254
5 1 .007060 .589980 .514296
6 1 .529955 .463285 .999006
7 1 .498072 .456121 .008751
ITEM: TIMESTEP
50
ITEM: NUMBER OF ATOMS
7
ITEM: BOX BOUNDS ss ss ss
-3.3537 2.8893
-2.6979 3.3392
-1.8182 2.2424
ITEM: ATOMS id type xs ys zs
1 1 .467691 .990679 .478051
2 1 .994450 .664786 .463724
3 1 .848203 .054762 .479133
4 1 .230274 .009320 .522416
5 1 .006888 .589905 .510258
6 1 .530371 .463045 .992230
7 1 .498166 .455863 .008467
ITEM: TIMESTEP
100
ITEM: NUMBER OF ATOMS
7
ITEM: BOX BOUNDS ss ss ss
-3.3537 2.8893
-2.6979 3.3392
-1.8272 2.2433
ITEM: ATOMS id type xs ys zs
1 1 .468550 .990311 .479753
2 1 .993906 .665559 .463785
3 1 .847445 .054637 .479886
4 1 .230989 .009917 .524512
5 1 .006524 .590017 .511478
6 1 .529963 .462848 .990460
7 1 .498718 .454948 .010107
ITEM: TIMESTEP
150
ITEM: NUMBER OF ATOMS
7
ITEM: BOX BOUNDS ss ss ss
-3.3537 2.8948
-2.6979 3.3392
-1.8261 2.2389
ITEM: ATOMS id type xs ys zs
1 1 .468838 .990252 .479975
2 1 .992839 .665498 .462579
3 1 .846115 .054941 .480141
4 1 .232027 .009814 .527656
5 1 .006807 .590525 .513371
6 1 .527497 .463633 .989384
7 1 .499192 .454509 .009647
ITEM: TIMESTEP
200
ITEM: NUMBER OF ATOMS
7
ITEM: BOX BOUNDS ss ss ss
-3.3573 2.8983
-2.6978 3.3392
-1.8348 2.2329
ITEM: ATOMS id type xs ys zs
1 1 .469348 .990511 .481089
2 1 .992285 .664951 .464540
3 1 .845015 .054892 .481548
4 1 .233490 .010083 .531490
5 1 .007417 .590614 .517882
6 1 .525941 .464917 .989707
7 1 .499528 .454722 .010565
ITEM: TIMESTEP
250
ITEM: NUMBER OF ATOMS
7
ITEM: BOX BOUNDS ss ss ss
-3.3577 2.9006
-2.6978 3.3392
-1.8366 2.2299
ITEM: ATOMS id type xs ys zs
1 1 .469855 .990529 .481496
2 1 .991959 .664894 .465206
3 1 .844468 .054538 .482175
4 1 .233991 .010122 .532654
5 1 .007084 .590555 .519284
6 1 .525699 .465354 .989291
7 1 .499161 .454378 .010749
ITEM: TIMESTEP
300
ITEM: NUMBER OF ATOMS
7
ITEM: BOX BOUNDS ss ss ss
-3.3587 2.9138
-2.6825 3.3314
-1.8436 2.2297
ITEM: ATOMS id type xs ys zs
1 1 .469321 .992039 .482577
2 1 .989618 .664884 .466203
3 1 .843051 .051756 .483082
4 1 .234027 .007457 .533730
5 1 .006817 .590353 .520407
6 1 .524418 .464864 .988026
7 1 .497999 .452987 .012722
ITEM: TIMESTEP
350
ITEM: NUMBER OF ATOMS
7
ITEM: BOX BOUNDS ss ss ss
-3.3730 2.8970
-2.6829 3.3412
-1.8462 2.2301
ITEM: ATOMS id type xs ys zs
1 1 .472517 .991609 .482830
2 1 .992093 .663867 .467495
3 1 .846043 .050994 .483181
4 1 .236797 .006931 .534440
5 1 .009008 .589919 .520060
6 1 .526589 .464364 .986059
7 1 .500286 .451911 .014470
ITEM: TIMESTEP
400
ITEM: NUMBER OF ATOMS
7
ITEM: BOX BOUNDS ss ss ss
-3.3774 2.8912
-2.6896 3.3463
-1.8400 2.2219
ITEM: ATOMS id type xs ys zs
1 1 .474266 .992231 .482628
2 1 .992867 .663719 .469367
3 1 .846679 .050877 .482699
4 1 .237543 .006951 .535797
5 1 .010406 .590173 .519464
6 1 .527443 .464549 .986551
7 1 .501243 .452048 .014645
ITEM: TIMESTEP
1
ITEM: NUMBER OF ATOMS
7
ITEM: BOX BOUNDS ss ss ss
-3.3514 2.8829
-2.6837 3.3376
-1.8056 2.2119
ITEM: ATOMS id type xs ys zs
1 1 .468073 .991143 .480199
2 1 .995527 .664087 .465493
3 1 .849161 .052270 .481354
4 1 .230435 .006683 .524798
5 1 .006709 .589167 .512803
6 1 .530329 .462141 .999069
7 1 .498395 .454960 .005634
ITEM: TIMESTEP
50
ITEM: NUMBER OF ATOMS
7
ITEM: BOX BOUNDS ss ss ss
-3.3514 2.8829
-2.6837 3.3376
-1.8118 2.2413
ITEM: ATOMS id type xs ys zs
1 1 .467981 .990944 .477421
2 1 .995516 .664086 .463054
3 1 .849061 .052685 .478434
4 1 .230208 .007030 .521747
5 1 .006560 .589145 .509541
6 1 .530773 .461869 .992677
7 1 .498524 .454707 .007016
ITEM: TIMESTEP
100
ITEM: NUMBER OF ATOMS
7
ITEM: BOX BOUNDS ss ss ss
-3.3534 2.8900
-2.6837 3.3376
-1.8230 2.2470
ITEM: ATOMS id type xs ys zs
1 1 .468368 .990989 .479391
2 1 .993908 .664612 .464136
3 1 .847449 .052770 .478902
4 1 .230664 .007254 .522899
5 1 .006303 .589037 .511061
6 1 .529846 .461902 .990887
7 1 .498731 .454004 .009849
ITEM: TIMESTEP
150
ITEM: NUMBER OF ATOMS
7
ITEM: BOX BOUNDS ss ss ss
-3.3578 2.8886
-2.6837 3.3376
-1.8301 2.2511
ITEM: ATOMS id type xs ys zs
1 1 .469935 .991127 .481246
2 1 .993430 .665127 .465495
3 1 .847211 .052330 .479442
4 1 .231585 .007525 .524586
5 1 .006063 .589919 .511909
6 1 .528963 .461903 .988970
7 1 .499161 .453815 .012263
ITEM: TIMESTEP
200
ITEM: NUMBER OF ATOMS
7
ITEM: BOX BOUNDS ss ss ss
-3.3652 2.8923
-2.6837 3.3380
-1.8346 2.2441
ITEM: ATOMS id type xs ys zs
1 1 .470208 .992222 .483330
2 1 .992671 .665394 .466793
3 1 .846189 .052115 .481550
4 1 .233133 .007719 .526860
5 1 .006792 .589916 .514726
6 1 .528381 .462816 .989040
7 1 .499956 .454382 .014237
ITEM: TIMESTEP
250
ITEM: NUMBER OF ATOMS
7
ITEM: BOX BOUNDS ss ss ss
-3.3727 2.8867
-2.6837 3.3419
-1.8349 2.2346
ITEM: ATOMS id type xs ys zs
1 1 .471558 .993270 .485044
2 1 .992885 .666022 .467548
3 1 .847028 .051697 .484630
4 1 .234749 .008283 .526810
5 1 .008598 .589670 .517981
6 1 .529439 .463021 .989527
7 1 .501533 .454823 .014772
ITEM: TIMESTEP
300
ITEM: NUMBER OF ATOMS
7
ITEM: BOX BOUNDS ss ss ss
-3.3770 2.8840
-2.6837 3.3501
-1.8257 2.2346
ITEM: ATOMS id type xs ys zs
1 1 .472747 .992058 .484602
2 1 .993203 .665861 .466814
3 1 .847588 .051586 .483813
4 1 .235602 .008469 .526025
5 1 .009587 .589305 .517646
6 1 .529370 .462926 .988473
7 1 .502352 .454102 .012791
ITEM: TIMESTEP
350
ITEM: NUMBER OF ATOMS
7
ITEM: BOX BOUNDS ss ss ss
-3.3681 2.8865
-2.6837 3.3518
-1.8268 2.2416
ITEM: ATOMS id type xs ys zs
1 1 .472150 .991964 .484082
2 1 .992758 .665638 .466831
3 1 .847142 .051502 .483071
4 1 .234441 .008163 .526039
5 1 .008340 .589295 .517646
6 1 .527855 .463012 .985480
7 1 .501468 .453771 .013198
ITEM: TIMESTEP
400
ITEM: NUMBER OF ATOMS
7
ITEM: BOX BOUNDS ss ss ss
-3.3753 2.8884
-2.6906 3.3488
-1.8244 2.2385
ITEM: ATOMS id type xs ys zs
1 1 .472736 .992824 .484424
2 1 .992259 .666164 .467643
3 1 .846917 .052151 .483207
4 1 .235754 .008453 .526654
5 1 .009666 .589978 .518542
6 1 .527447 .463742 .985069
7 1 .501867 .454463 .012475
ITEM: TIMESTEP
1
ITEM: NUMBER OF ATOMS
7
ITEM: BOX BOUNDS ss ss ss
-3.3514 2.8829
-2.6837 3.3440
-1.8056 2.2122
ITEM: ATOMS id type xs ys zs
1 1 .468073 .990091 .480161
2 1 .995525 .663382 .465463
3 1 .849159 .052213 .481319
4 1 .230434 .006677 .524756
5 1 .006708 .588539 .512762
6 1 .530330 .461649 .998996
7 1 .498396 .454478 .005628
ITEM: TIMESTEP
50
ITEM: NUMBER OF ATOMS
7
ITEM: BOX BOUNDS ss ss ss
-3.3514 2.8867
-2.6837 3.3440
-1.8108 2.2414
ITEM: ATOMS id type xs ys zs
1 1 .467587 .989808 .477110
2 1 .994951 .663366 .462887
3 1 .848640 .052635 .478321
4 1 .229956 .007064 .521509
5 1 .006559 .588521 .509212
6 1 .530584 .461384 .992823
7 1 .498169 .454296 .006611
ITEM: TIMESTEP
100
ITEM: NUMBER OF ATOMS
7
ITEM: BOX BOUNDS ss ss ss
-3.3531 2.8954
-2.6837 3.3440
-1.8191 2.2487
ITEM: ATOMS id type xs ys zs
1 1 .467366 .989634 .477423
2 1 .992983 .663792 .463264
3 1 .847117 .052826 .478228
4 1 .230186 .007714 .521864
5 1 .006265 .588346 .509555
6 1 .529797 .461207 .990502
7 1 .498103 .453534 .008414
ITEM: TIMESTEP
150
ITEM: NUMBER OF ATOMS
7
ITEM: BOX BOUNDS ss ss ss
-3.3586 2.8976
-2.6837 3.3440
-1.8316 2.2478
ITEM: ATOMS id type xs ys zs
1 1 .467982 .989243 .479921
2 1 .992292 .664059 .464566
3 1 .846486 .052654 .480235
4 1 .231367 .007932 .523726
5 1 .006395 .588301 .512221
6 1 .529276 .461620 .989799
7 1 .498520 .453271 .010760
ITEM: TIMESTEP
200
ITEM: NUMBER OF ATOMS
7
ITEM: BOX BOUNDS ss ss ss
-3.3613 2.8978
-2.6837 3.3440
-1.8328 2.2480
ITEM: ATOMS id type xs ys zs
1 1 .467954 .989820 .481156
2 1 .991823 .664128 .463605
3 1 .846015 .052107 .481409
4 1 .233036 .007796 .524964
5 1 .006531 .588335 .513447
6 1 .528914 .462918 .987620
7 1 .498588 .453004 .010656
ITEM: TIMESTEP
250
ITEM: NUMBER OF ATOMS
7
ITEM: BOX BOUNDS ss ss ss
-3.3701 2.8895
-2.6854 3.3440
-1.8442 2.2522
ITEM: ATOMS id type xs ys zs
1 1 .469358 .989936 .482331
2 1 .992754 .664676 .464387
3 1 .847083 .052298 .482197
4 1 .235267 .008033 .526534
5 1 .007503 .588483 .515099
6 1 .529883 .463233 .985357
7 1 .499774 .452576 .013783
ITEM: TIMESTEP
300
ITEM: NUMBER OF ATOMS
7
ITEM: BOX BOUNDS ss ss ss
-3.3794 2.8938
-2.6867 3.3440
-1.8407 2.2505
ITEM: ATOMS id type xs ys zs
1 1 .470199 .989976 .481653
2 1 .991956 .665182 .464275
3 1 .846272 .052139 .480713
4 1 .236872 .008216 .526914
5 1 .008714 .588493 .515123
6 1 .529760 .463874 .984455
7 1 .500129 .452523 .012801
ITEM: TIMESTEP
350
ITEM: NUMBER OF ATOMS
7
ITEM: BOX BOUNDS ss ss ss
-3.3720 2.8927
-2.6837 3.3440
-1.8366 2.2579
ITEM: ATOMS id type xs ys zs
1 1 .469718 .990274 .478842
2 1 .991894 .665352 .462973
3 1 .845960 .051779 .477716
4 1 .236630 .007233 .525995
5 1 .006980 .587959 .512953
6 1 .528496 .464999 .980367
7 1 .499487 .452203 .010783
ITEM: TIMESTEP
400
ITEM: NUMBER OF ATOMS
7
ITEM: BOX BOUNDS ss ss ss
-3.3811 2.8891
-2.6922 3.3440
-1.8427 2.2380
ITEM: ATOMS id type xs ys zs
1 1 .470936 .990938 .480856
2 1 .992588 .666136 .466526
3 1 .846758 .053283 .480088
4 1 .238632 .008432 .529712
5 1 .008279 .588510 .516446
6 1 .528584 .466509 .983325
7 1 .500588 .453142 .011738
ITEM: TIMESTEP
1
ITEM: NUMBER OF ATOMS
7
ITEM: BOX BOUNDS ss ss ss
-3.3535 2.8829
-2.6837 3.3376
-1.8245 2.2119
ITEM: ATOMS id type xs ys zs
1 1 .468246 .991142 .482627
2 1 .995531 .664086 .467995
3 1 .849217 .052270 .483781
4 1 .230690 .006686 .527018
5 1 .007037 .589168 .515082
6 1 .530490 .462143 .999082
7 1 .498562 .454961 .010290
ITEM: TIMESTEP
50
ITEM: NUMBER OF ATOMS
7
ITEM: BOX BOUNDS ss ss ss
-3.3535 2.8881
-2.6837 3.3376
-1.8245 2.2410
ITEM: ATOMS id type xs ys zs
1 1 .467604 .990841 .478898
2 1 .994738 .664064 .464651
3 1 .848537 .052726 .480085
4 1 .230071 .007030 .523162
5 1 .006924 .589124 .510910
6 1 .530661 .461915 .993240
7 1 .498173 .454785 .009962
ITEM: TIMESTEP
100
ITEM: NUMBER OF ATOMS
7
ITEM: BOX BOUNDS ss ss ss
-3.3535 2.8947
-2.6837 3.3376
-1.8245 2.2490
ITEM: ATOMS id type xs ys zs
1 1 .468095 .990176 .479066
2 1 .993671 .664870 .462176
3 1 .846335 .053272 .477877
4 1 .230696 .007004 .523179
5 1 .006024 .588662 .510407
6 1 .529662 .462650 .990750
7 1 .498601 .454014 .010341
ITEM: TIMESTEP
150
ITEM: NUMBER OF ATOMS
7
ITEM: BOX BOUNDS ss ss ss
-3.3643 2.8963
-2.6837 3.3376
-1.8291 2.2517
ITEM: ATOMS id type xs ys zs
1 1 .469545 .989928 .479633
2 1 .993682 .665265 .461425
3 1 .845333 .052908 .477445
4 1 .232523 .006883 .525132
5 1 .007217 .588360 .511204
6 1 .529828 .463486 .988932
7 1 .499288 .453288 .011711
ITEM: TIMESTEP
200
ITEM: NUMBER OF ATOMS
7
ITEM: BOX BOUNDS ss ss ss
-3.3596 2.9006
-2.6837 3.3376
-1.8245 2.2479
ITEM: ATOMS id type xs ys zs
1 1 .470059 .989736 .478077
2 1 .992472 .666203 .460565
3 1 .843004 .051598 .475987
4 1 .231701 .007081 .528000
5 1 .006472 .588854 .510517
6 1 .528153 .463906 .987644
7 1 .498750 .452878 .010101
ITEM: TIMESTEP
250
ITEM: NUMBER OF ATOMS
7
ITEM: BOX BOUNDS ss ss ss
-3.3630 2.9012
-2.6848 3.3376
-1.8333 2.2450
ITEM: ATOMS id type xs ys zs
1 1 .470938 .990266 .478877
2 1 .992245 .666887 .462561
3 1 .842084 .051140 .475674
4 1 .232316 .007595 .530730
5 1 .007442 .589511 .511198
6 1 .527596 .464355 .986162
7 1 .499194 .452416 .011927
ITEM: TIMESTEP
300
ITEM: NUMBER OF ATOMS
7
ITEM: BOX BOUNDS ss ss ss
-3.3652 2.8906
-2.6837 3.3376
-1.8349 2.2422
ITEM: ATOMS id type xs ys zs
1 1 .472815 .990238 .480442
2 1 .994174 .665971 .462739
3 1 .844144 .050842 .475466
4 1 .234457 .006947 .532307
5 1 .008066 .588888 .510501
6 1 .528320 .464412 .984828
7 1 .500731 .451957 .010861
ITEM: TIMESTEP
350
ITEM: NUMBER OF ATOMS
7
ITEM: BOX BOUNDS ss ss ss
-3.3719 2.8976
-2.6837 3.3376
-1.8391 2.2302
ITEM: ATOMS id type xs ys zs
1 1 .473208 .990165 .482907
2 1 .993324 .665339 .464419
3 1 .844071 .050964 .477248
4 1 .235928 .006268 .534998
5 1 .009373 .588337 .512298
6 1 .528021 .464435 .985977
7 1 .501032 .451944 .010452
ITEM: TIMESTEP
400
ITEM: NUMBER OF ATOMS
7
ITEM: BOX BOUNDS ss ss ss
-3.3823 2.9013
-2.6983 3.3376
-1.8492 2.2320
ITEM: ATOMS id type xs ys zs
1 1 .473731 .990456 .484324
2 1 .992755 .665833 .465985
3 1 .844134 .053038 .478155
4 1 .237253 .008556 .536708
5 1 .010852 .589147 .513349
6 1 .528300 .465834 .984452
7 1 .501555 .453073 .012549
ITEM: TIMESTEP
1
ITEM: NUMBER OF ATOMS
7
ITEM: BOX BOUNDS ss ss ss
-3.3574 2.8829
-2.6837 3.3376
-1.8252 2.2120
ITEM: ATOMS id type xs ys zs
1 1 .468584 .991142 .482703
2 1 .995533 .664086 .468081
3 1 .849307 .052272 .483868
4 1 .231169 .006687 .527090
5 1 .007659 .589166 .515151
6 1 .530786 .462143 .999058
7 1 .498878 .454960 .010460
ITEM: TIMESTEP
50
ITEM: NUMBER OF ATOMS
7
ITEM: BOX BOUNDS ss ss ss
-3.3574 2.8843
-2.6837 3.3376
-1.8252 2.2407
ITEM: ATOMS id type xs ys zs
1 1 .468191 .990826 .478817
2 1 .995440 .664046 .464801
3 1 .849150 .052734 .480254
4 1 .230600 .007050 .523210
5 1 .007571 .589145 .510976
6 1 .531372 .461794 .993355
7 1 .498736 .454826 .010079
ITEM: TIMESTEP
100
ITEM: NUMBER OF ATOMS
7
ITEM: BOX BOUNDS ss ss ss
-3.3574 2.8966
-2.6837 3.3376
-1.8252 2.2491
ITEM: ATOMS id type xs ys zs
1 1 .467940 .990362 .477743
2 1 .992970 .664307 .463436
3 1 .846988 .052887 .479319
4 1 .230785 .007603 .522762
5 1 .006975 .588694 .510076
6 1 .529884 .461560 .989863
7 1 .498520 .454326 .009438
ITEM: TIMESTEP
150
ITEM: NUMBER OF ATOMS
7
ITEM: BOX BOUNDS ss ss ss
-3.3574 2.9007
-2.6837 3.3376
-1.8296 2.2451
ITEM: ATOMS id type xs ys zs
1 1 .467636 .989721 .481172
2 1 .992913 .664838 .462149
3 1 .847411 .052491 .481725
4 1 .232166 .007988 .523498
5 1 .006448 .588417 .513174
6 1 .528504 .462937 .987975
7 1 .499320 .453831 .010514
ITEM: TIMESTEP
200
ITEM: NUMBER OF ATOMS
7
ITEM: BOX BOUNDS ss ss ss
-3.3582 2.8953
-2.6837 3.3376
-1.8252 2.2384
ITEM: ATOMS id type xs ys zs
1 1 .468267 .989974 .482869
2 1 .993633 .664892 .460791
3 1 .848631 .051797 .483324
4 1 .233807 .008275 .523330
5 1 .005778 .588674 .515376
6 1 .528470 .463386 .987729
7 1 .500169 .453370 .010121
ITEM: TIMESTEP
250
ITEM: NUMBER OF ATOMS
7
ITEM: BOX BOUNDS ss ss ss
-3.3625 2.8984
-2.6837 3.3376
-1.8288 2.2263
ITEM: ATOMS id type xs ys zs
1 1 .469342 .990143 .483607
2 1 .993164 .665217 .461820
3 1 .848588 .051525 .485894
4 1 .234424 .007646 .525194
5 1 .006323 .588369 .517628
6 1 .527633 .463074 .986707
7 1 .500603 .453310 .009563
ITEM: TIMESTEP
300
ITEM: NUMBER OF ATOMS
7
ITEM: BOX BOUNDS ss ss ss
-3.3712 2.9048
-2.6843 3.3376
-1.8449 2.2265
ITEM: ATOMS id type xs ys zs
1 1 .470314 .990098 .485047
2 1 .991964 .665555 .463212
3 1 .847856 .051632 .487894
4 1 .235379 .007332 .526438
5 1 .007786 .588278 .519569
6 1 .527298 .462798 .984248
7 1 .501055 .452823 .012359
ITEM: TIMESTEP
350
ITEM: NUMBER OF ATOMS
7
ITEM: BOX BOUNDS ss ss ss
-3.3663 2.9087
-2.6837 3.3376
-1.8439 2.2195
ITEM: ATOMS id type xs ys zs
1 1 .470396 .990408 .485056
2 1 .991213 .665557 .462262
3 1 .847090 .051396 .487720
4 1 .235019 .006322 .526860
5 1 .007145 .588464 .520179
6 1 .525612 .462410 .984371
7 1 .500594 .452014 .012018
ITEM: TIMESTEP
400
ITEM: NUMBER OF ATOMS
7
ITEM: BOX BOUNDS ss ss ss
-3.3654 2.9040
-2.6980 3.3376
-1.8392 2.2080
ITEM: ATOMS id type xs ys zs
1 1 .471697 .991165 .484453
2 1 .991576 .666172 .460935
3 1 .847862 .053211 .487098
4 1 .235321 .007265 .527455
5 1 .007363 .589343 .520985
6 1 .524492 .463282 .985416
7 1 .501000 .452608 .011138
ITEM: TIMESTEP
1
ITEM: NUMBER OF ATOMS
7
ITEM: BOX BOUNDS ss ss ss
-3.3421 2.8841
-2.6938 3.3232
-1.8174 2.2119
ITEM: ATOMS id type xs ys zs
1 1 .467184 .993517 .481716
2 1 .995322 .666232 .467062
3 1 .848763 .053990 .482875
4 1 .229233 .008371 .526183
5 1 .005219 .591261 .514223
6 1 .529523 .464145 .999075
7 1 .497542 .456961 .008547
ITEM: TIMESTEP
50
ITEM: NUMBER OF ATOMS
7
ITEM: BOX BOUNDS ss ss ss
-3.3421 2.8889
-2.6938 3.3232
-1.8174 2.2406
ITEM: ATOMS id type xs ys zs
1 1 .466494 .993112 .477912
2 1 .994738 .666153 .463867
3 1 .848191 .054528 .479212
4 1 .228531 .008774 .522322
5 1 .005146 .591279 .509859
6 1 .529865 .463873 .993616
7 1 .497077 .456870 .008218
ITEM: TIMESTEP
100
ITEM: NUMBER OF ATOMS
7
ITEM: BOX BOUNDS ss ss ss
-3.3507 2.8934
-2.6938 3.3232
-1.8289 2.2544
ITEM: ATOMS id type xs ys zs
1 1 .467373 .992829 .478181
2 1 .993691 .666826 .463576
3 1 .846636 .054190 .478945
4 1 .229806 .009397 .521971
5 1 .005884 .591645 .509882
6 1 .529968 .464046 .989886
7 1 .497948 .456283 .010954
ITEM: TIMESTEP
150
ITEM: NUMBER OF ATOMS
7
ITEM: BOX BOUNDS ss ss ss
-3.3556 2.8922
-2.6938 3.3232
-1.8219 2.2479
ITEM: ATOMS id type xs ys zs
1 1 .469526 .992863 .477822
2 1 .994723 .667520 .463327
3 1 .845169 .051372 .478178
4 1 .231039 .009961 .521522
5 1 .005809 .593619 .512005
6 1 .529948 .464605 .988037
7 1 .499252 .456217 .009076
ITEM: TIMESTEP
200
ITEM: NUMBER OF ATOMS
7
ITEM: BOX BOUNDS ss ss ss
-3.3663 2.8967
-2.6938 3.3232
-1.8314 2.2401
ITEM: ATOMS id type xs ys zs
1 1 .470843 .992771 .480181
2 1 .993641 .667597 .465728
3 1 .844431 .051139 .480017
4 1 .232438 .010702 .523908
5 1 .007078 .593732 .514918
6 1 .530482 .464506 .988542
7 1 .500397 .455835 .011399
ITEM: TIMESTEP
250
ITEM: NUMBER OF ATOMS
7
ITEM: BOX BOUNDS ss ss ss
-3.3746 2.9045
-2.6938 3.3232
-1.8344 2.2303
ITEM: ATOMS id type xs ys zs
1 1 .471295 .993076 .483264
2 1 .991538 .666995 .466826
3 1 .843379 .050500 .482411
4 1 .233185 .011381 .526614
5 1 .008020 .593613 .517539
6 1 .529881 .464509 .990336
7 1 .500887 .455364 .013150
ITEM: TIMESTEP
300
ITEM: NUMBER OF ATOMS
7
ITEM: BOX BOUNDS ss ss ss
-3.3759 2.9054
-2.6938 3.3371
-1.8337 2.2460
ITEM: ATOMS id type xs ys zs
1 1 .471702 .990737 .482991
2 1 .990805 .664636 .464369
3 1 .842837 .049507 .482133
4 1 .233027 .012240 .524863
5 1 .008368 .592935 .515555
6 1 .529393 .463825 .986589
7 1 .501240 .453530 .013398
ITEM: TIMESTEP
350
ITEM: NUMBER OF ATOMS
7
ITEM: BOX BOUNDS ss ss ss
-3.3751 2.9071
-2.6938 3.3379
-1.8292 2.2383
ITEM: ATOMS id type xs ys zs
1 1 .472356 .990564 .485241
2 1 .990371 .663803 .464279
3 1 .842325 .048463 .483821
4 1 .233336 .013363 .525901
5 1 .008367 .593950 .516653
6 1 .528901 .464402 .987221
7 1 .501167 .453240 .011552
ITEM: TIMESTEP
400
ITEM: NUMBER OF ATOMS
7
ITEM: BOX BOUNDS ss ss ss
-3.3730 2.8927
-2.6938 3.3315
-1.8344 2.2415
ITEM: ATOMS id type xs ys zs
1 1 .473843 .992006 .486498
2 1 .992696 .664152 .464327
3 1 .844300 .048364 .484572
4 1 .234089 .013385 .527344
5 1 .007860 .594771 .517686
6 1 .529510 .465211 .985587
7 1 .501899 .453740 .012368
ITEM: TIMESTEP
1
ITEM: NUMBER OF ATOMS
7
ITEM: BOX BOUNDS ss ss ss
-3.3484 2.8841
-2.6938 3.3232
-1.8174 2.2130
ITEM: ATOMS id type xs ys zs
1 1 .467715 .993518 .481586
2 1 .995324 .666230 .466934
3 1 .848920 .053991 .482743
4 1 .230004 .008373 .526043
5 1 .006217 .591262 .514085
6 1 .529996 .464148 .998813
7 1 .498046 .456964 .008541
ITEM: TIMESTEP
50
ITEM: NUMBER OF ATOMS
7
ITEM: BOX BOUNDS ss ss ss
-3.3484 2.8847
-2.6938 3.3232
-1.8174 2.2429
ITEM: ATOMS id type xs ys zs
1 1 .467331 .993114 .477564
2 1 .995386 .666194 .463545
3 1 .848950 .054529 .478962
4 1 .229390 .008797 .522013
5 1 .006160 .591266 .509666
6 1 .530749 .463831 .992968
7 1 .498006 .456864 .008133
ITEM: TIMESTEP
100
ITEM: NUMBER OF ATOMS
7
ITEM: BOX BOUNDS ss ss ss
-3.3579 2.8885
-2.6938 3.3232
-1.8198 2.2585
ITEM: ATOMS id type xs ys zs
1 1 .467820 .993501 .476301
2 1 .994836 .667339 .461268
3 1 .848514 .054179 .477475
4 1 .231606 .009133 .520298
5 1 .005887 .591193 .506838
6 1 .531797 .464522 .987075
7 1 .499797 .455316 .010768
ITEM: TIMESTEP
150
ITEM: NUMBER OF ATOMS
7
ITEM: BOX BOUNDS ss ss ss
-3.3709 2.8937
-2.6938 3.3303
-1.8232 2.2431
ITEM: ATOMS id type xs ys zs
1 1 .468370 .992259 .478062
2 1 .993754 .667584 .462693
3 1 .847122 .053794 .479699
4 1 .233822 .009215 .522871
5 1 .006433 .590097 .507614
6 1 .532278 .464947 .988974
7 1 .501187 .454341 .012655
ITEM: TIMESTEP
200
ITEM: NUMBER OF ATOMS
7
ITEM: BOX BOUNDS ss ss ss
-3.3803 2.9015
-2.6938 3.3315
-1.8245 2.2466
ITEM: ATOMS id type xs ys zs
1 1 .468166 .992142 .477580
2 1 .992405 .667691 .463063
3 1 .845772 .053449 .479283
4 1 .235295 .010062 .522869
5 1 .007802 .589992 .506376
6 1 .531700 .465627 .986687
7 1 .501990 .453962 .012257
ITEM: TIMESTEP
250
ITEM: NUMBER OF ATOMS
7
ITEM: BOX BOUNDS ss ss ss
-3.3875 2.9030
-2.6938 3.3398
-1.8323 2.2375
ITEM: ATOMS id type xs ys zs
1 1 .469128 .992086 .479222
2 1 .991774 .667894 .466038
3 1 .847202 .053496 .483814
4 1 .237019 .010990 .525859
5 1 .009954 .589432 .507624
6 1 .530709 .464978 .985904
7 1 .503363 .452547 .013136
ITEM: TIMESTEP
300
ITEM: NUMBER OF ATOMS
7
ITEM: BOX BOUNDS ss ss ss
-3.3728 2.8973
-2.6938 3.3460
-1.8437 2.2257
ITEM: ATOMS id type xs ys zs
1 1 .469176 .991102 .482573
2 1 .992222 .667876 .468792
3 1 .848253 .053916 .488150
4 1 .235773 .010337 .528917
5 1 .008452 .588388 .511317
6 1 .528863 .464188 .987588
7 1 .503314 .451787 .014626
ITEM: TIMESTEP
350
ITEM: NUMBER OF ATOMS
7
ITEM: BOX BOUNDS ss ss ss
-3.3771 2.9018
-2.6938 3.3368
-1.8392 2.2206
ITEM: ATOMS id type xs ys zs
1 1 .469577 .992251 .483642