ITEM: TIMESTEP
1
ITEM: NUMBER OF ATOMS
7
ITEM: BOX BOUNDS ss ss ss
-2.9437 3.3160
-2.7901 3.2873
-1.8789 1.9854
ITEM: ATOMS id type xs ys zs
1 1 .511428 .999319 .515855
2 1 .999354 .579017 .512037
3 1 .759275 .000614 .498909
4 1 .156018 .047255 .500006
5 1 .000600 .650276 .479234
6 1 .486768 .462018 .999042
7 1 .496513 .467221 .000930
ITEM: TIMESTEP
50
ITEM: NUMBER OF ATOMS
7
ITEM: BOX BOUNDS ss ss ss
-2.9676 3.3393
-2.8129 3.3119
-1.9021 2.0101
ITEM: ATOMS id type xs ys zs
1 1 .511105 .995496 .515596
2 1 .995908 .577985 .511642
3 1 .757280 .004222 .498646
4 1 .158671 .050664 .500034
5 1 .004272 .648851 .479078
6 1 .487023 .462327 .992583
7 1 .496710 .467497 .007014
ITEM: TIMESTEP
100
ITEM: NUMBER OF ATOMS
7
ITEM: BOX BOUNDS ss ss ss
-2.9763 3.3502
-2.8257 3.3235
-1.9152 2.0132
ITEM: ATOMS id type xs ys zs
1 1 .510840 .993570 .516721
2 1 .994133 .577819 .512889
3 1 .756368 .006115 .499801
4 1 .159635 .052653 .501409
5 1 .005543 .648400 .480275
6 1 .486948 .462611 .991956
7 1 .496507 .467645 .010387
ITEM: TIMESTEP
150
ITEM: NUMBER OF ATOMS
7
ITEM: BOX BOUNDS ss ss ss
-2.9810 3.3521
-2.8306 3.3307
-1.9167 2.0214
ITEM: ATOMS id type xs ys zs
1 1 .511242 .992167 .515398
2 1 .993462 .577889 .512125
3 1 .756525 .006774 .498602
4 1 .160297 .053475 .500570
5 1 .006173 .648118 .479234
6 1 .487105 .462459 .990073
7 1 .496530 .467159 .010726
ITEM: TIMESTEP
200
ITEM: NUMBER OF ATOMS
7
ITEM: BOX BOUNDS ss ss ss
-2.9921 3.3517
-2.8363 3.3248
-1.9252 2.0258
ITEM: ATOMS id type xs ys zs
1 1 .512323 .992672 .514873
2 1 .992888 .579557 .512781
3 1 .757237 .007759 .498747
4 1 .161770 .054390 .500660
5 1 .007849 .649273 .479680
6 1 .487664 .463295 .989012
7 1 .497192 .467447 .012265
ITEM: TIMESTEP
250
ITEM: NUMBER OF ATOMS
7
ITEM: BOX BOUNDS ss ss ss
-2.9830 3.3557
-2.8347 3.3282
-1.9365 2.0366
ITEM: ATOMS id type xs ys zs
1 1 .511229 .991579 .512959
2 1 .991107 .580347 .512452
3 1 .756519 .008081 .498738
4 1 .160174 .053937 .500065
5 1 .006540 .649153 .480936
6 1 .486083 .462807 .986003
7 1 .495568 .466196 .013791
ITEM: TIMESTEP
300
ITEM: NUMBER OF ATOMS
7
ITEM: BOX BOUNDS ss ss ss
-2.9878 3.3504
-2.8319 3.3193
-1.9314 2.0401
ITEM: ATOMS id type xs ys zs
1 1 .512260 .992342 .510240
2 1 .990452 .582382 .510247
3 1 .757542 .008226 .497517
4 1 .160746 .053443 .498348
5 1 .007590 .650361 .480990
6 1 .486358 .462804 .984830
7 1 .495598 .465651 .010841
ITEM: TIMESTEP
350
ITEM: NUMBER OF ATOMS
7
ITEM: BOX BOUNDS ss ss ss
-2.9838 3.3396
-2.8281 3.3112
-1.9364 2.0267
ITEM: ATOMS id type xs ys zs
1 1 .513626 .992847 .512381
2 1 .991181 .583679 .512086
3 1 .759021 .007801 .499712
4 1 .160612 .053049 .500559
5 1 .007358 .651465 .483253
6 1 .486773 .462433 .988642
7 1 .495646 .465516 .011149
ITEM: TIMESTEP
400
ITEM: NUMBER OF ATOMS
7
ITEM: BOX BOUNDS ss ss ss
-2.9852 3.3302
-2.8247 3.3129
-1.9359 2.0274
ITEM: ATOMS id type xs ys zs
1 1 .515636 .991788 .511464
2 1 .992183 .583796 .511707
3 1 .760560 .007355 .499862
4 1 .161423 .052797 .500571
5 1 .007835 .651535 .483009
6 1 .487677 .461915 .989384
7 1 .496045 .464897 .010563
ITEM: TIMESTEP
1
ITEM: NUMBER OF ATOMS
7
ITEM: BOX BOUNDS ss ss ss
-2.9794 3.3191
-2.8169 3.2948
-1.9342 2.0232
ITEM: ATOMS id type xs ys zs
1 1 .513942 .998094 .517699
2 1 .998871 .580149 .513967
3 1 .760268 .005000 .501155
4 1 .160723 .051380 .502221
5 1 .006259 .651005 .481934
6 1 .489439 .463810 .989516
7 1 .499123 .468987 .014881
ITEM: TIMESTEP
50
ITEM: NUMBER OF ATOMS
7
ITEM: BOX BOUNDS ss ss ss
-2.9779 3.3420
-2.8169 3.3114
-1.9342 2.0232
ITEM: ATOMS id type xs ys zs
1 1 .511594 .995634 .517882
2 1 .995547 .578234 .513957
3 1 .757321 .004855 .501032
4 1 .160000 .051248 .502456
5 1 .005896 .649075 .481680
6 1 .487697 .462744 .989299
7 1 .497342 .467930 .015057
ITEM: TIMESTEP
100
ITEM: NUMBER OF ATOMS
7
ITEM: BOX BOUNDS ss ss ss
-2.9795 3.3500
-2.8246 3.3229
-1.9342 2.0232
ITEM: ATOMS id type xs ys zs
1 1 .510941 .993856 .517903
2 1 .994360 .577649 .513912
3 1 .756391 .005954 .500872
4 1 .160003 .052431 .502572
5 1 .005982 .648297 .481455
6 1 .487297 .462654 .989372
7 1 .496837 .467750 .015220
ITEM: TIMESTEP
150
ITEM: NUMBER OF ATOMS
7
ITEM: BOX BOUNDS ss ss ss
-2.9916 3.3651
-2.8287 3.3243
-1.9342 2.0304
ITEM: ATOMS id type xs ys zs
1 1 .510705 .993544 .516968
2 1 .991807 .578160 .512894
3 1 .755239 .006571 .499853
4 1 .161124 .053215 .501643
5 1 .007778 .648561 .480253
6 1 .487063 .462828 .987691
7 1 .496630 .467769 .015128
ITEM: TIMESTEP
200
ITEM: NUMBER OF ATOMS
7
ITEM: BOX BOUNDS ss ss ss
-2.9895 3.3578
-2.8315 3.3299
-1.9342 2.0450
ITEM: ATOMS id type xs ys zs
1 1 .511204 .992341 .514865
2 1 .992707 .578449 .511478
3 1 .756368 .007118 .497920
4 1 .161031 .053692 .499505
5 1 .007353 .648408 .478006
6 1 .487277 .462471 .984144
7 1 .496937 .467184 .015111
ITEM: TIMESTEP
250
ITEM: NUMBER OF ATOMS
7
ITEM: BOX BOUNDS ss ss ss
-2.9938 3.3596
-2.8304 3.3332
-1.9331 2.0290
ITEM: ATOMS id type xs ys zs
1 1 .511716 .991342 .516371
2 1 .991880 .578593 .513716
3 1 .756428 .006997 .499885
4 1 .161400 .053524 .501230
5 1 .007968 .648210 .479287
6 1 .487303 .461876 .988371
7 1 .496961 .466429 .014827
ITEM: TIMESTEP
300
ITEM: NUMBER OF ATOMS
7
ITEM: BOX BOUNDS ss ss ss
-2.9975 3.3741
-2.8360 3.3233
-1.9268 2.0354
ITEM: ATOMS id type xs ys zs
1 1 .511305 .992444 .514235
2 1 .988932 .580521 .512304
3 1 .754659 .008051 .498811
4 1 .161331 .054513 .500043
5 1 .008672 .649646 .477289
6 1 .486151 .463005 .987153
7 1 .495936 .467274 .012836
ITEM: TIMESTEP
350
ITEM: NUMBER OF ATOMS
7
ITEM: BOX BOUNDS ss ss ss
-2.9989 3.3639
-2.8422 3.3272
-1.9275 2.0309
ITEM: ATOMS id type xs ys zs
1 1 .512789 .991122 .514605
2 1 .989807 .581114 .513068
3 1 .755741 .009241 .500037
4 1 .161683 .055285 .501060
5 1 .009184 .649377 .478259
6 1 .486807 .462862 .988827
7 1 .496649 .466963 .012730
ITEM: TIMESTEP
400
ITEM: NUMBER OF ATOMS
7
ITEM: BOX BOUNDS ss ss ss
-2.9930 3.3601
-2.8426 3.3151
-1.9301 2.0353
ITEM: ATOMS id type xs ys zs
1 1 .513066 .991709 .514391
2 1 .989552 .582424 .512307
3 1 .755885 .008867 .500037
4 1 .160750 .054992 .500839
5 1 .008590 .650197 .478407
6 1 .486373 .462770 .988259
7 1 .495944 .466281 .012833
ITEM: TIMESTEP
1
ITEM: NUMBER OF ATOMS
7
ITEM: BOX BOUNDS ss ss ss
-2.9760 3.3363
-2.8328 3.3098
-1.9227 2.0334
ITEM: ATOMS id type xs ys zs
1 1 .512284 .995666 .514957
2 1 .996151 .579818 .511220
3 1 .758070 .007562 .498401
4 1 .159836 .053708 .499472
5 1 .005710 .650321 .479177
6 1 .487836 .464063 .986935
7 1 .497496 .469214 .011964
ITEM: TIMESTEP
50
ITEM: NUMBER OF ATOMS
7
ITEM: BOX BOUNDS ss ss ss
-2.9760 3.3432
-2.8328 3.3135
-1.9227 2.0334
ITEM: ATOMS id type xs ys zs
1 1 .511282 .995401 .515176
2 1 .995429 .579044 .511194
3 1 .757083 .007404 .498313
4 1 .159721 .053696 .499768
5 1 .005556 .649733 .478908
6 1 .487461 .464015 .986716
7 1 .497131 .469215 .012138
ITEM: TIMESTEP
100
ITEM: NUMBER OF ATOMS
7
ITEM: BOX BOUNDS ss ss ss
-2.9776 3.3561
-2.8328 3.3230
-1.9227 2.0334
ITEM: ATOMS id type xs ys zs
1 1 .510199 .993996 .515261
2 1 .993570 .578040 .511158
3 1 .755575 .007195 .498186
4 1 .159610 .053712 .499858
5 1 .005635 .648730 .478795
6 1 .486741 .463413 .986727
7 1 .496305 .468562 .012392
ITEM: TIMESTEP
150
ITEM: NUMBER OF ATOMS
7
ITEM: BOX BOUNDS ss ss ss
-2.9840 3.3570
-2.8348 3.3235
-1.9227 2.0334
ITEM: ATOMS id type xs ys zs
1 1 .510718 .993827 .515219
2 1 .993335 .578265 .511068
3 1 .755850 .007431 .497915
4 1 .160532 .054153 .499669
5 1 .006539 .648896 .478895
6 1 .487298 .463440 .987007
7 1 .496724 .468662 .012544
ITEM: TIMESTEP
200
ITEM: NUMBER OF ATOMS
7
ITEM: BOX BOUNDS ss ss ss
-2.9872 3.3596
-2.8421 3.3252
-1.9227 2.0345
ITEM: ATOMS id type xs ys zs
1 1 .511261 .993214 .515107
2 1 .992503 .579066 .510943
3 1 .755955 .008770 .497212
4 1 .161149 .055549 .499215
5 1 .007055 .649394 .478870
6 1 .487387 .463654 .987454
7 1 .496723 .469119 .012415
ITEM: TIMESTEP
250
ITEM: NUMBER OF ATOMS
7
ITEM: BOX BOUNDS ss ss ss
-2.9893 3.3608
-2.8331 3.3373
-1.9259 2.0341
ITEM: ATOMS id type xs ys zs
1 1 .512202 .990600 .515879
2 1 .991777 .577730 .511706
3 1 .756641 .007440 .496905
4 1 .161809 .054308 .499693
5 1 .007496 .647816 .479549
6 1 .487588 .461506 .988169
7 1 .496571 .467038 .013057
ITEM: TIMESTEP
300
ITEM: NUMBER OF ATOMS
7
ITEM: BOX BOUNDS ss ss ss
-2.9880 3.3563
-2.8446 3.3237
-1.9287 2.0366
ITEM: ATOMS id type xs ys zs
1 1 .513524 .991850 .516490
2 1 .992156 .580041 .511422
3 1 .757966 .009116 .495418
4 1 .162158 .056039 .500049
5 1 .007286 .649759 .479872
6 1 .487919 .462820 .987872
7 1 .496538 .468537 .013813
ITEM: TIMESTEP
350
ITEM: NUMBER OF ATOMS
7
ITEM: BOX BOUNDS ss ss ss
-2.9838 3.3534
-2.8350 3.3232
-1.9227 2.0403
ITEM: ATOMS id type xs ys zs
1 1 .514399 .991046 .515225
2 1 .992183 .580080 .510141
3 1 .758882 .007829 .492883
4 1 .162175 .053984 .498945
5 1 .006917 .649036 .478263
6 1 .487641 .461408 .987639
7 1 .496162 .467202 .012179
ITEM: TIMESTEP
400
ITEM: NUMBER OF ATOMS
7
ITEM: BOX BOUNDS ss ss ss
-2.9843 3.3548
-2.8398 3.3151
-1.9227 2.0384
ITEM: ATOMS id type xs ys zs
1 1 .515042 .991962 .514094
2 1 .991489 .582502 .510816
3 1 .759254 .009382 .493363
4 1 .162477 .054280 .499279
5 1 .007444 .650137 .477691
6 1 .487298 .462415 .988607
7 1 .496012 .467806 .012103
ITEM: TIMESTEP
1
ITEM: NUMBER OF ATOMS
7
ITEM: BOX BOUNDS ss ss ss
-2.9728 3.3328
-2.8242 3.3083
-1.9137 2.0503
ITEM: ATOMS id type xs ys zs
1 1 .512312 .995900 .511661
2 1 .996694 .579371 .507929
3 1 .758359 .006176 .495137
4 1 .159499 .052401 .496211
5 1 .005210 .649988 .475954
6 1 .487842 .463427 .982688
7 1 .497513 .468586 .009679
ITEM: TIMESTEP
50
ITEM: NUMBER OF ATOMS
7
ITEM: BOX BOUNDS ss ss ss
-2.9728 3.3475
-2.8242 3.3137
-1.9137 2.0503
ITEM: ATOMS id type xs ys zs
1 1 .510639 .995388 .511935
2 1 .994799 .578362 .507847
3 1 .756398 .006001 .495023
4 1 .159176 .052355 .496546
5 1 .005044 .649163 .475641
6 1 .486890 .463256 .982390
7 1 .496553 .468487 .009876
ITEM: TIMESTEP
100
ITEM: NUMBER OF ATOMS
7
ITEM: BOX BOUNDS ss ss ss
-2.9776 3.3525
-2.8290 3.3256
-1.9137 2.0503
ITEM: ATOMS id type xs ys zs
1 1 .510324 .993611 .512054
2 1 .994218 .577371 .507794
3 1 .755888 .006602 .494862
4 1 .159728 .053076 .496662
5 1 .005639 .648158 .475377
6 1 .487039 .462900 .982414
7 1 .496612 .468066 .010078
ITEM: TIMESTEP
150
ITEM: NUMBER OF ATOMS
7
ITEM: BOX BOUNDS ss ss ss
-2.9909 3.3630
-2.8342 3.3362
-1.9137 2.0343
ITEM: ATOMS id type xs ys zs
1 1 .510498 .991806 .514203
2 1 .992508 .576989 .509730
3 1 .755108 .007309 .496450
4 1 .161228 .053888 .498669
5 1 .007656 .647387 .477142
6 1 .487475 .462524 .986604
7 1 .496786 .467656 .010352
ITEM: TIMESTEP
200
ITEM: NUMBER OF ATOMS
7
ITEM: BOX BOUNDS ss ss ss
-2.9900 3.3638
-2.8315 3.3347
-1.9226 2.0280
ITEM: ATOMS id type xs ys zs
1 1 .510946 .991679 .516402
2 1 .992141 .577756 .511584
3 1 .755042 .007066 .497913
4 1 .161011 .053699 .501038
5 1 .007620 .647547 .479065
6 1 .487425 .462113 .988803
7 1 .496426 .467344 .012779
ITEM: TIMESTEP
250
ITEM: NUMBER OF ATOMS
7
ITEM: BOX BOUNDS ss ss ss
-2.9938 3.3659
-2.8376 3.3329
-1.9170 2.0356
ITEM: ATOMS id type xs ys zs
1 1 .511878 .991541 .514744
2 1 .990950 .579945 .510756
3 1 .754683 .008573 .494968
4 1 .161425 .055335 .500187
5 1 .008471 .648639 .478052
6 1 .487707 .462646 .988025
7 1 .496020 .468459 .010882
ITEM: TIMESTEP
300
ITEM: NUMBER OF ATOMS
7
ITEM: BOX BOUNDS ss ss ss
-3.0037 3.3718
-2.8409 3.3307
-1.9236 2.0337
ITEM: ATOMS id type xs ys zs
1 1 .512705 .991529 .515535
2 1 .989144 .581736 .512626
3 1 .754085 .009514 .494583
4 1 .162654 .056420 .501610
5 1 .009925 .649245 .479996
6 1 .488121 .463148 .989281
7 1 .496030 .469375 .011737
ITEM: TIMESTEP
350
ITEM: NUMBER OF ATOMS
7
ITEM: BOX BOUNDS ss ss ss
-2.9891 3.3632
-2.8383 3.3253
-1.9238 2.0445
ITEM: ATOMS id type xs ys zs
1 1 .512218 .992085 .514289
2 1 .989893 .582535 .511091
3 1 .754513 .009370 .492500
4 1 .160751 .055990 .499942
5 1 .007409 .649519 .479032
6 1 .487438 .463125 .986949
7 1 .495354 .469541 .011397
ITEM: TIMESTEP
400
ITEM: NUMBER OF ATOMS
7
ITEM: BOX BOUNDS ss ss ss
-2.9950 3.3512
-2.8324 3.3297
-1.9313 2.0485
ITEM: ATOMS id type xs ys zs
1 1 .513551 .991220 .515377
2 1 .991212 .582008 .510790
3 1 .756244 .008663 .492564
4 1 .161668 .054718 .500373
5 1 .008331 .648695 .479637
6 1 .488662 .461895 .986322
7 1 .496284 .468465 .013168
ITEM: TIMESTEP
1
ITEM: NUMBER OF ATOMS
7
ITEM: BOX BOUNDS ss ss ss
-2.9893 3.3432
-2.8247 3.3281
-1.9208 2.0389
ITEM: ATOMS id type xs ys zs
1 1 .512742 .992695 .514019
2 1 .995071 .577541 .510291
3 1 .757746 .006238 .497476
4 1 .161423 .052304 .498554
5 1 .007785 .647924 .478271
6 1 .488373 .461978 .985558
7 1 .498004 .467119 .011495
ITEM: TIMESTEP
50
ITEM: NUMBER OF ATOMS
7
ITEM: BOX BOUNDS ss ss ss
-2.9893 3.3438
-2.8247 3.3281
-1.9208 2.0389
ITEM: ATOMS id type xs ys zs
1 1 .512166 .993121 .514299
2 1 .995433 .576988 .510246
3 1 .757469 .006051 .497384
4 1 .161460 .052300 .498919
5 1 .007611 .647647 .477931
6 1 .488553 .462256 .985246
7 1 .498170 .467468 .011741
ITEM: TIMESTEP
100
ITEM: NUMBER OF ATOMS
7
ITEM: BOX BOUNDS ss ss ss
-2.9893 3.3538
-2.8279 3.3307
-1.9208 2.0389
ITEM: ATOMS id type xs ys zs
1 1 .511022 .992911 .514431
2 1 .994156 .576654 .510246
3 1 .756129 .006346 .497225
4 1 .161244 .052835 .499111
5 1 .007410 .647413 .477593
6 1 .487954 .462553 .985216
7 1 .497508 .467712 .011968
ITEM: TIMESTEP
150
ITEM: NUMBER OF ATOMS
7
ITEM: BOX BOUNDS ss ss ss
-2.9893 3.3659
-2.8390 3.3281
-1.9208 2.0389
ITEM: ATOMS id type xs ys zs
1 1 .509985 .993266 .514249
2 1 .992224 .577804 .510197
3 1 .754743 .007927 .497002
4 1 .161006 .054634 .499061
5 1 .007330 .648338 .477513
6 1 .487151 .463701 .985211
7 1 .496541 .468643 .012008
ITEM: TIMESTEP
200
ITEM: NUMBER OF ATOMS
7
ITEM: BOX BOUNDS ss ss ss
-2.9923 3.3590
-2.8374 3.3342
-1.9208 2.0389
ITEM: ATOMS id type xs ys zs
1 1 .510792 .992141 .513982
2 1 .993183 .577589 .510014
3 1 .755891 .007493 .496430
4 1 .161552 .054380 .498856
5 1 .007845 .647764 .477527
6 1 .488082 .463051 .985563
7 1 .497291 .467551 .012295
ITEM: TIMESTEP
250
ITEM: NUMBER OF ATOMS
7
ITEM: BOX BOUNDS ss ss ss
-2.9914 3.3660
-2.8472 3.3316
-1.9395 2.0389
ITEM: ATOMS id type xs ys zs
1 1 .510133 .992497 .516018
2 1 .991790 .579204 .511833
3 1 .755089 .008827 .497753
4 1 .161084 .056105 .500854
5 1 .007652 .649041 .479821
6 1 .487531 .463934 .985879
7 1 .496442 .468299 .017141
ITEM: TIMESTEP
300
ITEM: NUMBER OF ATOMS
7
ITEM: BOX BOUNDS ss ss ss
-2.9931 3.3687
-2.8471 3.3403
-1.9187 2.0389
ITEM: ATOMS id type xs ys zs
1 1 .510247 .990933 .512389
2 1 .990465 .579749 .507738
3 1 .754557 .008769 .493253
4 1 .160781 .056617 .497884
5 1 .007986 .648839 .476712
6 1 .487586 .463177 .985957
7 1 .495549 .467495 .011722
ITEM: TIMESTEP
350
ITEM: NUMBER OF ATOMS
7
ITEM: BOX BOUNDS ss ss ss
-2.9959 3.3594
-2.8440 3.3365
-1.9205 2.0389
ITEM: ATOMS id type xs ys zs
1 1 .512416 .991302 .510898
2 1 .991040 .581100 .505892
3 1 .755367 .008164 .491193
4 1 .160872 .056834 .498074
5 1 .008974 .649830 .476707
6 1 .488664 .463364 .986261
7 1 .496044 .467067 .011355
ITEM: TIMESTEP
400
ITEM: NUMBER OF ATOMS
7
ITEM: BOX BOUNDS ss ss ss
-2.9906 3.3567
-2.8408 3.3284
-1.9257 2.0371
ITEM: ATOMS id type xs ys zs
1 1 .513796 .992583 .510717
2 1 .990360 .582316 .506075
3 1 .755331 .007274 .490474
4 1 .159781 .056656 .499146
5 1 .009192 .651115 .477347
6 1 .488302 .463640 .986574
7 1 .495596 .466407 .011542
ITEM: TIMESTEP
1
ITEM: NUMBER OF ATOMS
7
ITEM: BOX BOUNDS ss ss ss
-2.9806 3.3486
-2.8376 3.3279
-1.9196 2.0213
ITEM: ATOMS id type xs ys zs
1 1 .511634 .992747 .516158
2 1 .994227 .578439 .512407
3 1 .756772 .008308 .499535
4 1 .160130 .054285 .500618
5 1 .006413 .648680 .480238
6 1 .487255 .463121 .989950
7 1 .496894 .468252 .011223
ITEM: TIMESTEP
50
ITEM: NUMBER OF ATOMS
7
ITEM: BOX BOUNDS ss ss ss
-2.9806 3.3486
-2.8376 3.3279
-1.9196 2.0213
ITEM: ATOMS id type xs ys zs
1 1 .511025 .993207 .516488
2 1 .994738 .577821 .512308
3 1 .756562 .008115 .499410
4 1 .160172 .054253 .501021
5 1 .006236 .648376 .479847
6 1 .487448 .463430 .989564
7 1 .497130 .468623 .011440
ITEM: TIMESTEP
100
ITEM: NUMBER OF ATOMS
7
ITEM: BOX BOUNDS ss ss ss
-2.9806 3.3524
-2.8376 3.3360
-1.9196 2.0214
ITEM: ATOMS id type xs ys zs
1 1 .510338 .992144 .516666
2 1 .994436 .576745 .512097
3 1 .756012 .007875 .499142
4 1 .160136 .054281 .501231
5 1 .006025 .647400 .479396
6 1 .487306 .462976 .989448
7 1 .496973 .468205 .011707
ITEM: TIMESTEP
150
ITEM: NUMBER OF ATOMS
7
ITEM: BOX BOUNDS ss ss ss
-2.9956 3.3657
-2.8376 3.3309
-1.9214 2.0264
ITEM: ATOMS id type xs ys zs
1 1 .510236 .993039 .516211
2 1 .992462 .577121 .511574
3 1 .754934 .007756 .498575
4 1 .161763 .054538 .500970
5 1 .008181 .647953 .478743
6 1 .487597 .463491 .988370
7 1 .497136 .468660 .012273
ITEM: TIMESTEP
200
ITEM: NUMBER OF ATOMS
7
ITEM: BOX BOUNDS ss ss ss
-2.9909 3.3649
-2.8377 3.3366
-1.9182 2.0306
ITEM: ATOMS id type xs ys zs
1 1 .510054 .992222 .515314
2 1 .992428 .576637 .510534
3 1 .754746 .007677 .497308
4 1 .160912 .054751 .500297
5 1 .007246 .647700 .477604
6 1 .487314 .463007 .987394
7 1 .496700 .468144 .011556
ITEM: TIMESTEP
250
ITEM: NUMBER OF ATOMS
7
ITEM: BOX BOUNDS ss ss ss
-3.0055 3.3729
-2.8399 3.3418
-1.9230 2.0294
ITEM: ATOMS id type xs ys zs
1 1 .510777 .991286 .516137
2 1 .991100 .576756 .511305
3 1 .754233 .007873 .497659
4 1 .162105 .055182 .501311
5 1 .009261 .648085 .478295
6 1 .487732 .462543 .987494
7 1 .497008 .467693 .013170
ITEM: TIMESTEP
300
ITEM: NUMBER OF ATOMS
7
ITEM: BOX BOUNDS ss ss ss
-3.0013 3.3641
-2.8472 3.3438
-1.9163 2.0249
ITEM: ATOMS id type xs ys zs
1 1 .511512 .990703 .515841
2 1 .992228 .577565 .511368
3 1 .755135 .008760 .497710
4 1 .161488 .056387 .501155
5 1 .008561 .649052 .477909
6 1 .488055 .462756 .988997
7 1 .497270 .467656 .012446
ITEM: TIMESTEP
350
ITEM: NUMBER OF ATOMS
7
ITEM: BOX BOUNDS ss ss ss
-3.0041 3.3690
-2.8501 3.3397
-1.9181 2.0286
ITEM: ATOMS id type xs ys zs
1 1 .512205 .990658 .514618
2 1 .991034 .578360 .511522
3 1 .754786 .009040 .498811
4 1 .161725 .056797 .501273
5 1 .009360 .649665 .477507
6 1 .487819 .463051 .988961
7 1 .496991 .467081 .013347
ITEM: TIMESTEP
400
ITEM: NUMBER OF ATOMS
7
ITEM: BOX BOUNDS ss ss ss
-2.9919 3.3636
-2.8478 3.3413
-1.9157 2.0344
ITEM: ATOMS id type xs ys zs
1 1 .512510 .989418 .513060
2 1 .991901 .578069 .510733
3 1 .755097 .008660 .498123
4 1 .160400 .055910 .501097
5 1 .007902 .648744 .476665
6 1 .487245 .462652 .987801
7 1 .496417 .466021 .012170
ITEM: TIMESTEP
1
ITEM: NUMBER OF ATOMS
7
ITEM: BOX BOUNDS ss ss ss
-2.9969 3.3569
-2.8425 3.3217
-1.9235 2.0344
ITEM: ATOMS id type xs ys zs
1 1 .512224 .993742 .514932
2 1 .992939 .579353 .511192
3 1 .756405 .009109 .498380
4 1 .162084 .055093 .499455
5 1 .008966 .649607 .479166
6 1 .487937 .464012 .986680
7 1 .497536 .469143 .012174
ITEM: TIMESTEP
50
ITEM: NUMBER OF ATOMS
7
ITEM: BOX BOUNDS ss ss ss
-2.9969 3.3569
-2.8425 3.3217
-1.9235 2.0344
ITEM: ATOMS id type xs ys zs
1 1 .511600 .994216 .515269
2 1 .993484 .578700 .511091
3 1 .756168 .008907 .498264
4 1 .162138 .055076 .499874
5 1 .008769 .649253 .478780
6 1 .488177 .464344 .986285
7 1 .497797 .469551 .012408
ITEM: TIMESTEP
100
ITEM: NUMBER OF ATOMS
7
ITEM: BOX BOUNDS ss ss ss
-2.9969 3.3569
-2.8425 3.3241
-1.9235 2.0344
ITEM: ATOMS id type xs ys zs
1 1 .511211 .994089 .515541
2 1 .993797 .578130 .511029
3 1 .756024 .008677 .498143
4 1 .162211 .055140 .500194
5 1 .008575 .648891 .478423
6 1 .488388 .464425 .986274
7 1 .497965 .469617 .012690
ITEM: TIMESTEP
150
ITEM: NUMBER OF ATOMS
7
ITEM: BOX BOUNDS ss ss ss
-2.9969 3.3657
-2.8425 3.3348
-1.9256 2.0344
ITEM: ATOMS id type xs ys zs
1 1 .510340 .992500 .515928
2 1 .992488 .576985 .511317
3 1 .754940 .008441 .498261
4 1 .162069 .055163 .500763
5 1 .008451 .647847 .478442
6 1 .487853 .463718 .986448
7 1 .497255 .468875 .013440
ITEM: TIMESTEP
200
ITEM: NUMBER OF ATOMS
7
ITEM: BOX BOUNDS ss ss ss
-2.9969 3.3650
-2.8425 3.3392
-1.9305 2.0344
ITEM: ATOMS id type xs ys zs
1 1 .510543 .991961 .516649
2 1 .992500 .576797 .511971
3 1 .755298 .008225 .498873
4 1 .162104 .055160 .501374
5 1 .008339 .647693 .479272
6 1 .488074 .463396 .986503
7 1 .497129 .468487 .014925
ITEM: TIMESTEP
250
ITEM: NUMBER OF ATOMS
7
ITEM: BOX BOUNDS ss ss ss
-2.9969 3.3682
-2.8452 3.3488
-1.9235 2.0383
ITEM: ATOMS id type xs ys zs
1 1 .510740 .990588 .515216
2 1 .992030 .576408 .510194
3 1 .755008 .008352 .497274
4 1 .162083 .055622 .499859
5 1 .008288 .647125 .478299
6 1 .488093 .462757 .985341
7 1 .496800 .468181 .013476
ITEM: TIMESTEP
300
ITEM: NUMBER OF ATOMS
7
ITEM: BOX BOUNDS ss ss ss
-3.0008 3.3737
-2.8493 3.3459
-1.9235 2.0344
ITEM: ATOMS id type xs ys zs
1 1 .510936 .991274 .515741
2 1 .991091 .577233 .510346
3 1 .754583 .008778 .497065
4 1 .162436 .056561 .500885
5 1 .009031 .648191 .478781
6 1 .488161 .463226 .986309
7 1 .496845 .468814 .013712
ITEM: TIMESTEP
350
ITEM: NUMBER OF ATOMS
7
ITEM: BOX BOUNDS ss ss ss
-3.0066 3.3710
-2.8567 3.3533
-1.9235 2.0352
ITEM: ATOMS id type xs ys zs
1 1 .512120 .989870 .515148
2 1 .991397 .577016 .509944
3 1 .755639 .009405 .496926
4 1 .163333 .058252 .500808
5 1 .010127 .649050 .478628
6 1 .488905 .462989 .985991
7 1 .497792 .468290 .013760
ITEM: TIMESTEP
400
ITEM: NUMBER OF ATOMS
7
ITEM: BOX BOUNDS ss ss ss
-3.0020 3.3650
-2.8521 3.3491
-1.9235 2.0344
ITEM: ATOMS id type xs ys zs
1 1 .512522 .989939 .514272
2 1 .992290 .576619 .509917
3 1 .756859 .008075 .497671
4 1 .163258 .057821 .499975
5 1 .009535 .649932 .479175
6 1 .489074 .462862 .986376
7 1 .497630 .466700 .014260
ITEM: TIMESTEP
450
ITEM: NUMBER OF ATOMS
7
ITEM: BOX BOUNDS ss ss ss
-2.9958 3.3668
-2.8659 3.3454
-1.9236 2.0519
ITEM: ATOMS id type xs ys zs
1 1 .512306 .990036 .511391
2 1 .992225 .577313 .507765
3 1 .757200 .009775 .495851
4 1 .162463 .059824 .497217
5 1 .008631 .651252 .478128
6 1 .488702 .463987 .982063
7 1 .496545 .466999 .014983
ITEM: TIMESTEP
1
ITEM: NUMBER OF ATOMS
7
ITEM: BOX BOUNDS ss ss ss
-2.9916 3.3634
-2.8565 3.3280
-1.9079 2.0289
ITEM: ATOMS id type xs ys zs
1 1 .511288 .992759 .513734
2 1 .991919 .579723 .509972
3 1 .755430 .011351 .497087
4 1 .161212 .057187 .498173
5 1 .008119 .649750 .477769
6 1 .487008 .464760 .988016
7 1 .496608 .469876 .008280
ITEM: TIMESTEP
50
ITEM: NUMBER OF ATOMS
7
ITEM: BOX BOUNDS ss ss ss
-2.9855 3.3634
-2.8565 3.3280
-1.9079 2.0289
ITEM: ATOMS id type xs ys zs
1 1 .510136 .993276 .514126
2 1 .992519 .579004 .509863
3 1 .754934 .011120 .496990
4 1 .160457 .057177 .498649
5 1 .006980 .649403 .477354
6 1 .486769 .465106 .987614
7 1 .496396 .470320 .008532
ITEM: TIMESTEP
100
ITEM: NUMBER OF ATOMS
7
ITEM: BOX BOUNDS ss ss ss
-2.9855 3.3634
-2.8565 3.3288
-1.9197 2.0289
ITEM: ATOMS id type xs ys zs
1 1 .509654 .993391 .515767
2 1 .992951 .578520 .511238
3 1 .754771 .010888 .498312
4 1 .160541 .057255 .500432
5 1 .006752 .649129 .478482
6 1 .486964 .465284 .987490
7 1 .496601 .470505 .011731
ITEM: TIMESTEP
150
ITEM: NUMBER OF ATOMS
7
ITEM: BOX BOUNDS ss ss ss
-2.9873 3.3649
-2.8565 3.3368
-1.9163 2.0294
ITEM: ATOMS id type xs ys zs
1 1 .509263 .992050 .515194
2 1 .992898 .577540 .510547
3 1 .754753 .010795 .497614
4 1 .160851 .057445 .500030
5 1 .006798 .648282 .477549
6 1 .487121 .464710 .987498
7 1 .496697 .469827 .010965
ITEM: TIMESTEP
200
ITEM: NUMBER OF ATOMS
7
ITEM: BOX BOUNDS ss ss ss
-2.9923 3.3703
-2.8565 3.3345
-1.9173 2.0289
ITEM: ATOMS id type xs ys zs
1 1 .508980 .992133 .515546
2 1 .991935 .577683 .510585
3 1 .754478 .010864 .497495
4 1 .161545 .057706 .500746
5 1 .007214 .648648 .477290
6 1 .487148 .464915 .988036
7 1 .496440 .469792 .011203
ITEM: TIMESTEP
250
ITEM: NUMBER OF ATOMS
7
ITEM: BOX BOUNDS ss ss ss
-2.9994 3.3710
-2.8565 3.3386
-1.9249 2.0373
ITEM: ATOMS id type xs ys zs
1 1 .509639 .991475 .515197
2 1 .991609 .577344 .510132
3 1 .754563 .010681 .496643
4 1 .162579 .057641 .500878
5 1 .008306 .648058 .476969
6 1 .487790 .464649 .986180
7 1 .496710 .469342 .013058
ITEM: TIMESTEP
300
ITEM: NUMBER OF ATOMS
7
ITEM: BOX BOUNDS ss ss ss
-3.0098 3.3722
-2.8565 3.3423
-1.9303 2.0351
ITEM: ATOMS id type xs ys zs
1 1 .510998 .990839 .515986
2 1 .991047 .577172 .510495
3 1 .754616 .010502 .497563
4 1 .163679 .057301 .502384
5 1 .010207 .647395 .478085
6 1 .488569 .464190 .986860
7 1 .497373 .468765 .014301
ITEM: TIMESTEP
350
ITEM: NUMBER OF ATOMS
7
ITEM: BOX BOUNDS ss ss ss
-3.0057 3.3643
-2.8526 3.3357
-1.9262 2.0295
ITEM: ATOMS id type xs ys zs
1 1 .511643 .991659 .515848
2 1 .991549 .578104 .510106
3 1 .755084 .009539 .498614
4 1 .162802 .056441 .503645
5 1 .009868 .647802 .478454
6 1 .488922 .463985 .988254
7 1 .497347 .468164 .013266
ITEM: TIMESTEP
400
ITEM: NUMBER OF ATOMS
7
ITEM: BOX BOUNDS ss ss ss
-3.0140 3.3738
-2.8605 3.3397
-1.9262 2.0289
ITEM: ATOMS id type xs ys zs
1 1 .511210 .991046 .515378
2 1 .990071 .578708 .510516
3 1 .753766 .010372 .499096
4 1 .163007 .057767 .504596
5 1 .011054 .647900 .478958
6 1 .489021 .464394 .988384
7 1 .497301 .468278 .013716
ITEM: TIMESTEP
450
ITEM: NUMBER OF ATOMS
7
ITEM: BOX BOUNDS ss ss ss
-3.0198 3.3675
-2.8519 3.3346
-1.9438 2.0296
ITEM: ATOMS id type xs ys zs
1 1 .512320 .991985 .516885
2 1 .991074 .578893 .513078
3 1 .754189 .008748 .501191
4 1 .163506 .056634 .507142
5 1 .012033 .648012 .481410
6 1 .489887 .464173 .988435
7 1 .498441 .468038 .018283
ITEM: TIMESTEP
500
ITEM: NUMBER OF ATOMS
7
ITEM: BOX BOUNDS ss ss ss
-3.0165 3.3695
-2.8577 3.3465
-1.9574 2.0361
ITEM: ATOMS id type xs ys zs
1 1 .512088 .990173 .517429
2 1 .990698 .578369 .514501
3 1 .753653 .009743 .501847
4 1 .162790 .057768 .508500
5 1 .011482 .647374 .482193
6 1 .489269 .463977 .987438
7 1 .497995 .467938 .021743
ITEM: TIMESTEP
550
ITEM: NUMBER OF ATOMS
7
ITEM: BOX BOUNDS ss ss ss
-3.0052 3.3671
-2.8593 3.3433
-1.9622 2.0387
ITEM: ATOMS id type xs ys zs
1 1 .511976 .990401 .517980
2 1 .991127 .579048 .515636
3 1 .753790 .010119 .501870
4 1 .161585 .057910 .509149
5 1 .009670 .647811 .482177
6 1 .488122 .464254 .987147
7 1 .497351 .468503 .023377
ITEM: TIMESTEP
600
ITEM: NUMBER OF ATOMS
7
ITEM: BOX BOUNDS ss ss ss
-3.0084 3.3772
-2.8559 3.3453
-1.9426 2.0389
ITEM: ATOMS id type xs ys zs
1 1 .512222 .990162 .516312
2 1 .989571 .578615 .513385
3 1 .753186 .009564 .498329
4 1 .162212 .056692 .506492
5 1 .010154 .647261 .479127
6 1 .487221 .463577 .986457
7 1 .496861 .468028 .018763
ITEM: TIMESTEP
650
ITEM: NUMBER OF ATOMS
7
ITEM: BOX BOUNDS ss ss ss
-3.0117 3.3649
-2.8578 3.3483
-1.9420 2.0441
ITEM: ATOMS id type xs ys zs
1 1 .515405 .989472 .515234
2 1 .991758 .578083 .512717
3 1 .755062 .009713 .496212
4 1 .163434 .055956 .504924
5 1 .010974 .646482 .478178
6 1 .488358 .463134 .984456
7 1 .498186 .467873 .018533
ITEM: TIMESTEP
1
ITEM: NUMBER OF ATOMS
7
ITEM: BOX BOUNDS ss ss ss
-3.0151 3.3690
-2.8426 3.3393
-1.9277 2.0309
ITEM: ATOMS id type xs ys zs
1 1 .512635 .990920 .515895
2 1 .991077 .577711 .512157
3 1 .755663 .009109 .499350
4 1 .164165 .054957 .500426
5 1 .011769 .647769 .480135
6 1 .488473 .462705 .987561
7 1 .498023 .467822 .013225
ITEM: TIMESTEP
50
ITEM: NUMBER OF ATOMS
7
ITEM: BOX BOUNDS ss ss ss
-3.0037 3.3690
-2.8426 3.3393
-1.9277 2.0309
ITEM: ATOMS id type xs ys zs
1 1 .511011 .991467 .516280
2 1 .991691 .576944 .512024
3 1 .754935 .008886 .499294
4 1 .162715 .054941 .500904
5 1 .009750 .647392 .479658
6 1 .487794 .463079 .987113
7 1 .497415 .468307 .013477
ITEM: TIMESTEP
100
ITEM: NUMBER OF ATOMS
7
ITEM: BOX BOUNDS ss ss ss
-3.0037 3.3690
-2.8426 3.3393
-1.9277 2.0309
ITEM: ATOMS id type xs ys zs
1 1 .510420 .991841 .516556
2 1 .992173 .576471 .511897
3 1 .754769 .008618 .499134
4 1 .162719 .055005 .501195
5 1 .009500 .647192 .479320
6 1 .487986 .463310 .986838
7 1 .497630 .468587 .013763
ITEM: TIMESTEP
150
ITEM: NUMBER OF ATOMS
7
ITEM: BOX BOUNDS ss ss ss
-3.0037 3.3690
-2.8426 3.3393
-1.9277 2.0309
ITEM: ATOMS id type xs ys zs
1 1 .510278 .991873 .516553
2 1 .992295 .576618 .511631
3 1 .754777 .008417 .499152
4 1 .162470 .055207 .501141
5 1 .009361 .647219 .479518
6 1 .488094 .463241 .986709
7 1 .497656 .468535 .014033
ITEM: TIMESTEP
200
ITEM: NUMBER OF ATOMS
7
ITEM: BOX BOUNDS ss ss ss
-2.9913 3.3690
-2.8426 3.3428
-1.9212 2.0309
ITEM: ATOMS id type xs ys zs
1 1 .509220 .991207 .515698
2 1 .992222 .576619 .510266
3 1 .754473 .008294 .498735
4 1 .160539 .055409 .500008
5 1 .007516 .646961 .479200
6 1 .487382 .462660 .986549
7 1 .496552 .467965 .012413
ITEM: TIMESTEP
250
ITEM: NUMBER OF ATOMS
7
ITEM: BOX BOUNDS ss ss ss
-3.0064 3.3771
-2.8446 3.3393
-1.9205 2.0309
ITEM: ATOMS id type xs ys zs
1 1 .509551 .991563 .515256
2 1 .990833 .576930 .509891
3 1 .754257 .008333 .499168
4 1 .162110 .055909 .499570
5 1 .009853 .647720 .478958
6 1 .488304 .462917 .986516
7 1 .496991 .467942 .011969
ITEM: TIMESTEP
300
ITEM: NUMBER OF ATOMS
7
ITEM: BOX BOUNDS ss ss ss
-2.9964 3.3683
-2.8426 3.3417
-1.9173 2.0309
ITEM: ATOMS id type xs ys zs
1 1 .509446 .991019 .514333
2 1 .992111 .576205 .509651
3 1 .754853 .007845 .499009
4 1 .161103 .055597 .499587
5 1 .008206 .647497 .477899
6 1 .488360 .462672 .986394
7 1 .496578 .466997 .011062
ITEM: TIMESTEP
350
ITEM: NUMBER OF ATOMS
7
ITEM: BOX BOUNDS ss ss ss
-3.0046 3.3764
-2.8528 3.3419
-1.9182 2.0309
ITEM: ATOMS id type xs ys zs
1 1 .509178 .990727 .513558
2 1 .991006 .576542 .510288
3 1 .754087 .008977 .498932
4 1 .162104 .057410 .500257
5 1 .009087 .648102 .477362
6 1 .488565 .463626 .986542
7 1 .496478 .467344 .011622
ITEM: TIMESTEP
400
ITEM: NUMBER OF ATOMS
7
ITEM: BOX BOUNDS ss ss ss
-3.0031 3.3719
-2.8585 3.3376
-1.9305 2.0309
ITEM: ATOMS id type xs ys zs
1 1 .508463 .990669 .513544
2 1 .991437 .577627 .512453
3 1 .755015 .009458 .499669
4 1 .162562 .058478 .502502
5 1 .008220 .648432 .478562
6 1 .488814 .464265 .986977
7 1 .496624 .467681 .014747
ITEM: TIMESTEP
450
ITEM: NUMBER OF ATOMS
7
ITEM: BOX BOUNDS ss ss ss
-3.0135 3.3744
-2.8571 3.3364
-1.9315 2.0331
ITEM: ATOMS id type xs ys zs
1 1 .506863 .989064 .509353
2 1 .989284 .579058 .513068
3 1 .756197 .009621 .498550
4 1 .165120 .057791 .504078
5 1 .008681 .647261 .477870
6 1 .489073 .464140 .987464
7 1 .496192 .466505 .013734
ITEM: TIMESTEP
500
ITEM: NUMBER OF ATOMS
7
ITEM: BOX BOUNDS ss ss ss
-3.0153 3.3738
-2.8487 3.3330
-1.9275 2.0352
ITEM: ATOMS id type xs ys zs
1 1 .505323 .988750 .505792