ITEM: TIMESTEP
1
ITEM: NUMBER OF ATOMS
7
ITEM: BOX BOUNDS ss ss ss
-2.9437 3.3160
-2.7901 3.2873
-1.8789 1.9854
ITEM: ATOMS id type xs ys zs
1 1 .511522 .999243 .515809
2 1 .999263 .579117 .512068
3 1 .759307 .000639 .498921
4 1 .156012 .047259 .499946
5 1 .000631 .650332 .479290
6 1 .486737 .461966 .999106
7 1 .496476 .467148 .000900
ITEM: TIMESTEP
50
ITEM: NUMBER OF ATOMS
7
ITEM: BOX BOUNDS ss ss ss
-2.9676 3.3393
-2.8129 3.3119
-1.9021 2.0101
ITEM: ATOMS id type xs ys zs
1 1 .512242 .994003 .513119
2 1 .992640 .579055 .513105
3 1 .757957 .003678 .495113
4 1 .158368 .051322 .499723
5 1 .005380 .649612 .479682
6 1 .486639 .461880 .991376
7 1 .494971 .465738 .002769
ITEM: TIMESTEP
100
ITEM: NUMBER OF ATOMS
7
ITEM: BOX BOUNDS ss ss ss
-2.9763 3.3502
-2.8257 3.3235
-1.9152 2.0132
ITEM: ATOMS id type xs ys zs
1 1 .511153 .990456 .512557
2 1 .991541 .579329 .516141
3 1 .756672 .005678 .499848
4 1 .158013 .052765 .497138
5 1 .005666 .649647 .479066
6 1 .485662 .461094 .990093
7 1 .495959 .465960 .004525
ITEM: TIMESTEP
150
ITEM: NUMBER OF ATOMS
7
ITEM: BOX BOUNDS ss ss ss
-2.9810 3.3521
-2.8306 3.3307
-1.9167 2.0214
ITEM: ATOMS id type xs ys zs
1 1 .510552 .991196 .511854
2 1 .990374 .581221 .511475
3 1 .756383 .008257 .496624
4 1 .159385 .052421 .498451
5 1 .006922 .649476 .482784
6 1 .485154 .462173 .988388
7 1 .494890 .464559 .007048
ITEM: TIMESTEP
200
ITEM: NUMBER OF ATOMS
7
ITEM: BOX BOUNDS ss ss ss
-2.9921 3.3517
-2.8363 3.3248
-1.9252 2.0258
ITEM: ATOMS id type xs ys zs
1 1 .512679 .990246 .507347
2 1 .990817 .584447 .507254
3 1 .758387 .011290 .499759
4 1 .159850 .053609 .500065
5 1 .007764 .650231 .483458
6 1 .485351 .462770 .986123
7 1 .494895 .464658 .008814
ITEM: TIMESTEP
250
ITEM: NUMBER OF ATOMS
7
ITEM: BOX BOUNDS ss ss ss
-2.9830 3.3557
-2.8347 3.3282
-1.9365 2.0366
ITEM: ATOMS id type xs ys zs
1 1 .512781 .989134 .511027
2 1 .988347 .583531 .511470
3 1 .757767 .008680 .498180
4 1 .160090 .053009 .499794
5 1 .008097 .650832 .484328
6 1 .485107 .461141 .987772
7 1 .494964 .464191 .009973
ITEM: TIMESTEP
300
ITEM: NUMBER OF ATOMS
7
ITEM: BOX BOUNDS ss ss ss
-2.9878 3.3504
-2.8319 3.3193
-1.9314 2.0401
ITEM: ATOMS id type xs ys zs
1 1 .515411 .990553 .505655
2 1 .987914 .584845 .507818
3 1 .758264 .008469 .498789
4 1 .161760 .052891 .498006
5 1 .009487 .650819 .482501
6 1 .486880 .462069 .989348
7 1 .492957 .465205 .009168
ITEM: TIMESTEP
350
ITEM: NUMBER OF ATOMS
7
ITEM: BOX BOUNDS ss ss ss
-2.9838 3.3396
-2.8281 3.3112
-1.9364 2.0267
ITEM: ATOMS id type xs ys zs
1 1 .517979 .990179 .508746
2 1 .989844 .585685 .512745
3 1 .761268 .008932 .501107
4 1 .162229 .054588 .500034
5 1 .007263 .653147 .484205
6 1 .485684 .463413 .993260
7 1 .493499 .463097 .007782
ITEM: TIMESTEP
400
ITEM: NUMBER OF ATOMS
7
ITEM: BOX BOUNDS ss ss ss
-2.9852 3.3302
-2.8247 3.3129
-1.9359 2.0274
ITEM: ATOMS id type xs ys zs
1 1 .518603 .991945 .506943
2 1 .990819 .585545 .508866
3 1 .761248 .008752 .501391
4 1 .161269 .052681 .496948
5 1 .008520 .654059 .485175
6 1 .486781 .462902 .991467
7 1 .493570 .463618 .010438
ITEM: TIMESTEP
1
ITEM: NUMBER OF ATOMS
7
ITEM: BOX BOUNDS ss ss ss
-2.9794 3.3191
-2.8169 3.2948
-1.9342 2.0232
ITEM: ATOMS id type xs ys zs
1 1 .514038 .998016 .517646
2 1 .998782 .580252 .513977
3 1 .760307 .005025 .501159
4 1 .160721 .051389 .502145
5 1 .006278 .651053 .481980
6 1 .489407 .463759 .989578
7 1 .499079 .468916 .014853
ITEM: TIMESTEP
50
ITEM: NUMBER OF ATOMS
7
ITEM: BOX BOUNDS ss ss ss
-2.9779 3.3420
-2.8169 3.3114
-1.9342 2.0232
ITEM: ATOMS id type xs ys zs
1 1 .512634 .994374 .516339
2 1 .994080 .580469 .513166
3 1 .757886 .005081 .501593
4 1 .159195 .051532 .501574
5 1 .006122 .649621 .482427
6 1 .487430 .461940 .990392
7 1 .497687 .466312 .014301
ITEM: TIMESTEP
100
ITEM: NUMBER OF ATOMS
7
ITEM: BOX BOUNDS ss ss ss
-2.9795 3.3500
-2.8246 3.3229
-1.9342 2.0232
ITEM: ATOMS id type xs ys zs
1 1 .512873 .992189 .514690
2 1 .992827 .580195 .515931
3 1 .759334 .005652 .499655
4 1 .160563 .054263 .501783
5 1 .005538 .650660 .479927
6 1 .487682 .462285 .993546
7 1 .496484 .464170 .013861
ITEM: TIMESTEP
150
ITEM: NUMBER OF ATOMS
7
ITEM: BOX BOUNDS ss ss ss
-2.9916 3.3651
-2.8287 3.3243
-1.9342 2.0304
ITEM: ATOMS id type xs ys zs
1 1 .511711 .991446 .515425
2 1 .989413 .582695 .515672
3 1 .758553 .006281 .497584
4 1 .161291 .055854 .499899
5 1 .007433 .651358 .477434
6 1 .485601 .462715 .989776
7 1 .495373 .464071 .015629
ITEM: TIMESTEP
200
ITEM: NUMBER OF ATOMS
7
ITEM: BOX BOUNDS ss ss ss
-2.9895 3.3578
-2.8315 3.3299
-1.9342 2.0450
ITEM: ATOMS id type xs ys zs
1 1 .512775 .990842 .513365
2 1 .989275 .580106 .509554
3 1 .753142 .008037 .500850
4 1 .157819 .053613 .496131
5 1 .008591 .650105 .485476
6 1 .487046 .461458 .983825
7 1 .493439 .466339 .012367
ITEM: TIMESTEP
250
ITEM: NUMBER OF ATOMS
7
ITEM: BOX BOUNDS ss ss ss
-2.9938 3.3596
-2.8304 3.3332
-1.9331 2.0290
ITEM: ATOMS id type xs ys zs
1 1 .513555 .989809 .515413
2 1 .987656 .580282 .510884
3 1 .753982 .007400 .502547
4 1 .159553 .053335 .498433
5 1 .009327 .648879 .483155
6 1 .486637 .460360 .984729
7 1 .493246 .463187 .010175
ITEM: TIMESTEP
300
ITEM: NUMBER OF ATOMS
7
ITEM: BOX BOUNDS ss ss ss
-2.9975 3.3741
-2.8360 3.3233
-1.9268 2.0354
ITEM: ATOMS id type xs ys zs
1 1 .513297 .988173 .516100
2 1 .985681 .580659 .510318
3 1 .751843 .007696 .499681
4 1 .159602 .054005 .496958
5 1 .009484 .648295 .481803
6 1 .485150 .459465 .987951
7 1 .492970 .463427 .009148
ITEM: TIMESTEP
350
ITEM: NUMBER OF ATOMS
7
ITEM: BOX BOUNDS ss ss ss
-2.9989 3.3639
-2.8422 3.3272
-1.9275 2.0309
ITEM: ATOMS id type xs ys zs
1 1 .513341 .986084 .515892
2 1 .985164 .581140 .511547
3 1 .755616 .007208 .501846
4 1 .161524 .053753 .501893
5 1 .009395 .648321 .481511
6 1 .486660 .458982 .991612
7 1 .493741 .461931 .012726
ITEM: TIMESTEP
400
ITEM: NUMBER OF ATOMS
7
ITEM: BOX BOUNDS ss ss ss
-2.9930 3.3601
-2.8426 3.3151
-1.9301 2.0353
ITEM: ATOMS id type xs ys zs
1 1 .513564 .987618 .514673
2 1 .985711 .584750 .510603
3 1 .756241 .008788 .500906
4 1 .159044 .056300 .500726
5 1 .008852 .650888 .484661
6 1 .487629 .459297 .991804
7 1 .492845 .462122 .013373
ITEM: TIMESTEP
1
ITEM: NUMBER OF ATOMS
7
ITEM: BOX BOUNDS ss ss ss
-2.9760 3.3363
-2.8328 3.3098
-1.9227 2.0334
ITEM: ATOMS id type xs ys zs
1 1 .512388 .995585 .514894
2 1 .996059 .579930 .511242
3 1 .758113 .007591 .498397
4 1 .159837 .053711 .499409
5 1 .005741 .650376 .479236
6 1 .487798 .464009 .986986
7 1 .497452 .469141 .011934
ITEM: TIMESTEP
50
ITEM: NUMBER OF ATOMS
7
ITEM: BOX BOUNDS ss ss ss
-2.9760 3.3432
-2.8328 3.3135
-1.9227 2.0334
ITEM: ATOMS id type xs ys zs
1 1 .512067 .992488 .515344
2 1 .994209 .581788 .514121
3 1 .757018 .008342 .496934
4 1 .161063 .052861 .498631
5 1 .005519 .650918 .480348
6 1 .487049 .461353 .987414
7 1 .497369 .468540 .012363
ITEM: TIMESTEP
100
ITEM: NUMBER OF ATOMS
7
ITEM: BOX BOUNDS ss ss ss
-2.9776 3.3561
-2.8328 3.3230
-1.9227 2.0334
ITEM: ATOMS id type xs ys zs
1 1 .514568 .993886 .518625
2 1 .991319 .581669 .509634
3 1 .758139 .008704 .496959
4 1 .160740 .053250 .497799
5 1 .006284 .648619 .481813
6 1 .487000 .462107 .989915
7 1 .496712 .470342 .011404
ITEM: TIMESTEP
150
ITEM: NUMBER OF ATOMS
7
ITEM: BOX BOUNDS ss ss ss
-2.9840 3.3570
-2.8348 3.3235
-1.9227 2.0334
ITEM: ATOMS id type xs ys zs
1 1 .512310 .991579 .513786
2 1 .989446 .579870 .511182
3 1 .757273 .008748 .496838
4 1 .162083 .053968 .498271
5 1 .007232 .650382 .478606
6 1 .487297 .462147 .990177
7 1 .494667 .466962 .009517
ITEM: TIMESTEP
200
ITEM: NUMBER OF ATOMS
7
ITEM: BOX BOUNDS ss ss ss
-2.9872 3.3596
-2.8421 3.3252
-1.9227 2.0345
ITEM: ATOMS id type xs ys zs
1 1 .512458 .991474 .516980
2 1 .989459 .583758 .510793
3 1 .759941 .010235 .499379
4 1 .161683 .054514 .497562
5 1 .007006 .648722 .480695
6 1 .485408 .463042 .991292
7 1 .494976 .466329 .013540
ITEM: TIMESTEP
250
ITEM: NUMBER OF ATOMS
7
ITEM: BOX BOUNDS ss ss ss
-2.9893 3.3608
-2.8331 3.3373
-1.9259 2.0341
ITEM: ATOMS id type xs ys zs
1 1 .512376 .991034 .514526
2 1 .987057 .583149 .503458
3 1 .756271 .010494 .497626
4 1 .163903 .052958 .498240
5 1 .007157 .648022 .482607
6 1 .484908 .459653 .990691
7 1 .493411 .466780 .008529
ITEM: TIMESTEP
300
ITEM: NUMBER OF ATOMS
7
ITEM: BOX BOUNDS ss ss ss
-2.9880 3.3563
-2.8446 3.3237
-1.9287 2.0366
ITEM: ATOMS id type xs ys zs
1 1 .515828 .991140 .513101
2 1 .988462 .586586 .513755
3 1 .759229 .015054 .498707
4 1 .164299 .054047 .498072
5 1 .008930 .649157 .476573
6 1 .486755 .464507 .988338
7 1 .495653 .467098 .014814
ITEM: TIMESTEP
350
ITEM: NUMBER OF ATOMS
7
ITEM: BOX BOUNDS ss ss ss
-2.9838 3.3534
-2.8350 3.3232
-1.9227 2.0403
ITEM: ATOMS id type xs ys zs
1 1 .515558 .990127 .506952
2 1 .990398 .586517 .511361
3 1 .759404 .012607 .497473
4 1 .162904 .053683 .497866
5 1 .009532 .650038 .474481
6 1 .487036 .463677 .986965
7 1 .495540 .465880 .010684
ITEM: TIMESTEP
400
ITEM: NUMBER OF ATOMS
7
ITEM: BOX BOUNDS ss ss ss
-2.9843 3.3548
-2.8398 3.3151
-1.9227 2.0384
ITEM: ATOMS id type xs ys zs
1 1 .516785 .991597 .506107
2 1 .989248 .588246 .512724
3 1 .758394 .013305 .497164
4 1 .160940 .052804 .501721
5 1 .010762 .650548 .477209
6 1 .487232 .465108 .989962
7 1 .495463 .465975 .008161
ITEM: TIMESTEP
1
ITEM: NUMBER OF ATOMS
7
ITEM: BOX BOUNDS ss ss ss
-2.9728 3.3328
-2.8242 3.3083
-1.9137 2.0503
ITEM: ATOMS id type xs ys zs
1 1 .512422 .995824 .511605
2 1 .996612 .579484 .507948
3 1 .758396 .006200 .495145
4 1 .159507 .052412 .496144
5 1 .005245 .650041 .476006
6 1 .487810 .463383 .982765
7 1 .497465 .468512 .009652
ITEM: TIMESTEP
50
ITEM: NUMBER OF ATOMS
7
ITEM: BOX BOUNDS ss ss ss
-2.9728 3.3475
-2.8242 3.3137
-1.9137 2.0503
ITEM: ATOMS id type xs ys zs
1 1 .513122 .993748 .510970
2 1 .993833 .581975 .504821
3 1 .757463 .008934 .495503
4 1 .160799 .053619 .495869
5 1 .004725 .650613 .479588
6 1 .485840 .464255 .984828
7 1 .496610 .468240 .013081
ITEM: TIMESTEP
100
ITEM: NUMBER OF ATOMS
7
ITEM: BOX BOUNDS ss ss ss
-2.9776 3.3525
-2.8290 3.3256
-1.9137 2.0503
ITEM: ATOMS id type xs ys zs
1 1 .512805 .991284 .512645
2 1 .993036 .579118 .509119
3 1 .757184 .008412 .498985
4 1 .160342 .053752 .493846
5 1 .005704 .649317 .477791
6 1 .487200 .462421 .983615
7 1 .496631 .465707 .010820
ITEM: TIMESTEP
150
ITEM: NUMBER OF ATOMS
7
ITEM: BOX BOUNDS ss ss ss
-2.9909 3.3630
-2.8342 3.3362
-1.9137 2.0343
ITEM: ATOMS id type xs ys zs
1 1 .513918 .990339 .513089
2 1 .990102 .582907 .513221
3 1 .755441 .008976 .494182
4 1 .161723 .055852 .501847
5 1 .009895 .649147 .478977
6 1 .486422 .462549 .990041
7 1 .495224 .468196 .008432
ITEM: TIMESTEP
200
ITEM: NUMBER OF ATOMS
7
ITEM: BOX BOUNDS ss ss ss
-2.9900 3.3638
-2.8315 3.3347
-1.9226 2.0280
ITEM: ATOMS id type xs ys zs
1 1 .511665 .989748 .514205
2 1 .987891 .582429 .513309
3 1 .753993 .007742 .496464
4 1 .159962 .054730 .497262
5 1 .006455 .646746 .482370
6 1 .486265 .459624 .992908
7 1 .491991 .465932 .009112
ITEM: TIMESTEP
250
ITEM: NUMBER OF ATOMS
7
ITEM: BOX BOUNDS ss ss ss
-2.9938 3.3659
-2.8376 3.3329
-1.9170 2.0356
ITEM: ATOMS id type xs ys zs
1 1 .512977 .987872 .513465
2 1 .986082 .581850 .510973
3 1 .756001 .010769 .493429
4 1 .160285 .054625 .497374
5 1 .006698 .646978 .479101
6 1 .486451 .461430 .990614
7 1 .495077 .467160 .006825
ITEM: TIMESTEP
300
ITEM: NUMBER OF ATOMS
7
ITEM: BOX BOUNDS ss ss ss
-3.0037 3.3718
-2.8409 3.3307
-1.9236 2.0337
ITEM: ATOMS id type xs ys zs
1 1 .515030 .991033 .516661
2 1 .986525 .587476 .515620
3 1 .754502 .012544 .491922
4 1 .160471 .054634 .501584
5 1 .012980 .647132 .480733
6 1 .486250 .459555 .994469
7 1 .496001 .467799 .009795
ITEM: TIMESTEP
350
ITEM: NUMBER OF ATOMS
7
ITEM: BOX BOUNDS ss ss ss
-2.9891 3.3632
-2.8383 3.3253
-1.9238 2.0445
ITEM: ATOMS id type xs ys zs
1 1 .512433 .988042 .513469
2 1 .987323 .585259 .512466
3 1 .755265 .013495 .494541
4 1 .160033 .056141 .498648
5 1 .009148 .650040 .480030
6 1 .487784 .459025 .992630
7 1 .494833 .467635 .008993
ITEM: TIMESTEP
400
ITEM: NUMBER OF ATOMS
7
ITEM: BOX BOUNDS ss ss ss
-2.9950 3.3512
-2.8324 3.3297
-1.9313 2.0485
ITEM: ATOMS id type xs ys zs
1 1 .514832 .987659 .512101
2 1 .989438 .586596 .513395
3 1 .756913 .011661 .497441
4 1 .161143 .055424 .499570
5 1 .010217 .648021 .479629
6 1 .488737 .457805 .989835
7 1 .496222 .466151 .008582
ITEM: TIMESTEP
1
ITEM: NUMBER OF ATOMS
7
ITEM: BOX BOUNDS ss ss ss
-2.9893 3.3432
-2.8247 3.3281
-1.9208 2.0389
ITEM: ATOMS id type xs ys zs
1 1 .512854 .992606 .513958
2 1 .994967 .577649 .510322
3 1 .757784 .006267 .497482
4 1 .161419 .052310 .498484
5 1 .007817 .647978 .478331
6 1 .488333 .461927 .985622
7 1 .497949 .467040 .011463
ITEM: TIMESTEP
50
ITEM: NUMBER OF ATOMS
7
ITEM: BOX BOUNDS ss ss ss
-2.9893 3.3438
-2.8247 3.3281
-1.9208 2.0389
ITEM: ATOMS id type xs ys zs
1 1 .513420 .991705 .512840
2 1 .993682 .578840 .510460
3 1 .758119 .006596 .497150
4 1 .161364 .052554 .498207
5 1 .007380 .648735 .478471
6 1 .488471 .460801 .986160
7 1 .496233 .465969 .011177
ITEM: TIMESTEP
100
ITEM: NUMBER OF ATOMS
7
ITEM: BOX BOUNDS ss ss ss
-2.9893 3.3538
-2.8279 3.3307
-1.9208 2.0389
ITEM: ATOMS id type xs ys zs
1 1 .512831 .990678 .515094
2 1 .991978 .580239 .512862
3 1 .756962 .007561 .495036
4 1 .161779 .052097 .497275
5 1 .008434 .648427 .478907
6 1 .488824 .461456 .987494
7 1 .497722 .467147 .010002
ITEM: TIMESTEP
150
ITEM: NUMBER OF ATOMS
7
ITEM: BOX BOUNDS ss ss ss
-2.9893 3.3659
-2.8390 3.3281
-1.9208 2.0389
ITEM: ATOMS id type xs ys zs
1 1 .512007 .988925 .512880
2 1 .992386 .580669 .509669
3 1 .755186 .007746 .495976
4 1 .159159 .053091 .495444
5 1 .005074 .650782 .482219
6 1 .486573 .461421 .987146
7 1 .495179 .466413 .013723
ITEM: TIMESTEP
200
ITEM: NUMBER OF ATOMS
7
ITEM: BOX BOUNDS ss ss ss
-2.9923 3.3590
-2.8374 3.3342
-1.9208 2.0389
ITEM: ATOMS id type xs ys zs
1 1 .514159 .991755 .510820
2 1 .989395 .581734 .504756
3 1 .754567 .006404 .490672
4 1 .161405 .055000 .494963
5 1 .009799 .648472 .477239
6 1 .487547 .461496 .986855
7 1 .494449 .466650 .009337
ITEM: TIMESTEP
250
ITEM: NUMBER OF ATOMS
7
ITEM: BOX BOUNDS ss ss ss
-2.9914 3.3660
-2.8472 3.3316
-1.9395 2.0389
ITEM: ATOMS id type xs ys zs
1 1 .515121 .991448 .513001
2 1 .988474 .582383 .505284
3 1 .754631 .008666 .492097
4 1 .159351 .057539 .498052
5 1 .009889 .651034 .482092
6 1 .485443 .463266 .988051
7 1 .495053 .466517 .015075
ITEM: TIMESTEP
300
ITEM: NUMBER OF ATOMS
7
ITEM: BOX BOUNDS ss ss ss
-2.9931 3.3687
-2.8471 3.3403
-1.9187 2.0389
ITEM: ATOMS id type xs ys zs
1 1 .515342 .989585 .505670
2 1 .986081 .581923 .500520
3 1 .754355 .009960 .487585
4 1 .159926 .058782 .494729
5 1 .008688 .651678 .478287
6 1 .485394 .464001 .988867
7 1 .494846 .464454 .007934
ITEM: TIMESTEP
350
ITEM: NUMBER OF ATOMS
7
ITEM: BOX BOUNDS ss ss ss
-2.9959 3.3594
-2.8440 3.3365
-1.9205 2.0389
ITEM: ATOMS id type xs ys zs
1 1 .515397 .990993 .506306
2 1 .986887 .583904 .505395
3 1 .755531 .008304 .491851
4 1 .161625 .057000 .495276
5 1 .012189 .650025 .478549
6 1 .487006 .462182 .986364
7 1 .494276 .463453 .008262
ITEM: TIMESTEP
400
ITEM: NUMBER OF ATOMS
7
ITEM: BOX BOUNDS ss ss ss
-2.9906 3.3567
-2.8408 3.3284
-1.9257 2.0371
ITEM: ATOMS id type xs ys zs
1 1 .513574 .989638 .505781
2 1 .986516 .587080 .504484
3 1 .757172 .008313 .498347
4 1 .162071 .055979 .495119
5 1 .011459 .652307 .476114
6 1 .487934 .462189 .986544
7 1 .493384 .464205 .009211
ITEM: TIMESTEP
1
ITEM: NUMBER OF ATOMS
7
ITEM: BOX BOUNDS ss ss ss
-2.9806 3.3486
-2.8376 3.3279
-1.9196 2.0213
ITEM: ATOMS id type xs ys zs
1 1 .511750 .992659 .516086
2 1 .994113 .578565 .512435
3 1 .756826 .008353 .499542
4 1 .160120 .054282 .500554
5 1 .006448 .648737 .480289
6 1 .487210 .463069 .990017
7 1 .496841 .468178 .011180
ITEM: TIMESTEP
50
ITEM: NUMBER OF ATOMS
7
ITEM: BOX BOUNDS ss ss ss
-2.9806 3.3486
-2.8376 3.3279
-1.9196 2.0213
ITEM: ATOMS id type xs ys zs
1 1 .512770 .992494 .513300
2 1 .993498 .579663 .512191
3 1 .757032 .008199 .499856
4 1 .159312 .055194 .498899
5 1 .007637 .649234 .482712
6 1 .488428 .462824 .990744
7 1 .495212 .467611 .013089
ITEM: TIMESTEP
100
ITEM: NUMBER OF ATOMS
7
ITEM: BOX BOUNDS ss ss ss
-2.9806 3.3524
-2.8376 3.3360
-1.9196 2.0214
ITEM: ATOMS id type xs ys zs
1 1 .514029 .990592 .514525
2 1 .992457 .579560 .514702
3 1 .757418 .009418 .496517
4 1 .159342 .055043 .498617
5 1 .005481 .648440 .479980
6 1 .486141 .459965 .987743
7 1 .494102 .467378 .013666
ITEM: TIMESTEP
150
ITEM: NUMBER OF ATOMS
7
ITEM: BOX BOUNDS ss ss ss
-2.9956 3.3657
-2.8376 3.3309
-1.9214 2.0264
ITEM: ATOMS id type xs ys zs
1 1 .512465 .990662 .513769
2 1 .990647 .580095 .511550
3 1 .754513 .009143 .497112
4 1 .159378 .054049 .500491
5 1 .008126 .651772 .482381
6 1 .486757 .461137 .987393
7 1 .494938 .466455 .015784
ITEM: TIMESTEP
200
ITEM: NUMBER OF ATOMS
7
ITEM: BOX BOUNDS ss ss ss
-2.9909 3.3649
-2.8377 3.3366
-1.9182 2.0306
ITEM: ATOMS id type xs ys zs
1 1 .513126 .989748 .515386
2 1 .988966 .580474 .510733
3 1 .754606 .009742 .494542
4 1 .160659 .052414 .499216
5 1 .007524 .653565 .483008
6 1 .486161 .459819 .986172
7 1 .495983 .465827 .014450
ITEM: TIMESTEP
250
ITEM: NUMBER OF ATOMS
7
ITEM: BOX BOUNDS ss ss ss
-3.0055 3.3729
-2.8399 3.3418
-1.9230 2.0294
ITEM: ATOMS id type xs ys zs
1 1 .512477 .990934 .513032
2 1 .987039 .578849 .513977
3 1 .755379 .007816 .500869
4 1 .160850 .056396 .500276
5 1 .009153 .650728 .478323
6 1 .486381 .462067 .990357
7 1 .496939 .464844 .014957
ITEM: TIMESTEP
300
ITEM: NUMBER OF ATOMS
7
ITEM: BOX BOUNDS ss ss ss
-3.0013 3.3641
-2.8472 3.3438
-1.9163 2.0249
ITEM: ATOMS id type xs ys zs
1 1 .517211 .984544 .513630
2 1 .992604 .579829 .515243
3 1 .755527 .011232 .499530
4 1 .163096 .053851 .503346
5 1 .010561 .647356 .478385
6 1 .488074 .461259 .990211
7 1 .496783 .464149 .012003
ITEM: TIMESTEP
350
ITEM: NUMBER OF ATOMS
7
ITEM: BOX BOUNDS ss ss ss
-3.0041 3.3690
-2.8501 3.3397
-1.9181 2.0286
ITEM: ATOMS id type xs ys zs
1 1 .515309 .985693 .513383
2 1 .989980 .579555 .509748
3 1 .756099 .010382 .497276
4 1 .161560 .054342 .502114
5 1 .010201 .647246 .478247
6 1 .486476 .461234 .988411
7 1 .494659 .464935 .010473
ITEM: TIMESTEP
400
ITEM: NUMBER OF ATOMS
7
ITEM: BOX BOUNDS ss ss ss
-2.9919 3.3636
-2.8478 3.3413
-1.9157 2.0344
ITEM: ATOMS id type xs ys zs
1 1 .515089 .984297 .509351
2 1 .990401 .578471 .509468
3 1 .756702 .010996 .493732
4 1 .159355 .054754 .501261
5 1 .008806 .647716 .477909
6 1 .485358 .459711 .986822
7 1 .492382 .462946 .008320
ITEM: TIMESTEP
1
ITEM: NUMBER OF ATOMS
7
ITEM: BOX BOUNDS ss ss ss
-2.9969 3.3569
-2.8425 3.3217
-1.9235 2.0344
ITEM: ATOMS id type xs ys zs
1 1 .512343 .993654 .514879
2 1 .992828 .579478 .511215
3 1 .756453 .009141 .498401
4 1 .162075 .055100 .499381
5 1 .009001 .649666 .479236
6 1 .487904 .463961 .986752
7 1 .497491 .469060 .012156
ITEM: TIMESTEP
50
ITEM: NUMBER OF ATOMS
7
ITEM: BOX BOUNDS ss ss ss
-2.9969 3.3569
-2.8425 3.3217
-1.9235 2.0344
ITEM: ATOMS id type xs ys zs
1 1 .513824 .993721 .516047
2 1 .991119 .582336 .511583
3 1 .756335 .009971 .497938
4 1 .161442 .053920 .500779
5 1 .010660 .649114 .481407
6 1 .487928 .464418 .986663
7 1 .497016 .467569 .012915
ITEM: TIMESTEP
100
ITEM: NUMBER OF ATOMS
7
ITEM: BOX BOUNDS ss ss ss
-2.9969 3.3569
-2.8425 3.3241
-1.9235 2.0344
ITEM: ATOMS id type xs ys zs
1 1 .513702 .992826 .514158
2 1 .991920 .580634 .511450
3 1 .757176 .009527 .499169
4 1 .162072 .055923 .498804
5 1 .009477 .651222 .482238
6 1 .487080 .463380 .986272
7 1 .496565 .468692 .014115
ITEM: TIMESTEP
150
ITEM: NUMBER OF ATOMS
7
ITEM: BOX BOUNDS ss ss ss
-2.9969 3.3657
-2.8425 3.3348
-1.9256 2.0344
ITEM: ATOMS id type xs ys zs
1 1 .512472 .991851 .517657
2 1 .990239 .582109 .510763
3 1 .756803 .008683 .499555
4 1 .164131 .054743 .496522
5 1 .009038 .648081 .485962
6 1 .487022 .461975 .984918
7 1 .495816 .466697 .014960
ITEM: TIMESTEP
200
ITEM: NUMBER OF ATOMS
7
ITEM: BOX BOUNDS ss ss ss
-2.9969 3.3650
-2.8425 3.3392
-1.9305 2.0344
ITEM: ATOMS id type xs ys zs
1 1 .512836 .990977 .517267
2 1 .991007 .581822 .511167
3 1 .757338 .009787 .501135
4 1 .162988 .055624 .494975
5 1 .009959 .648084 .485965
6 1 .486554 .461035 .985033
7 1 .495867 .467012 .016047
ITEM: TIMESTEP
250
ITEM: NUMBER OF ATOMS
7
ITEM: BOX BOUNDS ss ss ss
-2.9969 3.3682
-2.8452 3.3488
-1.9235 2.0383
ITEM: ATOMS id type xs ys zs
1 1 .514912 .987771 .510299
2 1 .990971 .575763 .511129
3 1 .757847 .005556 .499407
4 1 .162381 .056544 .494626
5 1 .007723 .651884 .477658
6 1 .488709 .458888 .983315
7 1 .497082 .464376 .012569
ITEM: TIMESTEP
300
ITEM: NUMBER OF ATOMS
7
ITEM: BOX BOUNDS ss ss ss
-3.0008 3.3737
-2.8493 3.3459
-1.9235 2.0344
ITEM: ATOMS id type xs ys zs
1 1 .514563 .987993 .509823
2 1 .989870 .576788 .510137
3 1 .756740 .006820 .499766
4 1 .163561 .056353 .493338
5 1 .008097 .652608 .478006
6 1 .486934 .459490 .984955
7 1 .496762 .465407 .012795
ITEM: TIMESTEP
350
ITEM: NUMBER OF ATOMS
7
ITEM: BOX BOUNDS ss ss ss
-3.0066 3.3710
-2.8567 3.3533
-1.9235 2.0352
ITEM: ATOMS id type xs ys zs
1 1 .514905 .986706 .513599
2 1 .990685 .576318 .512158
3 1 .758165 .009121 .499004
4 1 .163066 .057115 .499397
5 1 .011345 .651075 .483607
6 1 .488688 .461251 .986280
7 1 .496179 .463849 .014385
ITEM: TIMESTEP
400
ITEM: NUMBER OF ATOMS
7
ITEM: BOX BOUNDS ss ss ss
-3.0020 3.3650
-2.8521 3.3491
-1.9235 2.0344
ITEM: ATOMS id type xs ys zs
1 1 .516057 .986314 .511973
2 1 .990635 .575891 .513051
3 1 .758146 .010368 .499384
4 1 .164466 .058884 .496323
5 1 .011068 .649380 .481336
6 1 .488607 .461148 .988977
7 1 .497085 .463253 .012525
ITEM: TIMESTEP
450
ITEM: NUMBER OF ATOMS
7
ITEM: BOX BOUNDS ss ss ss
-2.9958 3.3668
-2.8659 3.3454
-1.9236 2.0519
ITEM: ATOMS id type xs ys zs
1 1 .517686 .990485 .511246
2 1 .990244 .578273 .509932
3 1 .758131 .010634 .496837
4 1 .163454 .058940 .492187
5 1 .010032 .652050 .483963
6 1 .486559 .463885 .981934
7 1 .496197 .466316 .012945
ITEM: TIMESTEP
1
ITEM: NUMBER OF ATOMS
7
ITEM: BOX BOUNDS ss ss ss
-2.9916 3.3634
-2.8565 3.3280
-1.9079 2.0289
ITEM: ATOMS id type xs ys zs
1 1 .511411 .992665 .513653
2 1 .991812 .579851 .509986
3 1 .755475 .011382 .497105
4 1 .161197 .057185 .498111
5 1 .008150 .649797 .477853
6 1 .486973 .464692 .988099
7 1 .496560 .469796 .008247
ITEM: TIMESTEP
50
ITEM: NUMBER OF ATOMS
7
ITEM: BOX BOUNDS ss ss ss
-2.9855 3.3634
-2.8565 3.3280
-1.9079 2.0289
ITEM: ATOMS id type xs ys zs
1 1 .513283 .992966 .510446
2 1 .991864 .580005 .510920
3 1 .756618 .011215 .495416
4 1 .162126 .056689 .499788
5 1 .007586 .650821 .479618
6 1 .485974 .464267 .989938
7 1 .493945 .468336 .008861
ITEM: TIMESTEP
100
ITEM: NUMBER OF ATOMS
7
ITEM: BOX BOUNDS ss ss ss
-2.9855 3.3634
-2.8565 3.3288
-1.9197 2.0289
ITEM: ATOMS id type xs ys zs
1 1 .511050 .991478 .514261
2 1 .990917 .580561 .511072
3 1 .756872 .013219 .499400
4 1 .161307 .058823 .504435
5 1 .006728 .649535 .479071
6 1 .486205 .464044 .990521
7 1 .495300 .466795 .008804
ITEM: TIMESTEP
150
ITEM: NUMBER OF ATOMS
7
ITEM: BOX BOUNDS ss ss ss
-2.9873 3.3649
-2.8565 3.3368
-1.9163 2.0294
ITEM: ATOMS id type xs ys zs
1 1 .517281 .991420 .513533
2 1 .992006 .580579 .507926
3 1 .755887 .010745 .493403
4 1 .160781 .054308 .496695
5 1 .010672 .648807 .477310
6 1 .486479 .464685 .986708
7 1 .493689 .467735 .010643
ITEM: TIMESTEP
200
ITEM: NUMBER OF ATOMS
7
ITEM: BOX BOUNDS ss ss ss
-2.9923 3.3703
-2.8565 3.3345
-1.9173 2.0289
ITEM: ATOMS id type xs ys zs
1 1 .512305 .991828 .513343
2 1 .987477 .579998 .506639
3 1 .752714 .011081 .502726
4 1 .160325 .055524 .501912
5 1 .010015 .648817 .481411
6 1 .487851 .463050 .989738
7 1 .495327 .466530 .007963
ITEM: TIMESTEP
250
ITEM: NUMBER OF ATOMS
7
ITEM: BOX BOUNDS ss ss ss
-2.9994 3.3710
-2.8565 3.3386
-1.9249 2.0373
ITEM: ATOMS id type xs ys zs
1 1 .512935 .991998 .512499
2 1 .986056 .579896 .503937
3 1 .753461 .011321 .500003
4 1 .159914 .056367 .504077
5 1 .011695 .650583 .481438
6 1 .484931 .462167 .986314
7 1 .496028 .464752 .010034
ITEM: TIMESTEP
300
ITEM: NUMBER OF ATOMS
7
ITEM: BOX BOUNDS ss ss ss
-3.0098 3.3722
-2.8565 3.3423
-1.9303 2.0351
ITEM: ATOMS id type xs ys zs
1 1 .514391 .992056 .513089
2 1 .988447 .579575 .505011
3 1 .754206 .010453 .498299
4 1 .163459 .055326 .501261
5 1 .014181 .650254 .481927
6 1 .487545 .462495 .986575
7 1 .495003 .465895 .012880
ITEM: TIMESTEP
350
ITEM: NUMBER OF ATOMS
7
ITEM: BOX BOUNDS ss ss ss
-3.0057 3.3643
-2.8526 3.3357
-1.9262 2.0295
ITEM: ATOMS id type xs ys zs
1 1 .522002 .990799 .511869
2 1 .993217 .580343 .508908
3 1 .756032 .009313 .493326
4 1 .165997 .052269 .500872
5 1 .011876 .647407 .480481
6 1 .488250 .461280 .987754
7 1 .498433 .466897 .013573
ITEM: TIMESTEP
400
ITEM: NUMBER OF ATOMS
7
ITEM: BOX BOUNDS ss ss ss
-3.0140 3.3738
-2.8605 3.3397
-1.9262 2.0289
ITEM: ATOMS id type xs ys zs
1 1 .523064 .988391 .512471
2 1 .991793 .581311 .511738
3 1 .755873 .009765 .491748
4 1 .165550 .054195 .500230
5 1 .014063 .645909 .478737
6 1 .486125 .461757 .987942
7 1 .497944 .466424 .013345
ITEM: TIMESTEP
450
ITEM: NUMBER OF ATOMS
7
ITEM: BOX BOUNDS ss ss ss
-3.0198 3.3675
-2.8519 3.3346
-1.9438 2.0296
ITEM: ATOMS id type xs ys zs
1 1 .523910 .990323 .512238
2 1 .991468 .582262 .513879
3 1 .755632 .008511 .496717
4 1 .166665 .053300 .501124
5 1 .015079 .647191 .481949
6 1 .487236 .461492 .985465
7 1 .497807 .466385 .018165
ITEM: TIMESTEP
500
ITEM: NUMBER OF ATOMS
7
ITEM: BOX BOUNDS ss ss ss
-3.0165 3.3695
-2.8577 3.3465
-1.9574 2.0361
ITEM: ATOMS id type xs ys zs
1 1 .523527 .987859 .517910
2 1 .990855 .580477 .512780
3 1 .756614 .010770 .497101
4 1 .165966 .053258 .503822
5 1 .014284 .648074 .485569
6 1 .484473 .461859 .984571
7 1 .498375 .465635 .021597
ITEM: TIMESTEP
550
ITEM: NUMBER OF ATOMS
7
ITEM: BOX BOUNDS ss ss ss
-3.0052 3.3671
-2.8593 3.3433
-1.9622 2.0387
ITEM: ATOMS id type xs ys zs
1 1 .523367 .988089 .514438
2 1 .993058 .581000 .513202
3 1 .758082 .010906 .495509
4 1 .164301 .054106 .503551
5 1 .012584 .646459 .482144
6 1 .485789 .459020 .985215
7 1 .497027 .466282 .022804
ITEM: TIMESTEP
600
ITEM: NUMBER OF ATOMS
7
ITEM: BOX BOUNDS ss ss ss
-3.0084 3.3772
-2.8559 3.3453
-1.9426 2.0389
ITEM: ATOMS id type xs ys zs
1 1 .523381 .986158 .516175
2 1 .987547 .577009 .511633
3 1 .755395 .008629 .494447
4 1 .163994 .053979 .500042
5 1 .011574 .645358 .482941
6 1 .484187 .459047 .985431
7 1 .496034 .468396 .016613
ITEM: TIMESTEP
650
ITEM: NUMBER OF ATOMS
7
ITEM: BOX BOUNDS ss ss ss
-3.0117 3.3649
-2.8578 3.3483
-1.9420 2.0441
ITEM: ATOMS id type xs ys zs
1 1 .520796 .984424 .522189
2 1 .988306 .576299 .512149
3 1 .755335 .009796 .494595
4 1 .166964 .053291 .495987
5 1 .013148 .646485 .483092
6 1 .485944 .457960 .988365
7 1 .496384 .466968 .017760
ITEM: TIMESTEP
1
ITEM: NUMBER OF ATOMS
7
ITEM: BOX BOUNDS ss ss ss
-3.0151 3.3690
-2.8426 3.3393
-1.9277 2.0309
ITEM: ATOMS id type xs ys zs
1 1 .512742 .990839 .515836
2 1 .990974 .577831 .512174
3 1 .755707 .009138 .499369
4 1 .164162 .054962 .500343
5 1 .011800 .647825 .480209
6 1 .488432 .462645 .987637
7 1 .497984 .467743 .013202
ITEM: TIMESTEP
50
ITEM: NUMBER OF ATOMS
7
ITEM: BOX BOUNDS ss ss ss
-3.0037 3.3690
-2.8426 3.3393
-1.9277 2.0309
ITEM: ATOMS id type xs ys zs
1 1 .511961 .990492 .516769
2 1 .989936 .578165 .514703
3 1 .756208 .010050 .500220
4 1 .162876 .055023 .500952
5 1 .010585 .648902 .482832
6 1 .486784 .462689 .988144
7 1 .496145 .468352 .011975
ITEM: TIMESTEP
100
ITEM: NUMBER OF ATOMS
7
ITEM: BOX BOUNDS ss ss ss
-3.0037 3.3690
-2.8426 3.3393
-1.9277 2.0309
ITEM: ATOMS id type xs ys zs
1 1 .512751 .988533 .514177
2 1 .992658 .579419 .509775
3 1 .755172 .009137 .501109
4 1 .160919 .054626 .497186
5 1 .011364 .649911 .484501
6 1 .487770 .460078 .986176
7 1 .495747 .467692 .013160
ITEM: TIMESTEP
150
ITEM: NUMBER OF ATOMS
7
ITEM: BOX BOUNDS ss ss ss
-3.0037 3.3690
-2.8426 3.3393
-1.9277 2.0309
ITEM: ATOMS id type xs ys zs
1 1 .513069 .990089 .514265
2 1 .990461 .580395 .507725
3 1 .755457 .010015 .497550
4 1 .157916 .054649 .496747
5 1 .010899 .649882 .487020
6 1 .488438 .460379 .986492
7 1 .498052 .467698 .010506
ITEM: TIMESTEP
200
ITEM: NUMBER OF ATOMS
7
ITEM: BOX BOUNDS ss ss ss
-2.9913 3.3690
-2.8426 3.3428
-1.9212 2.0309
ITEM: ATOMS id type xs ys zs
1 1 .512497 .988643 .509361
2 1 .990145 .577114 .511044
3 1 .754914 .008907 .497564
4 1 .161906 .054875 .497746
5 1 .008356 .648433 .477558
6 1 .487860 .459929 .985835
7 1 .493822 .464676 .011426
ITEM: TIMESTEP
250
ITEM: NUMBER OF ATOMS
7
ITEM: BOX BOUNDS ss ss ss
-3.0064 3.3771
-2.8446 3.3393
-1.9205 2.0309
ITEM: ATOMS id type xs ys zs
1 1 .510932 .987104 .513529
2 1 .987386 .578264 .514663
3 1 .758777 .009078 .498027
4 1 .163788 .055625 .498039
5 1 .009620 .644932 .474505
6 1 .487112 .459833 .987893
7 1 .494582 .463644 .009286
ITEM: TIMESTEP
300
ITEM: NUMBER OF ATOMS
7
ITEM: BOX BOUNDS ss ss ss
-2.9964 3.3683
-2.8426 3.3417
-1.9173 2.0309
ITEM: ATOMS id type xs ys zs
1 1 .505921 .985941 .507370
2 1 .988093 .579435 .512404
3 1 .756812 .008868 .494745
4 1 .163744 .054756 .503505
5 1 .006594 .644953 .475730
6 1 .486144 .460893 .989208
7 1 .492736 .462880 .006562
ITEM: TIMESTEP
350
ITEM: NUMBER OF ATOMS
7
ITEM: BOX BOUNDS ss ss ss
-3.0046 3.3764
-2.8528 3.3419
-1.9182 2.0309
ITEM: ATOMS id type xs ys zs
1 1 .508190 .985895 .507787
2 1 .987372 .579471 .511752
3 1 .757083 .007074 .496142
4 1 .163408 .055075 .504483
5 1 .008507 .646825 .476831
6 1 .486573 .462923 .991555
7 1 .493300 .463676 .009008
ITEM: TIMESTEP
400
ITEM: NUMBER OF ATOMS
7
ITEM: BOX BOUNDS ss ss ss
-3.0031 3.3719
-2.8585 3.3376
-1.9305 2.0309
ITEM: ATOMS id type xs ys zs
1 1 .506262 .986126 .505828
2 1 .985808 .581658 .514128
3 1 .759042 .010989 .494857
4 1 .164997 .056599 .505872
5 1 .006189 .647004 .478390
6 1 .485418 .463111 .989944
7 1 .491684 .464195 .012793
ITEM: TIMESTEP
450
ITEM: NUMBER OF ATOMS
7
ITEM: BOX BOUNDS ss ss ss
-3.0135 3.3744
-2.8571 3.3364
-1.9315 2.0331
ITEM: ATOMS id type xs ys zs
1 1 .508216 .987922 .506115
2 1 .987750 .584130 .511682
3 1 .759501 .011964 .492495
4 1 .165715 .056626 .503690
5 1 .009431 .648185 .478852
6 1 .488277 .462405 .990402
7 1 .493075 .464039 .010043
ITEM: TIMESTEP
500
ITEM: NUMBER OF ATOMS
7
ITEM: BOX BOUNDS ss ss ss
-3.0153 3.3738
-2.8487 3.3330
-1.9275 2.0352
ITEM: ATOMS id type xs ys zs
1 1 .508477 .987384 .504834