ITEM: TIMESTEP
1
ITEM: NUMBER OF ATOMS
7
ITEM: BOX BOUNDS ss ss ss
-2.9437 3.3160
-2.7901 3.2873
-1.8789 1.9854
ITEM: ATOMS id type xs ys zs
1 1 .511506 .999561 .516296
2 1 .999321 .578975 .512048
3 1 .759240 .000421 .498834
4 1 .155990 .047151 .500080
5 1 .000667 .650340 .479028
6 1 .486701 .462043 .999249
7 1 .496849 .466920 .000938
ITEM: TIMESTEP
50
ITEM: NUMBER OF ATOMS
7
ITEM: BOX BOUNDS ss ss ss
-2.9676 3.3393
-2.8129 3.3119
-1.9021 2.0101
ITEM: ATOMS id type xs ys zs
1 1 .512313 .996736 .517990
2 1 .995143 .577325 .513048
3 1 .758326 .005874 .499118
4 1 .158936 .050354 .499427
5 1 .003504 .650067 .476532
6 1 .487157 .461091 .993185
7 1 .497177 .466226 .006021
ITEM: TIMESTEP
100
ITEM: NUMBER OF ATOMS
7
ITEM: BOX BOUNDS ss ss ss
-2.9763 3.3502
-2.8257 3.3235
-1.9152 2.0132
ITEM: ATOMS id type xs ys zs
1 1 .513224 .994597 .517502
2 1 .994186 .576174 .514106
3 1 .756305 .007700 .502766
4 1 .159133 .053352 .499024
5 1 .005217 .647171 .476545
6 1 .487118 .461771 .991628
7 1 .494516 .467259 .009496
ITEM: TIMESTEP
150
ITEM: NUMBER OF ATOMS
7
ITEM: BOX BOUNDS ss ss ss
-2.9810 3.3521
-2.8306 3.3307
-1.9167 2.0214
ITEM: ATOMS id type xs ys zs
1 1 .510468 .989246 .508763
2 1 .993117 .578382 .515693
3 1 .756506 .005726 .496922
4 1 .160723 .052801 .500499
5 1 .006187 .647617 .475480
6 1 .485135 .461251 .990178
7 1 .497512 .464872 .007613
ITEM: TIMESTEP
200
ITEM: NUMBER OF ATOMS
7
ITEM: BOX BOUNDS ss ss ss
-2.9921 3.3517
-2.8363 3.3248
-1.9252 2.0258
ITEM: ATOMS id type xs ys zs
1 1 .510589 .989559 .508483
2 1 .993775 .578477 .518364
3 1 .757282 .008167 .500014
4 1 .162332 .055695 .503515
5 1 .007218 .647016 .474607
6 1 .486417 .462973 .988585
7 1 .500170 .466331 .012518
ITEM: TIMESTEP
250
ITEM: NUMBER OF ATOMS
7
ITEM: BOX BOUNDS ss ss ss
-2.9830 3.3557
-2.8347 3.3282
-1.9365 2.0366
ITEM: ATOMS id type xs ys zs
1 1 .509684 .989089 .506425
2 1 .995176 .578074 .516758
3 1 .754237 .005883 .498722
4 1 .159675 .055346 .506238
5 1 .004626 .646905 .473586
6 1 .487881 .462837 .984457
7 1 .499545 .465782 .016457
ITEM: TIMESTEP
300
ITEM: NUMBER OF ATOMS
7
ITEM: BOX BOUNDS ss ss ss
-2.9878 3.3504
-2.8319 3.3193
-1.9314 2.0401
ITEM: ATOMS id type xs ys zs
1 1 .509824 .992653 .505494
2 1 .994740 .578771 .515517
3 1 .755990 .004877 .496483
4 1 .159752 .055862 .508983
5 1 .006982 .648497 .473164
6 1 .488401 .462874 .982535
7 1 .498646 .466120 .012325
ITEM: TIMESTEP
350
ITEM: NUMBER OF ATOMS
7
ITEM: BOX BOUNDS ss ss ss
-2.9838 3.3396
-2.8281 3.3112
-1.9364 2.0267
ITEM: ATOMS id type xs ys zs
1 1 .510540 .992710 .513555
2 1 .992703 .583161 .522101
3 1 .758557 .007797 .496931
4 1 .160992 .054901 .501222
5 1 .010126 .651181 .484957
6 1 .487758 .463495 .990555
7 1 .495142 .464869 .010795
ITEM: TIMESTEP
400
ITEM: NUMBER OF ATOMS
7
ITEM: BOX BOUNDS ss ss ss
-2.9852 3.3302
-2.8247 3.3129
-1.9359 2.0274
ITEM: ATOMS id type xs ys zs
1 1 .512462 .991695 .514532
2 1 .993873 .581755 .520269
3 1 .759691 .008218 .499699
4 1 .161539 .054555 .501476
5 1 .009737 .651210 .485407
6 1 .488358 .461571 .987965
7 1 .495649 .464355 .010665
ITEM: TIMESTEP
1
ITEM: NUMBER OF ATOMS
7
ITEM: BOX BOUNDS ss ss ss
-2.9794 3.3191
-2.8169 3.2948
-1.9342 2.0232
ITEM: ATOMS id type xs ys zs
1 1 .514083 .998032 .518381
2 1 .998695 .580248 .514085
3 1 .760343 .004804 .501189
4 1 .160612 .051497 .502150
5 1 .006410 .650677 .481767
6 1 .489432 .463807 .989464
7 1 .499190 .468972 .014665
ITEM: TIMESTEP
50
ITEM: NUMBER OF ATOMS
7
ITEM: BOX BOUNDS ss ss ss
-2.9779 3.3420
-2.8169 3.3114
-1.9342 2.0232
ITEM: ATOMS id type xs ys zs
1 1 .511214 .996636 .520067
2 1 .994609 .579097 .515782
3 1 .756971 .003511 .500315
4 1 .160830 .051789 .503566
5 1 .006787 .648113 .481798
6 1 .488811 .462079 .989103
7 1 .496712 .466390 .014428
ITEM: TIMESTEP
100
ITEM: NUMBER OF ATOMS
7
ITEM: BOX BOUNDS ss ss ss
-2.9795 3.3500
-2.8246 3.3229
-1.9342 2.0232
ITEM: ATOMS id type xs ys zs
1 1 .511865 .993411 .519213
2 1 .993162 .578907 .516129
3 1 .754676 .003739 .501382
4 1 .161888 .052998 .504576
5 1 .007565 .646540 .484299
6 1 .488360 .460695 .986786
7 1 .495816 .467412 .013668
ITEM: TIMESTEP
150
ITEM: NUMBER OF ATOMS
7
ITEM: BOX BOUNDS ss ss ss
-2.9916 3.3651
-2.8287 3.3243
-1.9342 2.0304
ITEM: ATOMS id type xs ys zs
1 1 .511604 .993728 .521696
2 1 .988344 .579500 .516657
3 1 .751983 .006722 .501442
4 1 .164884 .052358 .505335
5 1 .008478 .646857 .483252
6 1 .489498 .461498 .982163
7 1 .495026 .469486 .014382
ITEM: TIMESTEP
200
ITEM: NUMBER OF ATOMS
7
ITEM: BOX BOUNDS ss ss ss
-2.9895 3.3578
-2.8315 3.3299
-1.9342 2.0450
ITEM: ATOMS id type xs ys zs
1 1 .510205 .992002 .510900
2 1 .990727 .582001 .514603
3 1 .758197 .006081 .494090
4 1 .161182 .056160 .496164
5 1 .005310 .651442 .472868
6 1 .489193 .462997 .979295
7 1 .497554 .468324 .015394
ITEM: TIMESTEP
250
ITEM: NUMBER OF ATOMS
7
ITEM: BOX BOUNDS ss ss ss
-2.9938 3.3596
-2.8304 3.3332
-1.9331 2.0290
ITEM: ATOMS id type xs ys zs
1 1 .510127 .991941 .511348
2 1 .990186 .580201 .514797
3 1 .757870 .006070 .497457
4 1 .161198 .055719 .498083
5 1 .005437 .650418 .477645
6 1 .490144 .463178 .981480
7 1 .498231 .468560 .016200
ITEM: TIMESTEP
300
ITEM: NUMBER OF ATOMS
7
ITEM: BOX BOUNDS ss ss ss
-2.9975 3.3741
-2.8360 3.3233
-1.9268 2.0354
ITEM: ATOMS id type xs ys zs
1 1 .507965 .992969 .517349
2 1 .986281 .582197 .509267
3 1 .751859 .008290 .500275
4 1 .158444 .056983 .503840
5 1 .006789 .651295 .482520
6 1 .486673 .461645 .985209
7 1 .492543 .466790 .009522
ITEM: TIMESTEP
350
ITEM: NUMBER OF ATOMS
7
ITEM: BOX BOUNDS ss ss ss
-2.9989 3.3639
-2.8422 3.3272
-1.9275 2.0309
ITEM: ATOMS id type xs ys zs
1 1 .508630 .992977 .519023
2 1 .989425 .581025 .509104
3 1 .752178 .007604 .499065
4 1 .158625 .057878 .507865
5 1 .007696 .651872 .484552
6 1 .487996 .462573 .986940
7 1 .494040 .464759 .008400
ITEM: TIMESTEP
400
ITEM: NUMBER OF ATOMS
7
ITEM: BOX BOUNDS ss ss ss
-2.9930 3.3601
-2.8426 3.3151
-1.9301 2.0353
ITEM: ATOMS id type xs ys zs
1 1 .513413 .986598 .514148
2 1 .988498 .578776 .510252
3 1 .754666 .008015 .501491
4 1 .160721 .053953 .498463
5 1 .010678 .646657 .470292
6 1 .486277 .459513 .990193
7 1 .494608 .461763 .008931
ITEM: TIMESTEP
1
ITEM: NUMBER OF ATOMS
7
ITEM: BOX BOUNDS ss ss ss
-2.9760 3.3363
-2.8328 3.3098
-1.9227 2.0334
ITEM: ATOMS id type xs ys zs
1 1 .512092 .995635 .515254
2 1 .996408 .579806 .510999
3 1 .758027 .007428 .497992
4 1 .159640 .053669 .499794
5 1 .005622 .650444 .479190
6 1 .487775 .464021 .986396
7 1 .497628 .469166 .012431
ITEM: TIMESTEP
50
ITEM: NUMBER OF ATOMS
7
ITEM: BOX BOUNDS ss ss ss
-2.9760 3.3432
-2.8328 3.3135
-1.9227 2.0334
ITEM: ATOMS id type xs ys zs
1 1 .509682 .996208 .515097
2 1 .997287 .579671 .514076
3 1 .756031 .009165 .498032
4 1 .160778 .052884 .497437
5 1 .005815 .650405 .478228
6 1 .485788 .464202 .984002
7 1 .498199 .469378 .014554
ITEM: TIMESTEP
100
ITEM: NUMBER OF ATOMS
7
ITEM: BOX BOUNDS ss ss ss
-2.9776 3.3561
-2.8328 3.3230
-1.9227 2.0334
ITEM: ATOMS id type xs ys zs
1 1 .510200 .995755 .512618
2 1 .990556 .575598 .510481
3 1 .755781 .006206 .500367
4 1 .159528 .052515 .506241
5 1 .007095 .647011 .481404
6 1 .487274 .462757 .986540
7 1 .498012 .466164 .009868
ITEM: TIMESTEP
150
ITEM: NUMBER OF ATOMS
7
ITEM: BOX BOUNDS ss ss ss
-2.9840 3.3570
-2.8348 3.3235
-1.9227 2.0334
ITEM: ATOMS id type xs ys zs
1 1 .509201 .992343 .513800
2 1 .988225 .575463 .509177
3 1 .756073 .001521 .500858
4 1 .160010 .052915 .497079
5 1 .005397 .646868 .481357
6 1 .488269 .463735 .989130
7 1 .498585 .468564 .012608
ITEM: TIMESTEP
200
ITEM: NUMBER OF ATOMS
7
ITEM: BOX BOUNDS ss ss ss
-2.9872 3.3596
-2.8421 3.3252
-1.9227 2.0345
ITEM: ATOMS id type xs ys zs
1 1 .511252 .992135 .510115
2 1 .990432 .577049 .511972
3 1 .753663 .005197 .496174
4 1 .160662 .055597 .503193
5 1 .006708 .647830 .479203
6 1 .489017 .463544 .985779
7 1 .493668 .467081 .013727
ITEM: TIMESTEP
250
ITEM: NUMBER OF ATOMS
7
ITEM: BOX BOUNDS ss ss ss
-2.9893 3.3608
-2.8331 3.3373
-1.9259 2.0341
ITEM: ATOMS id type xs ys zs
1 1 .513293 .989198 .515442
2 1 .992265 .576806 .508749
3 1 .761677 .004499 .490590
4 1 .162133 .054709 .501520
5 1 .006758 .647337 .477454
6 1 .488050 .458881 .988489
7 1 .497763 .464673 .011222
ITEM: TIMESTEP
300
ITEM: NUMBER OF ATOMS
7
ITEM: BOX BOUNDS ss ss ss
-2.9880 3.3563
-2.8446 3.3237
-1.9287 2.0366
ITEM: ATOMS id type xs ys zs
1 1 .518019 .991958 .519815
2 1 .994870 .579180 .505668
3 1 .760589 .006585 .489829
4 1 .163435 .055470 .500501
5 1 .007004 .647990 .476785
6 1 .493982 .462046 .984696
7 1 .496670 .469308 .014623
ITEM: TIMESTEP
350
ITEM: NUMBER OF ATOMS
7
ITEM: BOX BOUNDS ss ss ss
-2.9838 3.3534
-2.8350 3.3232
-1.9227 2.0403
ITEM: ATOMS id type xs ys zs
1 1 .514323 .991005 .514654
2 1 .993115 .579625 .514680
3 1 .760360 .010058 .495915
4 1 .162247 .051651 .494966
5 1 .008682 .647027 .477542
6 1 .488443 .461811 .988690
7 1 .499662 .468512 .010602
ITEM: TIMESTEP
400
ITEM: NUMBER OF ATOMS
7
ITEM: BOX BOUNDS ss ss ss
-2.9843 3.3548
-2.8398 3.3151
-1.9227 2.0384
ITEM: ATOMS id type xs ys zs
1 1 .515022 .991641 .518999
2 1 .990653 .585488 .512190
3 1 .758327 .012189 .497770
4 1 .164444 .052125 .499837
5 1 .004838 .650810 .481916
6 1 .486264 .464958 .987329
7 1 .495959 .468706 .009659
ITEM: TIMESTEP
1
ITEM: NUMBER OF ATOMS
7
ITEM: BOX BOUNDS ss ss ss
-2.9728 3.3328
-2.8242 3.3083
-1.9137 2.0503
ITEM: ATOMS id type xs ys zs
1 1 .512274 .995852 .511769
2 1 .996970 .579570 .507920
3 1 .758717 .006032 .495459
4 1 .159261 .052430 .496268
5 1 .005292 .649644 .476005
6 1 .487973 .463183 .983137
7 1 .497325 .468567 .009784
ITEM: TIMESTEP
50
ITEM: NUMBER OF ATOMS
7
ITEM: BOX BOUNDS ss ss ss
-2.9728 3.3475
-2.8242 3.3137
-1.9137 2.0503
ITEM: ATOMS id type xs ys zs
1 1 .512000 .997044 .510652
2 1 .995884 .578058 .507937
3 1 .758938 .006796 .496265
4 1 .159940 .052797 .497049
5 1 .006231 .649005 .473138
6 1 .487907 .461409 .984427
7 1 .493887 .468183 .010557
ITEM: TIMESTEP
100
ITEM: NUMBER OF ATOMS
7
ITEM: BOX BOUNDS ss ss ss
-2.9776 3.3525
-2.8290 3.3256
-1.9137 2.0503
ITEM: ATOMS id type xs ys zs
1 1 .508555 .992333 .509310
2 1 .995830 .578453 .507028
3 1 .754086 .007072 .493989
4 1 .159357 .052920 .503939
5 1 .006989 .647949 .476472
6 1 .489086 .463967 .979572
7 1 .498060 .470180 .007272
ITEM: TIMESTEP
150
ITEM: NUMBER OF ATOMS
7
ITEM: BOX BOUNDS ss ss ss
-2.9909 3.3630
-2.8342 3.3362
-1.9137 2.0343
ITEM: ATOMS id type xs ys zs
1 1 .511247 .990551 .517644
2 1 .992436 .580557 .508483
3 1 .757106 .006383 .492716
4 1 .161234 .053955 .498406
5 1 .006035 .648405 .481062
6 1 .487473 .461302 .984200
7 1 .497673 .468658 .009306
ITEM: TIMESTEP
200
ITEM: NUMBER OF ATOMS
7
ITEM: BOX BOUNDS ss ss ss
-2.9900 3.3638
-2.8315 3.3347
-1.9226 2.0280
ITEM: ATOMS id type xs ys zs
1 1 .513667 .991077 .515152
2 1 .992104 .581365 .512911
3 1 .755630 .007501 .494642
4 1 .161937 .057362 .503207
5 1 .008208 .649211 .483172
6 1 .487430 .463207 .990573
7 1 .497451 .469665 .012694
ITEM: TIMESTEP
250
ITEM: NUMBER OF ATOMS
7
ITEM: BOX BOUNDS ss ss ss
-2.9938 3.3659
-2.8376 3.3329
-1.9170 2.0356
ITEM: ATOMS id type xs ys zs
1 1 .515773 .994018 .510889
2 1 .992900 .580958 .514872
3 1 .756802 .009354 .495105
4 1 .161842 .055824 .499433
5 1 .007105 .646964 .486429
6 1 .488131 .463447 .982805
7 1 .496778 .468937 .011775
ITEM: TIMESTEP
300
ITEM: NUMBER OF ATOMS
7
ITEM: BOX BOUNDS ss ss ss
-3.0037 3.3718
-2.8409 3.3307
-1.9236 2.0337
ITEM: ATOMS id type xs ys zs
1 1 .512034 .989793 .515703
2 1 .986544 .583236 .512185
3 1 .753609 .007853 .493729
4 1 .162001 .056973 .498531
5 1 .009298 .648925 .482210
6 1 .486912 .464318 .987081
7 1 .495356 .469094 .009677
ITEM: TIMESTEP
350
ITEM: NUMBER OF ATOMS
7
ITEM: BOX BOUNDS ss ss ss
-2.9891 3.3632
-2.8383 3.3253
-1.9238 2.0445
ITEM: ATOMS id type xs ys zs
1 1 .510506 .991619 .513330
2 1 .987642 .583280 .513089
3 1 .753004 .007897 .491048
4 1 .160939 .056453 .499314
5 1 .006884 .648368 .481984
6 1 .487421 .466114 .985591
7 1 .495514 .470487 .012201
ITEM: TIMESTEP
400
ITEM: NUMBER OF ATOMS
7
ITEM: BOX BOUNDS ss ss ss
-2.9950 3.3512
-2.8324 3.3297
-1.9313 2.0485
ITEM: ATOMS id type xs ys zs
1 1 .515959 .995715 .519609
2 1 .993794 .583501 .508345
3 1 .757589 .013382 .493905
4 1 .158991 .058591 .503732
5 1 .009578 .651447 .479305
6 1 .486584 .461878 .982108
7 1 .496726 .470725 .011021
ITEM: TIMESTEP
1
ITEM: NUMBER OF ATOMS
7
ITEM: BOX BOUNDS ss ss ss
-2.9893 3.3432
-2.8247 3.3281
-1.9208 2.0389
ITEM: ATOMS id type xs ys zs
1 1 .513000 .992554 .513148
2 1 .995117 .577889 .510041
3 1 .757902 .006248 .497602
4 1 .161381 .052275 .498448
5 1 .007519 .647924 .478088
6 1 .488485 .461758 .985679
7 1 .497984 .467276 .011689
ITEM: TIMESTEP
50
ITEM: NUMBER OF ATOMS
7
ITEM: BOX BOUNDS ss ss ss
-2.9893 3.3438
-2.8247 3.3281
-1.9208 2.0389
ITEM: ATOMS id type xs ys zs
1 1 .513181 .993826 .513738
2 1 .996047 .578441 .506393
3 1 .757543 .004696 .495665
4 1 .162383 .051512 .498583
5 1 .007559 .647286 .479616
6 1 .485881 .463440 .984544
7 1 .497148 .465388 .011998
ITEM: TIMESTEP
100
ITEM: NUMBER OF ATOMS
7
ITEM: BOX BOUNDS ss ss ss
-2.9893 3.3538
-2.8279 3.3307
-1.9208 2.0389
ITEM: ATOMS id type xs ys zs
1 1 .509906 .993785 .519225
2 1 .991848 .576668 .508350
3 1 .757698 .007152 .495705
4 1 .160717 .054095 .501709
5 1 .005580 .649078 .480569
6 1 .487616 .463734 .985802
7 1 .495549 .466620 .016513
ITEM: TIMESTEP
150
ITEM: NUMBER OF ATOMS
7
ITEM: BOX BOUNDS ss ss ss
-2.9893 3.3659
-2.8390 3.3281
-1.9208 2.0389
ITEM: ATOMS id type xs ys zs
1 1 .507124 .992216 .518019
2 1 .992461 .578067 .509316
3 1 .757994 .009972 .500243
4 1 .161578 .057237 .501544
5 1 .007267 .648046 .484070
6 1 .485937 .463027 .987291
7 1 .494492 .470307 .014806
ITEM: TIMESTEP
200
ITEM: NUMBER OF ATOMS
7
ITEM: BOX BOUNDS ss ss ss
-2.9923 3.3590
-2.8374 3.3342
-1.9208 2.0389
ITEM: ATOMS id type xs ys zs
1 1 .513461 .991557 .518472
2 1 .992219 .575992 .513818
3 1 .755743 .007241 .498924
4 1 .158433 .056542 .495310
5 1 .004847 .649105 .479146
6 1 .487179 .464116 .984642
7 1 .498042 .468427 .009247
ITEM: TIMESTEP
250
ITEM: NUMBER OF ATOMS
7
ITEM: BOX BOUNDS ss ss ss
-2.9914 3.3660
-2.8472 3.3316
-1.9395 2.0389
ITEM: ATOMS id type xs ys zs
1 1 .507954 .989786 .513678
2 1 .992544 .576852 .510945
3 1 .754454 .012150 .495067
4 1 .160369 .055934 .504752
5 1 .009768 .645182 .479612
6 1 .488503 .463359 .987309
7 1 .495738 .467807 .015645
ITEM: TIMESTEP
300
ITEM: NUMBER OF ATOMS
7
ITEM: BOX BOUNDS ss ss ss
-2.9931 3.3687
-2.8471 3.3403
-1.9187 2.0389
ITEM: ATOMS id type xs ys zs
1 1 .505042 .991170 .513649
2 1 .988225 .582013 .508716
3 1 .752680 .010153 .490958
4 1 .159006 .054377 .494727
5 1 .006380 .652968 .477794
6 1 .485469 .462472 .986159
7 1 .494986 .467436 .013896
ITEM: TIMESTEP
350
ITEM: NUMBER OF ATOMS
7
ITEM: BOX BOUNDS ss ss ss
-2.9959 3.3594
-2.8440 3.3365
-1.9205 2.0389
ITEM: ATOMS id type xs ys zs
1 1 .513115 .991759 .509719
2 1 .987452 .580388 .504504
3 1 .754908 .010061 .487633
4 1 .157920 .058200 .495740
5 1 .009771 .648494 .473911
6 1 .489750 .465482 .988965
7 1 .491144 .465772 .011547
ITEM: TIMESTEP
400
ITEM: NUMBER OF ATOMS
7
ITEM: BOX BOUNDS ss ss ss
-2.9906 3.3567
-2.8408 3.3284
-1.9257 2.0371
ITEM: ATOMS id type xs ys zs
1 1 .514590 .990835 .514273
2 1 .990784 .586099 .508714
3 1 .754917 .007988 .497847
4 1 .161856 .054438 .496198
5 1 .009182 .647633 .474765
6 1 .487806 .464930 .986484
7 1 .496647 .467626 .008060
ITEM: TIMESTEP
1
ITEM: NUMBER OF ATOMS
7
ITEM: BOX BOUNDS ss ss ss
-2.9806 3.3486
-2.8376 3.3279
-1.9196 2.0213
ITEM: ATOMS id type xs ys zs
1 1 .511790 .992698 .516121
2 1 .994037 .578377 .512326
3 1 .756949 .008228 .499577
4 1 .160193 .053987 .500563
5 1 .006397 .648788 .480181
6 1 .487153 .463333 .990221
7 1 .496838 .468179 .011204
ITEM: TIMESTEP
50
ITEM: NUMBER OF ATOMS
7
ITEM: BOX BOUNDS ss ss ss
-2.9806 3.3486
-2.8376 3.3279
-1.9196 2.0213
ITEM: ATOMS id type xs ys zs
1 1 .512501 .991137 .516816
2 1 .994033 .576914 .510444
3 1 .755927 .006712 .498561
4 1 .160292 .051785 .502041
5 1 .006387 .649705 .478403
6 1 .488319 .462881 .988123
7 1 .496340 .468075 .011743
ITEM: TIMESTEP
100
ITEM: NUMBER OF ATOMS
7
ITEM: BOX BOUNDS ss ss ss
-2.9806 3.3524
-2.8376 3.3360
-1.9196 2.0214
ITEM: ATOMS id type xs ys zs
1 1 .509299 .991825 .515197
2 1 .994837 .576571 .509291
3 1 .754962 .009791 .500160
4 1 .164492 .057439 .502158
5 1 .005080 .648206 .474708
6 1 .486424 .462295 .987009
7 1 .497156 .468422 .009558
ITEM: TIMESTEP
150
ITEM: NUMBER OF ATOMS
7
ITEM: BOX BOUNDS ss ss ss
-2.9956 3.3657
-2.8376 3.3309
-1.9214 2.0264
ITEM: ATOMS id type xs ys zs
1 1 .511278 .990687 .514989
2 1 .996796 .576526 .513369
3 1 .753181 .005942 .501385
4 1 .160590 .055799 .509453
5 1 .005873 .649909 .476905
6 1 .488929 .464304 .989863
7 1 .496695 .469689 .011887
ITEM: TIMESTEP
200
ITEM: NUMBER OF ATOMS
7
ITEM: BOX BOUNDS ss ss ss
-2.9909 3.3649
-2.8377 3.3366
-1.9182 2.0306
ITEM: ATOMS id type xs ys zs
1 1 .512420 .994758 .515268
2 1 .990764 .576742 .516296
3 1 .754826 .008354 .497540
4 1 .161255 .058643 .499876
5 1 .002382 .649429 .477245
6 1 .485511 .461367 .988560
7 1 .497889 .468273 .014778
ITEM: TIMESTEP
250
ITEM: NUMBER OF ATOMS
7
ITEM: BOX BOUNDS ss ss ss
-3.0055 3.3729
-2.8399 3.3418
-1.9230 2.0294
ITEM: ATOMS id type xs ys zs
1 1 .513159 .989800 .514716
2 1 .993071 .577984 .510264
3 1 .753723 .010561 .490978
4 1 .158964 .057916 .501858
5 1 .007224 .651793 .483008
6 1 .488641 .462542 .988645
7 1 .497626 .467893 .017867
ITEM: TIMESTEP
300
ITEM: NUMBER OF ATOMS
7
ITEM: BOX BOUNDS ss ss ss
-3.0013 3.3641
-2.8472 3.3438
-1.9163 2.0249
ITEM: ATOMS id type xs ys zs
1 1 .511702 .993811 .510896
2 1 .990569 .577924 .511983
3 1 .754912 .006374 .500049
4 1 .160872 .059895 .500217
5 1 .011164 .651789 .480532
6 1 .487295 .462343 .990466
7 1 .498231 .469026 .015342
ITEM: TIMESTEP
350
ITEM: NUMBER OF ATOMS
7
ITEM: BOX BOUNDS ss ss ss
-3.0041 3.3690
-2.8501 3.3397
-1.9181 2.0286
ITEM: ATOMS id type xs ys zs
1 1 .508689 .995329 .507828
2 1 .990946 .578935 .512350
3 1 .752539 .007032 .501398
4 1 .160462 .059824 .500202
5 1 .009969 .652641 .480273
6 1 .489857 .462999 .991874
7 1 .498143 .469913 .019900
ITEM: TIMESTEP
400
ITEM: NUMBER OF ATOMS
7
ITEM: BOX BOUNDS ss ss ss
-2.9919 3.3636
-2.8478 3.3413
-1.9157 2.0344
ITEM: ATOMS id type xs ys zs
1 1 .514796 .991215 .511287
2 1 .994938 .576591 .508739
3 1 .755911 .008963 .499767
4 1 .162696 .051199 .501392
5 1 .011289 .645076 .474403
6 1 .487745 .463699 .984389
7 1 .494646 .463973 .013625
ITEM: TIMESTEP
1
ITEM: NUMBER OF ATOMS
7
ITEM: BOX BOUNDS ss ss ss
-2.9969 3.3569
-2.8425 3.3217
-1.9235 2.0344
ITEM: ATOMS id type xs ys zs
1 1 .512342 .993752 .515030
2 1 .992866 .579358 .511447
3 1 .756198 .009424 .498264
4 1 .162270 .055012 .499192
5 1 .009002 .649529 .479724
6 1 .487991 .463978 .986826
7 1 .497688 .469341 .011914
ITEM: TIMESTEP
50
ITEM: NUMBER OF ATOMS
7
ITEM: BOX BOUNDS ss ss ss
-2.9969 3.3569
-2.8425 3.3217
-1.9235 2.0344
ITEM: ATOMS id type xs ys zs
1 1 .514270 .995812 .513277
2 1 .992978 .580085 .516271
3 1 .756582 .007950 .497232
4 1 .160292 .053088 .500543
5 1 .007562 .648993 .478738
6 1 .486491 .465803 .987829
7 1 .498147 .468283 .011231
ITEM: TIMESTEP
100
ITEM: NUMBER OF ATOMS
7
ITEM: BOX BOUNDS ss ss ss
-2.9969 3.3569
-2.8425 3.3241
-1.9235 2.0344
ITEM: ATOMS id type xs ys zs
1 1 .513031 .994010 .512872
2 1 .992352 .577757 .511312
3 1 .756053 .010551 .497802
4 1 .162942 .055548 .501822
5 1 .010971 .653163 .476267
6 1 .488659 .465608 .989102
7 1 .496513 .469813 .009772
ITEM: TIMESTEP
150
ITEM: NUMBER OF ATOMS
7
ITEM: BOX BOUNDS ss ss ss
-2.9969 3.3657
-2.8425 3.3348
-1.9256 2.0344
ITEM: ATOMS id type xs ys zs
1 1 .511406 .991712 .515977
2 1 .990638 .575408 .510083
3 1 .755069 .011971 .502195
4 1 .162896 .054781 .501126
5 1 .010956 .651769 .475654
6 1 .487850 .465842 .990712
7 1 .496947 .471010 .008687
ITEM: TIMESTEP
200
ITEM: NUMBER OF ATOMS
7
ITEM: BOX BOUNDS ss ss ss
-2.9969 3.3650
-2.8425 3.3392
-1.9305 2.0344
ITEM: ATOMS id type xs ys zs
1 1 .508398 .994566 .519516
2 1 .995437 .577653 .508753
3 1 .751602 .011206 .499104
4 1 .161541 .056145 .499745
5 1 .009414 .644783 .478441
6 1 .485813 .466186 .987129
7 1 .497647 .468612 .011991
ITEM: TIMESTEP
250
ITEM: NUMBER OF ATOMS
7
ITEM: BOX BOUNDS ss ss ss
-2.9969 3.3682
-2.8452 3.3488
-1.9235 2.0383
ITEM: ATOMS id type xs ys zs
1 1 .513426 .990416 .519976
2 1 .990775 .578198 .509849
3 1 .753639 .007832 .488186
4 1 .161898 .052558 .499212
5 1 .009755 .646872 .482953
6 1 .487821 .461534 .987554
7 1 .497118 .471503 .012722
ITEM: TIMESTEP
300
ITEM: NUMBER OF ATOMS
7
ITEM: BOX BOUNDS ss ss ss
-3.0008 3.3737
-2.8493 3.3459
-1.9235 2.0344
ITEM: ATOMS id type xs ys zs
1 1 .511469 .992075 .520459
2 1 .989824 .576734 .508503
3 1 .751159 .006065 .488096
4 1 .164029 .052316 .500897
5 1 .010350 .646302 .482281
6 1 .485938 .463725 .990022
7 1 .495388 .472497 .013018
ITEM: TIMESTEP
350
ITEM: NUMBER OF ATOMS
7
ITEM: BOX BOUNDS ss ss ss
-3.0066 3.3710
-2.8567 3.3533
-1.9235 2.0352
ITEM: ATOMS id type xs ys zs
1 1 .512664 .992358 .522279
2 1 .992011 .576928 .508314
3 1 .751053 .007849 .486043
4 1 .165001 .053502 .505012
5 1 .010316 .646635 .483300
6 1 .486953 .463664 .988661
7 1 .497082 .475536 .013150
ITEM: TIMESTEP
400
ITEM: NUMBER OF ATOMS
7
ITEM: BOX BOUNDS ss ss ss
-3.0020 3.3650
-2.8521 3.3491
-1.9235 2.0344
ITEM: ATOMS id type xs ys zs
1 1 .513375 .987039 .510611
2 1 .992585 .573077 .511834
3 1 .756049 .004990 .499567
4 1 .163550 .058553 .498858
5 1 .006237 .649511 .477531
6 1 .493444 .462501 .983111
7 1 .501224 .464445 .014328
ITEM: TIMESTEP
450
ITEM: NUMBER OF ATOMS
7
ITEM: BOX BOUNDS ss ss ss
-2.9958 3.3668
-2.8659 3.3454
-1.9236 2.0519
ITEM: ATOMS id type xs ys zs
1 1 .514286 .988974 .510436
2 1 .993141 .575015 .505127
3 1 .754396 .007404 .494301
4 1 .164229 .062364 .496770
5 1 .007324 .654415 .477448
6 1 .489900 .467606 .985501
7 1 .496897 .468222 .013636
ITEM: TIMESTEP
1
ITEM: NUMBER OF ATOMS
7
ITEM: BOX BOUNDS ss ss ss
-2.9916 3.3634
-2.8565 3.3280
-1.9079 2.0289
ITEM: ATOMS id type xs ys zs
1 1 .511236 .992413 .514077
2 1 .992009 .579607 .510221
3 1 .755416 .011257 .497016
4 1 .161059 .057168 .498682
5 1 .008163 .649763 .477736
6 1 .487097 .464551 .987485
7 1 .496653 .469937 .008327
ITEM: TIMESTEP
50
ITEM: NUMBER OF ATOMS
7
ITEM: BOX BOUNDS ss ss ss
-2.9855 3.3634
-2.8565 3.3280
-1.9079 2.0289
ITEM: ATOMS id type xs ys zs
1 1 .511172 .990866 .511205
2 1 .991894 .578807 .511394
3 1 .756982 .009367 .495492
4 1 .160581 .058033 .500368
5 1 .006428 .648125 .478003
6 1 .485889 .466104 .983332
7 1 .495872 .471188 .008160
ITEM: TIMESTEP
100
ITEM: NUMBER OF ATOMS
7
ITEM: BOX BOUNDS ss ss ss
-2.9855 3.3634
-2.8565 3.3288
-1.9197 2.0289
ITEM: ATOMS id type xs ys zs
1 1 .511230 .996724 .519827
2 1 .992070 .580012 .509013
3 1 .754479 .011800 .497854
4 1 .159691 .055320 .498485
5 1 .004345 .647898 .475637
6 1 .487684 .465351 .990483
7 1 .493903 .471605 .012418
ITEM: TIMESTEP
150
ITEM: NUMBER OF ATOMS
7
ITEM: BOX BOUNDS ss ss ss
-2.9873 3.3649
-2.8565 3.3368
-1.9163 2.0294
ITEM: ATOMS id type xs ys zs
1 1 .508402 .995151 .513183
2 1 .992584 .576905 .511429
3 1 .755733 .012213 .496578
4 1 .162601 .057516 .497139
5 1 .007426 .650284 .472445
6 1 .482825 .464973 .989113
7 1 .495558 .468956 .012965
ITEM: TIMESTEP
200
ITEM: NUMBER OF ATOMS
7
ITEM: BOX BOUNDS ss ss ss
-2.9923 3.3703
-2.8565 3.3345
-1.9173 2.0289
ITEM: ATOMS id type xs ys zs
1 1 .510784 .995668 .512642
2 1 .993080 .576300 .513240
3 1 .755412 .012418 .491808
4 1 .163712 .057367 .493477
5 1 .008544 .649603 .472074
6 1 .481279 .465622 .989594
7 1 .495113 .468360 .013921
ITEM: TIMESTEP
250
ITEM: NUMBER OF ATOMS
7
ITEM: BOX BOUNDS ss ss ss
-2.9994 3.3710
-2.8565 3.3386
-1.9249 2.0373
ITEM: ATOMS id type xs ys zs
1 1 .508968 .991346 .514196
2 1 .988997 .575212 .511972
3 1 .754398 .010038 .504847
4 1 .165176 .057926 .502214
5 1 .007773 .647461 .475189
6 1 .484440 .463565 .988339
7 1 .492068 .472421 .014513
ITEM: TIMESTEP
300
ITEM: NUMBER OF ATOMS
7
ITEM: BOX BOUNDS ss ss ss
-3.0098 3.3722
-2.8565 3.3423
-1.9303 2.0351
ITEM: ATOMS id type xs ys zs
1 1 .509803 .991029 .517618
2 1 .997735 .575514 .505436
3 1 .755663 .011926 .505843
4 1 .160933 .059538 .497468
5 1 .009921 .651017 .480675
6 1 .490899 .461472 .981699
7 1 .503109 .469708 .008984
ITEM: TIMESTEP
350
ITEM: NUMBER OF ATOMS
7
ITEM: BOX BOUNDS ss ss ss
-3.0057 3.3643
-2.8526 3.3357
-1.9262 2.0295
ITEM: ATOMS id type xs ys zs
1 1 .512376 .992099 .522971
2 1 .994691 .572161 .511748
3 1 .754983 .010692 .492831
4 1 .162884 .061394 .513152
5 1 .011670 .652640 .475137
6 1 .488317 .464655 .993539
7 1 .498320 .472702 .015444
ITEM: TIMESTEP
400
ITEM: NUMBER OF ATOMS
7
ITEM: BOX BOUNDS ss ss ss
-3.0140 3.3738
-2.8605 3.3397
-1.9262 2.0289
ITEM: ATOMS id type xs ys zs
1 1 .514814 .990046 .513405
2 1 .993277 .578992 .511097
3 1 .756816 .012364 .493931
4 1 .169841 .054353 .504138
5 1 .013562 .642396 .467980
6 1 .489160 .468494 .990605
7 1 .501457 .469221 .011545
ITEM: TIMESTEP
450
ITEM: NUMBER OF ATOMS
7
ITEM: BOX BOUNDS ss ss ss
-3.0198 3.3675
-2.8519 3.3346
-1.9438 2.0296
ITEM: ATOMS id type xs ys zs
1 1 .515415 .990974 .514940
2 1 .995001 .579175 .513097
3 1 .759773 .012801 .495897
4 1 .170934 .054072 .504420
5 1 .013928 .640475 .467095
6 1 .492844 .467177 .993039
7 1 .501521 .470122 .018256
ITEM: TIMESTEP
500
ITEM: NUMBER OF ATOMS
7
ITEM: BOX BOUNDS ss ss ss
-3.0165 3.3695
-2.8577 3.3465
-1.9574 2.0361
ITEM: ATOMS id type xs ys zs
1 1 .511346 .987556 .511371
2 1 .992862 .573260 .521506
3 1 .755453 .007996 .500286
4 1 .161653 .057800 .503775
5 1 .006928 .649206 .489411
6 1 .489526 .463246 .989282
7 1 .496436 .464639 .024067
ITEM: TIMESTEP
550
ITEM: NUMBER OF ATOMS
7
ITEM: BOX BOUNDS ss ss ss
-3.0052 3.3671
-2.8593 3.3433
-1.9622 2.0387
ITEM: ATOMS id type xs ys zs
1 1 .508349 .988901 .512567
2 1 .994618 .573656 .523446
3 1 .754784 .007560 .502719
4 1 .158734 .059869 .501006
5 1 .004400 .648315 .490141
6 1 .489176 .462589 .989748
7 1 .495644 .465851 .027402
ITEM: TIMESTEP
600
ITEM: NUMBER OF ATOMS
7
ITEM: BOX BOUNDS ss ss ss
-3.0084 3.3772
-2.8559 3.3453
-1.9426 2.0389
ITEM: ATOMS id type xs ys zs
1 1 .510766 .987214 .517432
2 1 .987375 .579882 .508270
3 1 .755826 .010632 .507934
4 1 .162332 .058690 .508140
5 1 .013298 .645156 .480682
6 1 .489567 .460449 .987588
7 1 .498479 .467899 .009981
ITEM: TIMESTEP
650
ITEM: NUMBER OF ATOMS
7
ITEM: BOX BOUNDS ss ss ss
-3.0117 3.3649
-2.8578 3.3483
-1.9420 2.0441
ITEM: ATOMS id type xs ys zs
1 1 .515448 .993357 .527857
2 1 .992550 .579960 .505705
3 1 .753413 .009018 .494974
4 1 .157850 .055125 .497927
5 1 .013065 .647647 .486151
6 1 .491749 .461122 .982296
7 1 .497313 .465159 .019581
ITEM: TIMESTEP
1
ITEM: NUMBER OF ATOMS
7
ITEM: BOX BOUNDS ss ss ss
-3.0151 3.3690
-2.8426 3.3393
-1.9277 2.0309
ITEM: ATOMS id type xs ys zs
1 1 .512546 .990906 .516181
2 1 .990998 .577592 .511771
3 1 .755729 .009154 .499019
4 1 .164181 .054831 .500276
5 1 .011663 .647656 .480965
6 1 .488434 .462704 .987759
7 1 .498019 .467717 .013107
ITEM: TIMESTEP
50
ITEM: NUMBER OF ATOMS
7
ITEM: BOX BOUNDS ss ss ss
-3.0037 3.3690
-2.8426 3.3393
-1.9277 2.0309
ITEM: ATOMS id type xs ys zs
1 1 .510198 .991148 .513691
2 1 .991774 .577672 .509616
3 1 .754301 .008275 .497287
4 1 .162933 .056100 .498191
5 1 .010505 .645178 .481638
6 1 .487735 .462509 .983982
7 1 .495899 .469281 .012149
ITEM: TIMESTEP
100
ITEM: NUMBER OF ATOMS
7
ITEM: BOX BOUNDS ss ss ss
-3.0037 3.3690
-2.8426 3.3393
-1.9277 2.0309
ITEM: ATOMS id type xs ys zs
1 1 .513120 .989073 .519748
2 1 .990569 .574813 .506843
3 1 .754807 .007897 .498717
4 1 .161277 .052725 .501834
5 1 .010377 .643824 .479110
6 1 .487847 .463503 .985327
7 1 .498365 .465080 .014847
ITEM: TIMESTEP
150
ITEM: NUMBER OF ATOMS
7
ITEM: BOX BOUNDS ss ss ss
-3.0037 3.3690
-2.8426 3.3393
-1.9277 2.0309
ITEM: ATOMS id type xs ys zs
1 1 .511041 .991395 .520307
2 1 .991090 .576009 .516266
3 1 .754536 .008075 .498774
4 1 .163449 .054456 .502496
5 1 .012274 .645972 .476988
6 1 .487530 .464960 .990071
7 1 .495129 .468266 .015711
ITEM: TIMESTEP
200
ITEM: NUMBER OF ATOMS
7
ITEM: BOX BOUNDS ss ss ss
-2.9913 3.3690
-2.8426 3.3428
-1.9212 2.0309
ITEM: ATOMS id type xs ys zs
1 1 .508435 .990204 .520733
2 1 .991327 .574538 .516158
3 1 .753518 .006695 .496845
4 1 .162370 .054972 .502764
5 1 .011579 .646427 .473210
6 1 .486412 .465607 .990224
7 1 .495209 .469146 .015235
ITEM: TIMESTEP
250
ITEM: NUMBER OF ATOMS
7
ITEM: BOX BOUNDS ss ss ss
-3.0064 3.3771
-2.8446 3.3393
-1.9205 2.0309
ITEM: ATOMS id type xs ys zs
1 1 .508859 .993387 .524280
2 1 .992126 .575564 .515817
3 1 .753594 .007986 .499877
4 1 .165118 .053523 .502522
5 1 .009193 .648263 .483805
6 1 .486027 .463978 .993207
7 1 .499245 .469373 .014649
ITEM: TIMESTEP
300
ITEM: NUMBER OF ATOMS
7
ITEM: BOX BOUNDS ss ss ss
-2.9964 3.3683
-2.8426 3.3417
-1.9173 2.0309
ITEM: ATOMS id type xs ys zs
1 1 .507337 .995180 .526828
2 1 .994574 .576745 .513178
3 1 .755149 .007727 .500075
4 1 .163355 .053737 .503555
5 1 .007515 .648345 .483890
6 1 .486555 .461720 .992800
7 1 .500667 .468844 .015288
ITEM: TIMESTEP
350
ITEM: NUMBER OF ATOMS
7
ITEM: BOX BOUNDS ss ss ss
-3.0046 3.3764
-2.8528 3.3419
-1.9182 2.0309
ITEM: ATOMS id type xs ys zs
1 1 .506042 .993790 .515789
2 1 .992587 .578488 .504823
3 1 .755032 .009811 .497622
4 1 .162984 .055511 .503883
5 1 .011826 .646243 .470315
6 1 .491304 .465120 .981724
7 1 .496061 .468515 .012077
ITEM: TIMESTEP
400
ITEM: NUMBER OF ATOMS
7
ITEM: BOX BOUNDS ss ss ss
-3.0031 3.3719
-2.8585 3.3376
-1.9305 2.0309
ITEM: ATOMS id type xs ys zs
1 1 .506702 .988881 .514261
2 1 .992887 .576928 .506596
3 1 .752415 .011820 .496557
4 1 .159841 .059661 .500453
5 1 .010287 .645477 .477325
6 1 .490753 .466524 .983691
7 1 .497033 .464586 .012679
ITEM: TIMESTEP
450
ITEM: NUMBER OF ATOMS
7
ITEM: BOX BOUNDS ss ss ss
-3.0135 3.3744
-2.8571 3.3364
-1.9315 2.0331
ITEM: ATOMS id type xs ys zs
1 1 .506903 .989877 .520964
2 1 .992740 .586431 .514981
3 1 .757931 .010432 .497597
4 1 .164006 .060419 .501703
5 1 .011623 .648178 .476910
6 1 .495745 .460253 .985864
7 1 .502634 .468527 .017354
ITEM: TIMESTEP
500
ITEM: NUMBER OF ATOMS
7
ITEM: BOX BOUNDS ss ss ss
-3.0153 3.3738
-2.8487 3.3330
-1.9275 2.0352
ITEM: ATOMS id type xs ys zs
1 1 .504482 .986892 .507577