ITEM: TIMESTEP
1
ITEM: NUMBER OF ATOMS
7
ITEM: BOX BOUNDS ss ss ss
-3.2184 3.0436
-2.6744 3.3033
-2.0296 1.8544
ITEM: ATOMS id type xs ys zs
1 1 .468302 .999456 .536393
2 1 .999334 .674403 .459526
3 1 .852073 .046854 .449118
4 1 .244022 .000818 .500064
5 1 .000711 .584234 .589987
6 1 .533936 .451325 .999008
7 1 .502344 .474728 .001148
ITEM: TIMESTEP
50
ITEM: NUMBER OF ATOMS
7
ITEM: BOX BOUNDS ss ss ss
-3.2430 3.0661
-2.6984 3.3250
-2.0520 1.8759
ITEM: ATOMS id type xs ys zs
1 1 .468690 .996405 .536733
2 1 .996115 .672291 .462678
3 1 .849242 .050117 .451526
4 1 .245638 .004772 .498861
5 1 .006394 .584787 .587152
6 1 .535352 .451734 .995814
7 1 .500090 .475302 .007188
ITEM: TIMESTEP
100
ITEM: NUMBER OF ATOMS
7
ITEM: BOX BOUNDS ss ss ss
-3.2496 3.0765
-2.7040 3.3322
-2.0583 1.8925
ITEM: ATOMS id type xs ys zs
1 1 .468808 .995681 .534838
2 1 .993518 .671612 .461495
3 1 .847739 .051839 .448499
4 1 .245724 .006427 .496123
5 1 .009557 .585172 .581641
6 1 .535868 .451565 .990362
7 1 .499395 .475085 .009694
ITEM: TIMESTEP
150
ITEM: NUMBER OF ATOMS
7
ITEM: BOX BOUNDS ss ss ss
-3.2476 3.0763
-2.7027 3.3364
-2.0629 1.8931
ITEM: ATOMS id type xs ys zs
1 1 .469583 .995565 .535603
2 1 .992844 .670478 .463660
3 1 .847511 .051908 .448669
4 1 .245859 .006009 .497965
5 1 .009748 .584764 .580694
6 1 .536108 .452054 .990183
7 1 .497571 .475102 .012710
ITEM: TIMESTEP
200
ITEM: NUMBER OF ATOMS
7
ITEM: BOX BOUNDS ss ss ss
-3.2493 3.0764
-2.7005 3.3515
-2.0593 1.8885
ITEM: ATOMS id type xs ys zs
1 1 .469245 .993789 .533505
2 1 .991367 .668309 .466088
3 1 .848699 .051689 .447999
4 1 .245720 .006053 .498121
5 1 .011079 .584127 .579357
6 1 .536357 .451205 .993837
7 1 .496645 .475387 .012362
ITEM: TIMESTEP
250
ITEM: NUMBER OF ATOMS
7
ITEM: BOX BOUNDS ss ss ss
-3.2303 3.0756
-2.7081 3.3520
-2.0623 1.8971
ITEM: ATOMS id type xs ys zs
1 1 .466941 .992618 .533924
2 1 .990179 .670197 .464928
3 1 .848004 .054340 .447178
4 1 .245272 .007064 .496223
5 1 .008262 .583480 .575336
6 1 .533734 .448354 .991974
7 1 .491745 .474264 .014979
ITEM: TIMESTEP
300
ITEM: NUMBER OF ATOMS
7
ITEM: BOX BOUNDS ss ss ss
-3.2287 3.0764
-2.7088 3.3573
-2.0588 1.9016
ITEM: ATOMS id type xs ys zs
1 1 .469782 .995612 .527380
2 1 .989989 .669054 .464286
3 1 .849056 .053671 .447960
4 1 .244665 .006024 .501076
5 1 .010122 .582372 .576618
6 1 .534502 .451621 .992550
7 1 .495524 .474245 .014369
ITEM: TIMESTEP
350
ITEM: NUMBER OF ATOMS
7
ITEM: BOX BOUNDS ss ss ss
-3.2219 3.0755
-2.7125 3.3623
-2.0612 1.9065
ITEM: ATOMS id type xs ys zs
1 1 .469010 .994920 .527919
2 1 .990524 .669315 .465071
3 1 .848216 .053874 .447957
4 1 .243294 .006428 .501860
5 1 .008966 .583214 .573177
6 1 .534886 .452643 .991962
7 1 .494391 .474026 .015285
ITEM: TIMESTEP
400
ITEM: NUMBER OF ATOMS
7
ITEM: BOX BOUNDS ss ss ss
-3.2185 3.0777
-2.7114 3.3700
-2.0626 1.9151
ITEM: ATOMS id type xs ys zs
1 1 .471007 .994460 .528217
2 1 .989255 .668297 .461396
3 1 .847562 .056425 .448601
4 1 .245442 .005124 .498124
5 1 .010290 .582602 .571543
6 1 .533236 .452567 .988460
7 1 .493217 .475276 .013281
ITEM: TIMESTEP
1
ITEM: NUMBER OF ATOMS
7
ITEM: BOX BOUNDS ss ss ss
-3.2187 3.0673
-2.7154 3.3627
-2.0613 1.9136
ITEM: ATOMS id type xs ys zs
1 1 .466566 .989690 .532090
2 1 .995549 .670012 .456991
3 1 .848875 .052836 .446850
4 1 .243133 .007572 .496598
5 1 .000757 .581327 .584471
6 1 .531932 .450607 .984152
7 1 .500455 .473647 .009103
ITEM: TIMESTEP
50
ITEM: NUMBER OF ATOMS
7
ITEM: BOX BOUNDS ss ss ss
-3.2417 3.0681
-2.7059 3.3627
-2.0613 1.9136
ITEM: ATOMS id type xs ys zs
1 1 .469518 .989517 .530465
2 1 .995387 .669568 .458635
3 1 .848749 .052005 .445614
4 1 .246676 .005681 .498170
5 1 .005420 .580648 .580988
6 1 .534893 .449493 .984139
7 1 .499879 .472845 .010745
ITEM: TIMESTEP
100
ITEM: NUMBER OF ATOMS
7
ITEM: BOX BOUNDS ss ss ss
-3.2507 3.0791
-2.7059 3.3627
-2.0613 1.9136
ITEM: ATOMS id type xs ys zs
1 1 .470571 .990773 .532081
2 1 .991269 .669663 .459625
3 1 .848394 .052265 .447041
4 1 .245520 .003020 .497989
5 1 .008677 .580784 .579040
6 1 .535283 .447665 .982036
7 1 .499625 .475013 .010614
ITEM: TIMESTEP
150
ITEM: NUMBER OF ATOMS
7
ITEM: BOX BOUNDS ss ss ss
-3.2520 3.0803
-2.7067 3.3627
-2.0741 1.9136
ITEM: ATOMS id type xs ys zs
1 1 .468270 .990566 .531244
2 1 .992781 .667405 .460762
3 1 .848782 .053122 .447960
4 1 .246531 .004847 .497473
5 1 .009518 .580314 .584312
6 1 .535797 .449763 .986890
7 1 .498174 .471331 .015406
ITEM: TIMESTEP
200
ITEM: NUMBER OF ATOMS
7
ITEM: BOX BOUNDS ss ss ss
-3.2586 3.0819
-2.7094 3.3627
-2.0613 1.9136
ITEM: ATOMS id type xs ys zs
1 1 .470240 .990614 .529084
2 1 .992171 .666711 .456612
3 1 .848584 .051513 .444043
4 1 .247361 .005557 .500202
5 1 .012148 .580646 .582840
6 1 .536589 .449669 .984591
7 1 .496553 .472577 .010332
ITEM: TIMESTEP
250
ITEM: NUMBER OF ATOMS
7
ITEM: BOX BOUNDS ss ss ss
-3.2512 3.0806
-2.7254 3.3610
-2.0613 1.9136
ITEM: ATOMS id type xs ys zs
1 1 .468799 .991636 .527807
2 1 .992436 .666104 .454841
3 1 .849204 .054482 .443131
4 1 .248603 .007509 .503122
5 1 .012952 .581018 .580813
6 1 .538068 .452483 .984410
7 1 .496068 .474432 .009160
ITEM: TIMESTEP
300
ITEM: NUMBER OF ATOMS
7
ITEM: BOX BOUNDS ss ss ss
-3.2426 3.0780
-2.7236 3.3650
-2.0628 1.9136
ITEM: ATOMS id type xs ys zs
1 1 .468700 .990610 .526617
2 1 .992620 .665700 .453114
3 1 .851120 .053342 .443219
4 1 .248918 .006104 .504757
5 1 .011316 .579961 .578225
6 1 .537706 .452076 .986299
7 1 .495643 .472406 .012057
ITEM: TIMESTEP
350
ITEM: NUMBER OF ATOMS
7
ITEM: BOX BOUNDS ss ss ss
-3.2463 3.0734
-2.7255 3.3510
-2.0710 1.9105
ITEM: ATOMS id type xs ys zs
1 1 .471614 .992244 .530955
2 1 .989143 .667731 .456968
3 1 .849815 .055452 .449107
4 1 .246658 .006986 .500638
5 1 .010392 .582642 .576339
6 1 .535496 .453217 .986379
7 1 .496093 .472044 .014538
ITEM: TIMESTEP
400
ITEM: NUMBER OF ATOMS
7
ITEM: BOX BOUNDS ss ss ss
-3.2372 3.0717
-2.7248 3.3615
-2.0665 1.9053
ITEM: ATOMS id type xs ys zs
1 1 .472022 .990228 .531799
2 1 .990359 .666851 .457029
3 1 .850518 .053614 .451201
4 1 .246456 .006711 .502289
5 1 .009721 .582109 .575301
6 1 .537006 .452319 .987461
7 1 .493996 .470752 .013764
ITEM: TIMESTEP
1
ITEM: NUMBER OF ATOMS
7
ITEM: BOX BOUNDS ss ss ss
-3.2337 3.0698
-2.7255 3.3538
-2.0600 1.9053
ITEM: ATOMS id type xs ys zs
1 1 .467632 .991149 .533056
2 1 .995168 .671530 .457781
3 1 .848887 .054485 .447582
4 1 .244865 .009228 .497480
5 1 .003138 .582853 .585557
6 1 .532846 .452174 .986200
7 1 .501448 .475208 .008775
ITEM: TIMESTEP
50
ITEM: NUMBER OF ATOMS
7
ITEM: BOX BOUNDS ss ss ss
-3.2458 3.0698
-2.7255 3.3538
-2.0600 1.9053
ITEM: ATOMS id type xs ys zs
1 1 .470257 .991599 .532925
2 1 .992835 .670246 .460824
3 1 .849301 .055645 .447308
4 1 .245748 .010266 .497337
5 1 .005290 .584761 .582749
6 1 .533599 .452757 .988189
7 1 .501604 .475165 .010057
ITEM: TIMESTEP
100
ITEM: NUMBER OF ATOMS
7
ITEM: BOX BOUNDS ss ss ss
-3.2502 3.0815
-2.7255 3.3511
-2.0655 1.9053
ITEM: ATOMS id type xs ys zs
1 1 .469282 .992333 .533073
2 1 .991986 .669396 .466445
3 1 .848080 .056154 .451565
4 1 .245078 .011748 .500549
5 1 .007294 .585445 .581666
6 1 .532210 .453869 .988885
7 1 .500263 .475493 .015184
ITEM: TIMESTEP
150
ITEM: NUMBER OF ATOMS
7
ITEM: BOX BOUNDS ss ss ss
-3.2517 3.0824
-2.7255 3.3511
-2.0708 1.8968
ITEM: ATOMS id type xs ys zs
1 1 .470105 .994081 .531323
2 1 .990023 .671668 .465669
3 1 .845981 .056608 .455385
4 1 .244449 .009494 .500708
5 1 .008008 .586125 .584453
6 1 .532042 .453792 .991385
7 1 .498497 .475357 .014437
ITEM: TIMESTEP
200
ITEM: NUMBER OF ATOMS
7
ITEM: BOX BOUNDS ss ss ss
-3.2485 3.0798
-2.7255 3.3511
-2.0655 1.8968
ITEM: ATOMS id type xs ys zs
1 1 .471036 .995183 .529491
2 1 .990384 .670688 .460614
3 1 .845582 .057331 .454744
4 1 .243916 .010225 .498866
5 1 .008361 .588664 .583682
6 1 .532268 .454284 .991097
7 1 .496746 .475922 .014851
ITEM: TIMESTEP
250
ITEM: NUMBER OF ATOMS
7
ITEM: BOX BOUNDS ss ss ss
-3.2443 3.0787
-2.7255 3.3511
-2.0733 1.8981
ITEM: ATOMS id type xs ys zs
1 1 .471087 .994686 .532306
2 1 .987571 .670795 .460767
3 1 .846154 .059532 .455171
4 1 .243240 .009153 .499483
5 1 .006921 .586793 .581400
6 1 .530344 .454131 .991521
7 1 .495423 .475225 .014607
ITEM: TIMESTEP
300
ITEM: NUMBER OF ATOMS
7
ITEM: BOX BOUNDS ss ss ss
-3.2466 3.0782
-2.7104 3.3511
-2.0722 1.9029
ITEM: ATOMS id type xs ys zs
1 1 .470984 .993770 .532198
2 1 .987715 .670569 .458952
3 1 .847881 .058355 .456221
4 1 .243463 .006315 .501933
5 1 .008411 .585098 .578814
6 1 .531425 .450732 .990538
7 1 .495216 .474181 .014412
ITEM: TIMESTEP
350
ITEM: NUMBER OF ATOMS
7
ITEM: BOX BOUNDS ss ss ss
-3.2403 3.0748
-2.7088 3.3482
-2.0649 1.9055
ITEM: ATOMS id type xs ys zs
1 1 .470750 .994629 .534389
2 1 .987360 .671373 .456123
3 1 .848776 .059024 .455248
4 1 .244125 .005902 .496949
5 1 .006649 .586025 .571769
6 1 .529157 .453175 .991015
7 1 .492554 .474301 .012483
ITEM: TIMESTEP
400
ITEM: NUMBER OF ATOMS
7
ITEM: BOX BOUNDS ss ss ss
-3.2343 3.0852
-2.7103 3.3545
-2.0684 1.9147
ITEM: ATOMS id type xs ys zs
1 1 .468803 .993477 .534321
2 1 .984344 .670416 .457589
3 1 .846687 .057818 .453607
4 1 .243109 .005984 .495490
5 1 .006323 .584441 .568829
6 1 .528377 .452254 .987864
7 1 .489796 .473478 .013461
ITEM: TIMESTEP
1
ITEM: NUMBER OF ATOMS
7
ITEM: BOX BOUNDS ss ss ss
-3.2302 3.0542
-2.7135 3.3569
-2.0588 1.9002
ITEM: ATOMS id type xs ys zs
1 1 .468511 .990631 .533618
2 1 .997639 .670540 .458195
3 1 .850913 .052585 .447987
4 1 .245047 .007253 .497968
5 1 .002581 .581744 .586177
6 1 .533913 .450876 .987456
7 1 .502415 .473925 .008509
ITEM: TIMESTEP
50
ITEM: NUMBER OF ATOMS
7
ITEM: BOX BOUNDS ss ss ss
-3.2461 3.0709
-2.7135 3.3569
-2.0588 1.8982
ITEM: ATOMS id type xs ys zs
1 1 .468996 .989991 .529778
2 1 .995075 .668953 .462048
3 1 .850066 .053221 .449357
4 1 .245753 .005762 .497029
5 1 .006192 .582449 .585762
6 1 .535166 .451672 .989102
7 1 .500750 .473687 .011889
ITEM: TIMESTEP
100
ITEM: NUMBER OF ATOMS
7
ITEM: BOX BOUNDS ss ss ss
-3.2509 3.0753
-2.7135 3.3569
-2.0697 1.8982
ITEM: ATOMS id type xs ys zs
1 1 .470051 .990559 .534932
2 1 .994028 .670409 .459768
3 1 .849697 .054064 .448366
4 1 .248469 .006978 .500207
5 1 .008305 .581583 .585319
6 1 .537212 .450509 .988976
7 1 .500059 .473359 .010751
ITEM: TIMESTEP
150
ITEM: NUMBER OF ATOMS
7
ITEM: BOX BOUNDS ss ss ss
-3.2565 3.0855
-2.7135 3.3569
-2.0638 1.8982
ITEM: ATOMS id type xs ys zs
1 1 .471646 .989675 .534131
2 1 .992293 .669915 .456080
3 1 .848882 .055496 .447742
4 1 .249665 .008230 .499678
5 1 .009226 .582454 .582395
6 1 .536976 .448845 .990529
7 1 .498593 .471997 .008759
ITEM: TIMESTEP
200
ITEM: NUMBER OF ATOMS
7
ITEM: BOX BOUNDS ss ss ss
-3.2470 3.0844
-2.7094 3.3599
-2.0656 1.8982
ITEM: ATOMS id type xs ys zs
1 1 .467108 .993095 .533810
2 1 .989845 .670217 .462122
3 1 .849814 .055767 .450773
4 1 .246498 .003769 .491113
5 1 .009692 .582997 .584591
6 1 .534160 .449203 .985904
7 1 .497162 .473119 .012245
ITEM: TIMESTEP
250
ITEM: NUMBER OF ATOMS
7
ITEM: BOX BOUNDS ss ss ss
-3.2549 3.0888
-2.7124 3.3569
-2.0713 1.8982
ITEM: ATOMS id type xs ys zs
1 1 .468239 .993868 .536871
2 1 .990421 .670563 .461031
3 1 .848694 .055629 .449834
4 1 .247178 .004522 .491855
5 1 .011893 .583897 .585471
6 1 .535002 .450153 .987217
7 1 .496977 .474079 .014545
ITEM: TIMESTEP
300
ITEM: NUMBER OF ATOMS
7
ITEM: BOX BOUNDS ss ss ss
-3.2419 3.0791
-2.7187 3.3622
-2.0679 1.8982
ITEM: ATOMS id type xs ys zs
1 1 .467479 .993978 .533662
2 1 .990721 .671277 .461494
3 1 .850420 .056875 .450541
4 1 .245967 .005745 .490861
5 1 .010422 .581713 .585410
6 1 .535247 .449124 .986455
7 1 .495844 .475264 .012825
ITEM: TIMESTEP
350
ITEM: NUMBER OF ATOMS
7
ITEM: BOX BOUNDS ss ss ss
-3.2343 3.0803
-2.7217 3.3794
-2.0813 1.9014
ITEM: ATOMS id type xs ys zs
1 1 .466390 .989886 .534743
2 1 .989439 .669704 .462224
3 1 .850969 .056464 .451915
4 1 .246044 .006440 .491986
5 1 .009942 .581968 .583629
6 1 .534356 .447482 .985456
7 1 .493712 .473586 .015249
ITEM: TIMESTEP
400
ITEM: NUMBER OF ATOMS
7
ITEM: BOX BOUNDS ss ss ss
-3.2322 3.0818
-2.7287 3.3647
-2.0736 1.9024
ITEM: ATOMS id type xs ys zs
1 1 .468460 .992071 .533344
2 1 .988972 .670604 .463084
3 1 .849453 .058566 .446810
4 1 .244410 .005840 .495280
5 1 .010194 .582510 .586170
6 1 .535804 .449514 .986871
7 1 .493637 .475171 .014939
ITEM: TIMESTEP
1
ITEM: NUMBER OF ATOMS
7
ITEM: BOX BOUNDS ss ss ss
-3.2201 3.0595
-2.7286 3.3724
-2.0577 1.8982
ITEM: ATOMS id type xs ys zs
1 1 .467252 .988123 .533769
2 1 .996776 .669675 .458268
3 1 .849934 .054802 .448063
4 1 .243617 .009699 .498085
5 1 .000978 .581301 .586404
6 1 .532703 .451087 .987974
7 1 .501191 .474021 .008223
ITEM: TIMESTEP
50
ITEM: NUMBER OF ATOMS
7
ITEM: BOX BOUNDS ss ss ss
-3.2447 3.0757
-2.7286 3.3724
-2.0577 1.8982
ITEM: ATOMS id type xs ys zs
1 1 .469424 .987715 .533910
2 1 .994612 .668870 .457150
3 1 .847805 .054655 .447044
4 1 .248040 .010601 .494618
5 1 .005963 .579724 .584167
6 1 .536017 .450792 .990579
7 1 .499926 .475124 .007417
ITEM: TIMESTEP
100
ITEM: NUMBER OF ATOMS
7
ITEM: BOX BOUNDS ss ss ss
-3.2646 3.0828
-2.7265 3.3724
-2.0679 1.8982
ITEM: ATOMS id type xs ys zs
1 1 .471162 .988577 .539258
2 1 .993996 .668933 .461607
3 1 .850608 .056167 .451097
4 1 .248259 .010736 .496212
5 1 .010689 .579316 .585418
6 1 .536700 .449586 .989196
7 1 .501550 .474633 .012287
ITEM: TIMESTEP
150
ITEM: NUMBER OF ATOMS
7
ITEM: BOX BOUNDS ss ss ss
-3.2586 3.0849
-2.7265 3.3724
-2.0660 1.8982
ITEM: ATOMS id type xs ys zs
1 1 .468647 .988498 .540601
2 1 .991815 .666302 .459443
3 1 .847701 .057959 .451712
4 1 .247630 .009793 .496088
5 1 .011901 .579565 .580787
6 1 .536236 .447798 .990236
7 1 .499818 .473878 .011270
ITEM: TIMESTEP
200
ITEM: NUMBER OF ATOMS
7
ITEM: BOX BOUNDS ss ss ss
-3.2548 3.0856
-2.7165 3.3543
-2.0720 1.8982
ITEM: ATOMS id type xs ys zs
1 1 .467633 .991182 .539710
2 1 .991467 .668358 .461128
3 1 .848484 .056415 .451000
4 1 .247265 .007088 .494295
5 1 .012118 .583187 .582013
6 1 .534040 .448300 .990600
7 1 .500117 .473671 .012586
ITEM: TIMESTEP
250
ITEM: NUMBER OF ATOMS
7
ITEM: BOX BOUNDS ss ss ss
-3.2535 3.0966
-2.7067 3.3543
-2.0655 1.8982
ITEM: ATOMS id type xs ys zs
1 1 .466578 .993291 .534576
2 1 .990688 .667041 .463434
3 1 .847315 .052329 .447890
4 1 .244620 .007549 .491266
5 1 .012560 .581113 .579017
6 1 .534727 .449544 .989558
7 1 .499153 .476357 .013494
ITEM: TIMESTEP
300
ITEM: NUMBER OF ATOMS
7
ITEM: BOX BOUNDS ss ss ss
-3.2454 3.0937
-2.7075 3.3537
-2.0639 1.9002
ITEM: ATOMS id type xs ys zs
1 1 .468205 .994047 .534681
2 1 .990832 .666308 .465706
3 1 .848276 .051874 .449792
4 1 .244383 .007894 .494136
5 1 .009935 .583038 .577750
6 1 .534342 .450462 .987462
7 1 .496534 .475659 .014397
ITEM: TIMESTEP
350
ITEM: NUMBER OF ATOMS
7
ITEM: BOX BOUNDS ss ss ss
-3.2397 3.0828
-2.7069 3.3531
-2.0650 1.9000
ITEM: ATOMS id type xs ys zs
1 1 .470103 .995186 .537759
2 1 .991479 .666819 .468144
3 1 .849517 .052354 .448223
4 1 .243351 .006282 .495133
5 1 .008814 .582924 .579653
6 1 .533921 .450119 .989391
7 1 .496683 .474515 .017132
ITEM: TIMESTEP
400
ITEM: NUMBER OF ATOMS
7
ITEM: BOX BOUNDS ss ss ss
-3.2336 3.0869
-2.7073 3.3630
-2.0573 1.9073
ITEM: ATOMS id type xs ys zs
1 1 .469696 .992996 .534313
2 1 .992218 .666529 .467532
3 1 .849572 .054707 .448798
4 1 .245091 .006981 .492981
5 1 .008076 .585337 .573448
6 1 .533878 .450463 .988879
7 1 .495491 .474181 .012024
ITEM: TIMESTEP
1
ITEM: NUMBER OF ATOMS
7
ITEM: BOX BOUNDS ss ss ss
-3.2267 3.0778
-2.7138 3.3659
-2.0621 1.8962
ITEM: ATOMS id type xs ys zs
1 1 .466466 .989141 .534535
2 1 .993903 .669559 .459097
3 1 .847649 .052567 .448874
4 1 .243707 .007290 .498884
5 1 .002011 .580910 .587103
6 1 .531663 .450242 .988478
7 1 .500259 .473258 .009328
ITEM: TIMESTEP
50
ITEM: NUMBER OF ATOMS
7
ITEM: BOX BOUNDS ss ss ss
-3.2458 3.0778
-2.7138 3.3659
-2.0621 1.8962
ITEM: ATOMS id type xs ys zs
1 1 .468330 .987529 .533654
2 1 .992388 .669919 .458732
3 1 .848566 .052679 .449965
4 1 .246350 .006368 .500759
5 1 .007478 .581521 .586363
6 1 .534199 .449879 .986978
7 1 .501093 .472617 .010830
ITEM: TIMESTEP
100
ITEM: NUMBER OF ATOMS
7
ITEM: BOX BOUNDS ss ss ss
-3.2584 3.0804
-2.7138 3.3659
-2.0653 1.8962
ITEM: ATOMS id type xs ys zs
1 1 .468158 .988487 .534677
2 1 .991523 .668746 .459860
3 1 .848287 .055418 .449596
4 1 .247798 .007612 .499917
5 1 .009046 .580768 .588698
6 1 .533996 .449910 .988089
7 1 .499506 .473256 .010705
ITEM: TIMESTEP
150
ITEM: NUMBER OF ATOMS
7
ITEM: BOX BOUNDS ss ss ss
-3.2638 3.0900
-2.7138 3.3659
-2.0660 1.8962
ITEM: ATOMS id type xs ys zs
1 1 .470119 .990946 .537477
2 1 .993037 .668277 .455040
3 1 .848486 .052531 .452129
4 1 .249264 .005278 .500637
5 1 .012242 .578730 .587814
6 1 .535602 .448412 .986084
7 1 .497789 .472950 .013416
ITEM: TIMESTEP
200
ITEM: NUMBER OF ATOMS
7
ITEM: BOX BOUNDS ss ss ss
-3.2580 3.0872
-2.7160 3.3659
-2.0664 1.8966
ITEM: ATOMS id type xs ys zs
1 1 .469946 .990845 .535431
2 1 .990457 .668965 .459729
3 1 .848370 .055406 .452564
4 1 .246008 .007185 .500432
5 1 .010398 .580405 .587644
6 1 .534568 .450384 .988318
7 1 .497537 .474486 .013312
ITEM: TIMESTEP
250
ITEM: NUMBER OF ATOMS
7
ITEM: BOX BOUNDS ss ss ss
-3.2632 3.0890
-2.7138 3.3659
-2.0621 1.8999
ITEM: ATOMS id type xs ys zs
1 1 .469745 .989568 .535331
2 1 .990094 .666261 .462968
3 1 .847536 .055528 .449795
4 1 .248122 .007614 .497349
5 1 .010528 .579325 .584529
6 1 .534723 .449445 .991717
7 1 .494799 .470579 .007555
ITEM: TIMESTEP
300
ITEM: NUMBER OF ATOMS
7
ITEM: BOX BOUNDS ss ss ss
-3.2522 3.0884
-2.7168 3.3635
-2.0721 1.9178
ITEM: ATOMS id type xs ys zs
1 1 .467499 .991156 .534591
2 1 .990676 .667358 .459935
3 1 .848346 .056197 .450887
4 1 .246501 .007885 .500817
5 1 .010208 .580768 .585442
6 1 .535260 .451395 .986592
7 1 .494295 .474956 .013757
ITEM: TIMESTEP
350
ITEM: NUMBER OF ATOMS
7
ITEM: BOX BOUNDS ss ss ss
-3.2487 3.0987
-2.7214 3.3644
-2.0748 1.9078
ITEM: ATOMS id type xs ys zs
1 1 .465179 .991032 .541336
2 1 .987584 .668922 .461294
3 1 .847243 .058708 .455779
4 1 .246600 .009405 .503480
5 1 .008549 .581377 .586857
6 1 .534439 .453353 .990224
7 1 .491576 .476871 .016561
ITEM: TIMESTEP
400
ITEM: NUMBER OF ATOMS
7
ITEM: BOX BOUNDS ss ss ss
-3.2493 3.1022
-2.7186 3.3602
-2.0719 1.9189
ITEM: ATOMS id type xs ys zs
1 1 .466385 .990954 .538539
2 1 .985498 .669748 .460210
3 1 .846601 .058342 .456781
4 1 .247114 .009088 .503053
5 1 .010257 .581373 .583256
6 1 .534255 .452406 .990965
7 1 .490876 .477334 .015319
ITEM: TIMESTEP
1
ITEM: NUMBER OF ATOMS
7
ITEM: BOX BOUNDS ss ss ss
-3.2336 3.0871
-2.7194 3.3581
-2.0662 1.9087
ITEM: ATOMS id type xs ys zs
1 1 .466346 .990449 .533333
2 1 .992450 .670736 .458209
3 1 .846574 .053496 .448062
4 1 .244176 .008209 .497822
5 1 .003112 .582032 .585687
6 1 .531375 .451299 .985389
7 1 .500068 .474332 .010293
ITEM: TIMESTEP
50
ITEM: NUMBER OF ATOMS
7
ITEM: BOX BOUNDS ss ss ss
-3.2545 3.0871
-2.7194 3.3581
-2.0662 1.9087
ITEM: ATOMS id type xs ys zs
1 1 .467783 .991273 .531593
2 1 .991999 .669140 .456864
3 1 .847045 .053865 .449430
4 1 .244849 .008340 .498345
5 1 .007984 .583835 .584346
6 1 .532921 .451600 .984720
7 1 .500369 .472973 .012049
ITEM: TIMESTEP
100
ITEM: NUMBER OF ATOMS
7
ITEM: BOX BOUNDS ss ss ss
-3.2599 3.0871
-2.7194 3.3581
-2.0680 1.9087
ITEM: ATOMS id type xs ys zs
1 1 .468804 .993155 .530412
2 1 .992599 .669641 .455561
3 1 .847706 .053025 .449880
4 1 .245260 .009598 .497006
5 1 .008489 .583819 .584063
6 1 .535114 .452416 .982343
7 1 .499381 .472911 .014768
ITEM: TIMESTEP
150
ITEM: NUMBER OF ATOMS
7
ITEM: BOX BOUNDS ss ss ss
-3.2610 3.0871
-2.7194 3.3581
-2.0724 1.9087
ITEM: ATOMS id type xs ys zs
1 1 .469404 .992274 .529734
2 1 .993219 .668662 .460696
3 1 .847186 .052860 .448437
4 1 .244005 .008110 .497995
5 1 .009090 .582983 .582737
6 1 .535312 .449177 .983781
7 1 .499257 .473185 .012055
ITEM: TIMESTEP
200
ITEM: NUMBER OF ATOMS
7
ITEM: BOX BOUNDS ss ss ss
-3.2542 3.0871
-2.7138 3.3581
-2.0662 1.9064
ITEM: ATOMS id type xs ys zs
1 1 .471304 .991811 .530086
2 1 .990526 .666365 .462558
3 1 .846263 .050534 .449948
4 1 .244027 .007365 .494284
5 1 .010018 .584074 .582055
6 1 .533900 .447767 .985283
7 1 .498543 .472813 .008753
ITEM: TIMESTEP
250
ITEM: NUMBER OF ATOMS
7
ITEM: BOX BOUNDS ss ss ss
-3.2483 3.0932
-2.7138 3.3581
-2.0730 1.9064
ITEM: ATOMS id type xs ys zs
1 1 .469915 .991725 .530975
2 1 .989474 .666035 .463059
3 1 .845558 .051382 .449227
4 1 .243595 .006983 .494997
5 1 .010307 .584199 .584301
6 1 .533610 .448622 .985063
7 1 .496362 .472711 .012013
ITEM: TIMESTEP
300
ITEM: NUMBER OF ATOMS
7
ITEM: BOX BOUNDS ss ss ss
-3.2461 3.0906
-2.7138 3.3581
-2.0667 1.8980
ITEM: ATOMS id type xs ys zs
1 1 .471516 .991314 .530201
2 1 .988577 .666444 .463776
3 1 .846754 .050667 .450791
4 1 .243560 .005642 .497279
5 1 .011719 .584227 .583356
6 1 .533756 .447580 .985993
7 1 .496062 .472323 .011897
ITEM: TIMESTEP
350
ITEM: NUMBER OF ATOMS
7
ITEM: BOX BOUNDS ss ss ss
-3.2357 3.0823
-2.7138 3.3581
-2.0742 1.8973
ITEM: ATOMS id type xs ys zs
1 1 .470738 .993428 .535976
2 1 .990997 .664805 .465363
3 1 .846080 .050611 .448811
4 1 .245361 .006889 .496601
5 1 .011477 .584555 .584991
6 1 .535560 .447958 .989071
7 1 .496980 .473533 .012987
ITEM: TIMESTEP
400
ITEM: NUMBER OF ATOMS
7
ITEM: BOX BOUNDS ss ss ss
-3.2328 3.0841
-2.7138 3.3581
-2.0750 1.8962
ITEM: ATOMS id type xs ys zs
1 1 .470742 .991736 .536684
2 1 .991186 .664281 .462053
3 1 .847234 .049528 .448099
4 1 .244004 .007018 .499291
5 1 .010906 .581601 .586551
6 1 .536522 .447010 .989264
7 1 .494218 .472836 .017544
ITEM: TIMESTEP
1
ITEM: NUMBER OF ATOMS
7
ITEM: BOX BOUNDS ss ss ss
-3.2214 3.0749
-2.7103 3.3565
-2.0673 1.8929
ITEM: ATOMS id type xs ys zs
1 1 .466228 .990671 .535575
2 1 .994346 .670390 .460190
3 1 .847895 .052103 .450026
4 1 .243172 .006723 .499953
5 1 .001209 .581576 .588147
6 1 .531521 .450616 .989343
7 1 .500051 .473680 .010640
ITEM: TIMESTEP
50
ITEM: NUMBER OF ATOMS
7
ITEM: BOX BOUNDS ss ss ss
-3.2487 3.0749
-2.7103 3.3565
-2.0673 1.8929
ITEM: ATOMS id type xs ys zs
1 1 .468600 .991939 .537132
2 1 .995746 .668834 .460857
3 1 .849153 .053652 .450502
4 1 .244690 .006165 .499716
5 1 .007561 .581439 .586264
6 1 .533191 .449761 .990532
7 1 .501047 .473894 .010030
ITEM: TIMESTEP
100
ITEM: NUMBER OF ATOMS
7
ITEM: BOX BOUNDS ss ss ss
-3.2593 3.0843
-2.7087 3.3565
-2.0684 1.8929
ITEM: ATOMS id type xs ys zs
1 1 .466855 .991916 .536301
2 1 .991338 .670409 .460091
3 1 .845146 .051700 .450747
4 1 .245169 .008641 .497964
5 1 .009353 .579731 .589354
6 1 .535132 .451095 .995323
7 1 .499967 .473445 .013205
ITEM: TIMESTEP
150
ITEM: NUMBER OF ATOMS
7
ITEM: BOX BOUNDS ss ss ss
-3.2600 3.0940
-2.7087 3.3565
-2.0713 1.9036
ITEM: ATOMS id type xs ys zs
1 1 .469082 .991150 .537798
2 1 .987868 .669208 .463708
3 1 .843874 .050889 .452052
4 1 .243442 .010277 .497769
5 1 .010157 .580598 .587058
6 1 .534955 .451897 .995890
7 1 .498445 .473573 .010140
ITEM: TIMESTEP
200
ITEM: NUMBER OF ATOMS
7
ITEM: BOX BOUNDS ss ss ss
-3.2593 3.1152
-2.7088 3.3565
-2.0727 1.9157
ITEM: ATOMS id type xs ys zs
1 1 .467080 .990911 .534184
2 1 .985043 .668640 .460356
3 1 .840218 .051512 .451917
4 1 .244525 .010558 .499107
5 1 .010412 .579686 .584540
6 1 .532514 .452985 .991525
7 1 .497084 .475003 .011366
ITEM: TIMESTEP
250
ITEM: NUMBER OF ATOMS
7
ITEM: BOX BOUNDS ss ss ss
-3.2581 3.0968
-2.7087 3.3530
-2.0715 1.9231
ITEM: ATOMS id type xs ys zs
1 1 .466968 .992272 .532473
2 1 .988374 .670577 .456288
3 1 .844001 .054204 .450637
4 1 .242753 .006805 .492883
5 1 .007578 .581819 .586401
6 1 .533225 .450819 .988147
7 1 .494094 .474817 .015923
ITEM: TIMESTEP
300
ITEM: NUMBER OF ATOMS
7
ITEM: BOX BOUNDS ss ss ss
-3.2535 3.0813
-2.7087 3.3530
-2.0792 1.9158
ITEM: ATOMS id type xs ys zs
1 1 .463705 .992000 .533444
2 1 .990672 .669714 .459769
3 1 .845802 .050870 .455632
4 1 .244785 .006036 .497622
5 1 .008247 .578242 .582656
6 1 .534587 .452753 .988371
7 1 .496957 .473744 .017614
ITEM: TIMESTEP
350
ITEM: NUMBER OF ATOMS
7
ITEM: BOX BOUNDS ss ss ss
-3.2543 3.0810
-2.7087 3.3530
-2.0630 1.9146
ITEM: ATOMS id type xs ys zs
1 1 .463742 .993633 .531932
2 1 .989780 .670409 .460135
3 1 .845263 .052703 .451000
4 1 .243187 .005415 .491409
5 1 .008253 .578448 .582993
6 1 .536107 .450330 .990873
7 1 .495927 .475158 .019063
ITEM: TIMESTEP
400
ITEM: NUMBER OF ATOMS
7
ITEM: BOX BOUNDS ss ss ss
-3.2598 3.0774
-2.7087 3.3574
-2.0620 1.9163
ITEM: ATOMS id type xs ys zs
1 1 .463392 .993162 .533482
2 1 .989832 .667886 .459103
3 1 .845026 .053712 .451223
4 1 .242833 .005182 .493553
5 1 .007508 .579465 .578193
6 1 .535367 .451439 .988042
7 1 .496435 .474212 .016652
ITEM: TIMESTEP
1
ITEM: NUMBER OF ATOMS
7
ITEM: BOX BOUNDS ss ss ss
-3.2491 3.0687
-2.7107 3.3527
-2.0604 1.9225
ITEM: ATOMS id type xs ys zs
1 1 .469048 .991319 .530837
2 1 .995359 .670844 .455812
3 1 .849406 .052196 .445709
4 1 .246746 .006787 .495410
5 1 .005589 .581952 .583064
6 1 .534077 .450912 .981939
7 1 .502750 .473989 .008851
ITEM: TIMESTEP
50
ITEM: NUMBER OF ATOMS
7
ITEM: BOX BOUNDS ss ss ss
-3.2491 3.0733
-2.7107 3.3527
-2.0604 1.9225
ITEM: ATOMS id type xs ys zs
1 1 .467742 .991585 .528881
2 1 .994499 .669953 .458246
3 1 .849735 .054123 .447192
4 1 .246516 .007509 .495254
5 1 .005855 .581747 .583734
6 1 .533667 .451201 .981651
7 1 .500689 .475211 .009573
ITEM: TIMESTEP
100
ITEM: NUMBER OF ATOMS
7
ITEM: BOX BOUNDS ss ss ss
-3.2587 3.0852
-2.7087 3.3527
-2.0631 1.9225
ITEM: ATOMS id type xs ys zs
1 1 .467163 .992673 .530477
2 1 .991855 .671515 .456517
3 1 .849250 .050274 .446246
4 1 .247152 .006464 .495018
5 1 .008202 .580250 .579976
6 1 .534169 .449801 .979927
7 1 .500232 .473528 .011426
ITEM: TIMESTEP
150
ITEM: NUMBER OF ATOMS
7
ITEM: BOX BOUNDS ss ss ss
-3.2673 3.0886
-2.7095 3.3527
-2.0664 1.9215
ITEM: ATOMS id type xs ys zs
1 1 .469804 .993332 .533215
2 1 .991025 .671913 .457025
3 1 .848639 .049913 .448046
4 1 .245501 .004990 .493742
5 1 .010243 .580305 .579494
6 1 .535791 .449461 .979076
7 1 .500523 .474420 .011340
ITEM: TIMESTEP
200
ITEM: NUMBER OF ATOMS
7
ITEM: BOX BOUNDS ss ss ss
-3.2640 3.0983
-2.7087 3.3509
-2.0673 1.9215
ITEM: ATOMS id type xs ys zs
1 1 .464462 .991036 .530450
2 1 .989219 .668946 .456848
3 1 .848932 .052417 .444471
4 1 .247721 .006576 .494736
5 1 .009072 .580613 .579855
6 1 .535004 .447507 .983824
7 1 .499141 .470786 .016439
ITEM: TIMESTEP
250
ITEM: NUMBER OF ATOMS
7
ITEM: BOX BOUNDS ss ss ss
-3.2700 3.1015
-2.7102 3.3509
-2.0693 1.9215
ITEM: ATOMS id type xs ys zs
1 1 .464876 .991574 .531317
2 1 .990314 .670149 .460621
3 1 .847288 .051120 .443678
4 1 .247514 .006869 .491298
5 1 .011326 .579735 .577238
6 1 .537533 .449086 .982069
7 1 .500518 .471623 .016682
ITEM: TIMESTEP
300
ITEM: NUMBER OF ATOMS
7
ITEM: BOX BOUNDS ss ss ss
-3.2712 3.1057
-2.7087 3.3591
-2.0760 1.9176
ITEM: ATOMS id type xs ys zs
1 1 .465425 .989129 .529091
2 1 .988961 .669700 .460661
3 1 .845409 .049870 .447909
4 1 .245878 .006386 .491247
5 1 .011326 .579795 .579110
6 1 .537730 .447436 .982778
7 1 .497726 .470190 .016939
ITEM: TIMESTEP
350
ITEM: NUMBER OF ATOMS
7
ITEM: BOX BOUNDS ss ss ss
-3.2592 3.1049
-2.7087 3.3640
-2.0643 1.9176
ITEM: ATOMS id type xs ys zs
1 1 .467150 .990331 .532976
2 1 .988420 .664809 .461177
3 1 .844480 .048060 .445534
4 1 .248469 .008099 .486027
5 1 .011618 .578970 .576778
6 1 .537398 .448069 .984643
7 1 .497716 .471100 .012367
ITEM: TIMESTEP
400
ITEM: NUMBER OF ATOMS
7
ITEM: BOX BOUNDS ss ss ss
-3.2541 3.1013
-2.7087 3.3662
-2.0641 1.9135
ITEM: ATOMS id type xs ys zs
1 1 .465256 .988438 .529695
2 1 .987585 .667536 .456781
3 1 .844933 .049848 .447361
4 1 .244830 .007317 .490684
5 1 .010296 .578963 .579742
6 1 .536978 .446468 .983437
7 1 .494794 .471445 .012771
ITEM: TIMESTEP
1
ITEM: NUMBER OF ATOMS
7
ITEM: BOX BOUNDS ss ss ss
-3.2489 3.0859
-2.7087 3.3726
-2.0629 1.8910
ITEM: ATOMS id type xs ys zs
1 1 .467733 .988064 .535369
2 1 .992631 .668538 .459796
3 1 .847080 .051702 .449631
4 1 .246059 .006448 .499666
5 1 .005525 .579909 .587987
6 1 .532618 .449252 .989795
7 1 .501380 .472284 .009567
ITEM: TIMESTEP
50
ITEM: NUMBER OF ATOMS
7
ITEM: BOX BOUNDS ss ss ss
-3.2489 3.0859
-2.7087 3.3726
-2.0629 1.8910
ITEM: ATOMS id type xs ys zs
1 1 .468285 .989494 .533540
2 1 .992124 .668074 .460066
3 1 .846557 .051908 .449115
4 1 .246137 .006947 .501268
5 1 .006133 .579825 .587419
6 1 .533382 .451329 .989551
7 1 .499837 .470996 .010443
ITEM: TIMESTEP
100
ITEM: NUMBER OF ATOMS
7
ITEM: BOX BOUNDS ss ss ss
-3.2594 3.0865
-2.7087 3.3726
-2.0665 1.8910
ITEM: ATOMS id type xs ys zs
1 1 .468592 .987153 .532479
2 1 .989235 .669540 .461923
3 1 .848707 .051951 .446433
4 1 .247855 .007079 .504664
5 1 .010759 .576980 .589450
6 1 .535062 .447534 .989973
7 1 .500819 .473050 .011325
ITEM: TIMESTEP
150
ITEM: NUMBER OF ATOMS
7
ITEM: BOX BOUNDS ss ss ss
-3.2622 3.0878
-2.7087 3.3669
-2.0712 1.8910
ITEM: ATOMS id type xs ys zs
1 1 .469321 .988266 .535883
2 1 .988035 .667675 .463423
3 1 .849032 .051901 .446203
4 1 .249159 .009921 .504993
5 1 .011305 .577909 .591867
6 1 .535185 .448658 .994387
7 1 .499924 .472984 .012250
ITEM: TIMESTEP
200
ITEM: NUMBER OF ATOMS
7
ITEM: BOX BOUNDS ss ss ss
-3.2740 3.1014
-2.7087 3.3669
-2.0719 1.8910
ITEM: ATOMS id type xs ys zs
1 1 .470497 .990484 .530380
2 1 .987756 .668102 .462158
3 1 .845761 .053574 .453307
4 1 .247239 .009024 .500242
5 1 .011163 .580242 .586324
6 1 .533635 .450818 .991128
7 1 .501175 .472031 .013773
ITEM: TIMESTEP
250
ITEM: NUMBER OF ATOMS
7
ITEM: BOX BOUNDS ss ss ss
-3.2678 3.1005
-2.7087 3.3669
-2.0786 1.8989
ITEM: ATOMS id type xs ys zs
1 1 .471343 .989442 .528030
2 1 .988855 .667128 .460751
3 1 .848342 .053118 .450727
4 1 .246178 .007809 .502143
5 1 .010107 .578765 .581670
6 1 .534537 .450438 .983803
7 1 .499519 .469855 .014959
ITEM: TIMESTEP
300
ITEM: NUMBER OF ATOMS
7
ITEM: BOX BOUNDS ss ss ss
-3.2673 3.0989
-2.7087 3.3669
-2.0810 1.8993
ITEM: ATOMS id type xs ys zs
1 1 .466825 .990923 .538664
2 1 .989737 .668635 .461488
3 1 .850575 .054236 .457048
4 1 .248265 .007556 .500155
5 1 .014554 .578602 .588585
6 1 .537522 .448095 .989080
7 1 .499914 .474996 .013036
ITEM: TIMESTEP
350
ITEM: NUMBER OF ATOMS
7
ITEM: BOX BOUNDS ss ss ss
-3.2666 3.0869
-2.7106 3.3669
-2.0803 1.9082
ITEM: ATOMS id type xs ys zs
1 1 .468253 .987747 .537549