ITEM: TIMESTEP
1
ITEM: NUMBER OF ATOMS
7
ITEM: BOX BOUNDS ss ss ss
-3.2184 3.0436
-2.6744 3.3033
-2.0296 1.8544
ITEM: ATOMS id type xs ys zs
1 1 .468241 .999597 .535786
2 1 .999384 .674400 .459133
3 1 .851822 .046945 .449064
4 1 .243916 .000573 .500372
5 1 .000575 .584264 .590340
6 1 .533923 .451493 .998804
7 1 .502794 .474488 .000594
ITEM: TIMESTEP
50
ITEM: NUMBER OF ATOMS
7
ITEM: BOX BOUNDS ss ss ss
-3.2430 3.0661
-2.6984 3.3250
-2.0520 1.8759
ITEM: ATOMS id type xs ys zs
1 1 .469814 .997873 .539700
2 1 .996047 .672330 .457612
3 1 .850992 .048407 .451440
4 1 .245447 .005120 .500334
5 1 .005009 .583271 .589280
6 1 .534733 .451217 .994515
7 1 .503718 .478170 .005469
ITEM: TIMESTEP
100
ITEM: NUMBER OF ATOMS
7
ITEM: BOX BOUNDS ss ss ss
-3.2496 3.0765
-2.7040 3.3322
-2.0583 1.8925
ITEM: ATOMS id type xs ys zs
1 1 .467331 .995223 .530058
2 1 .993334 .672686 .454308
3 1 .850738 .050308 .449051
4 1 .245162 .007551 .496184
5 1 .006979 .580172 .587012
6 1 .532455 .450500 .991587
7 1 .500146 .475662 .010347
ITEM: TIMESTEP
150
ITEM: NUMBER OF ATOMS
7
ITEM: BOX BOUNDS ss ss ss
-3.2476 3.0763
-2.7027 3.3364
-2.0629 1.8931
ITEM: ATOMS id type xs ys zs
1 1 .469095 .995083 .533259
2 1 .994768 .670352 .465938
3 1 .846682 .051991 .453645
4 1 .244477 .006178 .495645
5 1 .006251 .586941 .585130
6 1 .536707 .453053 .989797
7 1 .499124 .474863 .008061
ITEM: TIMESTEP
200
ITEM: NUMBER OF ATOMS
7
ITEM: BOX BOUNDS ss ss ss
-3.2493 3.0764
-2.7005 3.3515
-2.0593 1.8885
ITEM: ATOMS id type xs ys zs
1 1 .469109 .992725 .540523
2 1 .993521 .669240 .467223
3 1 .850123 .050674 .452652
4 1 .243869 .008635 .496317
5 1 .007167 .585909 .582047
6 1 .536956 .448746 .989758
7 1 .501485 .475515 .010362
ITEM: TIMESTEP
250
ITEM: NUMBER OF ATOMS
7
ITEM: BOX BOUNDS ss ss ss
-3.2303 3.0756
-2.7081 3.3520
-2.0623 1.8971
ITEM: ATOMS id type xs ys zs
1 1 .469117 .992498 .533440
2 1 .994199 .667559 .460715
3 1 .848059 .053272 .447904
4 1 .243121 .008024 .498150
5 1 .009066 .579834 .584767
6 1 .535789 .452045 .993066
7 1 .498786 .474220 .015790
ITEM: TIMESTEP
300
ITEM: NUMBER OF ATOMS
7
ITEM: BOX BOUNDS ss ss ss
-3.2287 3.0764
-2.7088 3.3573
-2.0588 1.9016
ITEM: ATOMS id type xs ys zs
1 1 .466920 .992639 .530940
2 1 .995187 .666780 .464288
3 1 .847733 .053612 .446981
4 1 .243912 .006259 .496651
5 1 .002717 .584211 .573397
6 1 .534475 .450098 .987842
7 1 .495474 .473199 .012663
ITEM: TIMESTEP
350
ITEM: NUMBER OF ATOMS
7
ITEM: BOX BOUNDS ss ss ss
-3.2219 3.0755
-2.7125 3.3623
-2.0612 1.9065
ITEM: ATOMS id type xs ys zs
1 1 .463600 .991409 .531180
2 1 .991816 .667960 .465522
3 1 .848154 .049939 .446181
4 1 .246097 .008477 .493645
5 1 .005204 .581646 .574325
6 1 .531731 .450472 .988352
7 1 .492242 .472700 .011002
ITEM: TIMESTEP
400
ITEM: NUMBER OF ATOMS
7
ITEM: BOX BOUNDS ss ss ss
-3.2185 3.0777
-2.7114 3.3700
-2.0626 1.9151
ITEM: ATOMS id type xs ys zs
1 1 .463325 .990602 .530445
2 1 .988299 .665987 .466045
3 1 .847721 .048227 .446485
4 1 .245952 .007809 .493798
5 1 .004852 .581580 .573583
6 1 .529825 .450039 .987194
7 1 .493309 .470579 .013031
ITEM: TIMESTEP
1
ITEM: NUMBER OF ATOMS
7
ITEM: BOX BOUNDS ss ss ss
-3.2187 3.0673
-2.7154 3.3627
-2.0613 1.9136
ITEM: ATOMS id type xs ys zs
1 1 .466351 .989465 .532139
2 1 .995862 .669964 .456990
3 1 .848602 .052626 .446832
4 1 .243075 .007749 .496605
5 1 .000892 .581433 .584631
6 1 .531675 .450617 .983886
7 1 .500310 .473709 .008966
ITEM: TIMESTEP
50
ITEM: NUMBER OF ATOMS
7
ITEM: BOX BOUNDS ss ss ss
-3.2417 3.0681
-2.7059 3.3627
-2.0613 1.9136
ITEM: ATOMS id type xs ys zs
1 1 .467263 .988669 .535783
2 1 .997705 .670429 .457222
3 1 .849039 .052556 .448091
4 1 .244740 .007027 .495432
5 1 .003569 .580661 .584431
6 1 .533749 .448684 .984816
7 1 .500699 .472571 .008638
ITEM: TIMESTEP
100
ITEM: NUMBER OF ATOMS
7
ITEM: BOX BOUNDS ss ss ss
-3.2507 3.0791
-2.7059 3.3627
-2.0613 1.9136
ITEM: ATOMS id type xs ys zs
1 1 .469219 .988259 .531862
2 1 .994948 .667883 .455240
3 1 .849883 .051630 .451974
4 1 .247028 .004974 .493441
5 1 .006606 .579965 .585478
6 1 .536050 .449308 .982560
7 1 .501363 .470681 .008226
ITEM: TIMESTEP
150
ITEM: NUMBER OF ATOMS
7
ITEM: BOX BOUNDS ss ss ss
-3.2520 3.0803
-2.7067 3.3627
-2.0741 1.9136
ITEM: ATOMS id type xs ys zs
1 1 .469535 .987272 .531582
2 1 .993116 .667725 .462156
3 1 .848493 .050535 .448280
4 1 .242231 .007856 .498012
5 1 .006337 .579822 .580824
6 1 .532715 .447670 .987405
7 1 .500839 .470648 .017760
ITEM: TIMESTEP
200
ITEM: NUMBER OF ATOMS
7
ITEM: BOX BOUNDS ss ss ss
-3.2586 3.0819
-2.7094 3.3627
-2.0613 1.9136
ITEM: ATOMS id type xs ys zs
1 1 .467982 .985266 .530371
2 1 .993252 .667751 .463237
3 1 .849753 .051266 .447751
4 1 .243880 .009075 .498752
5 1 .005400 .580737 .582045
6 1 .533112 .449517 .986985
7 1 .501397 .470593 .018155
ITEM: TIMESTEP
250
ITEM: NUMBER OF ATOMS
7
ITEM: BOX BOUNDS ss ss ss
-3.2512 3.0806
-2.7254 3.3610
-2.0613 1.9136
ITEM: ATOMS id type xs ys zs
1 1 .467709 .993064 .532277
2 1 .992581 .668906 .458570
3 1 .847224 .055822 .453131
4 1 .246286 .015315 .492194
5 1 .006121 .585481 .575594
6 1 .533679 .455007 .987868
7 1 .497388 .479475 .012130
ITEM: TIMESTEP
300
ITEM: NUMBER OF ATOMS
7
ITEM: BOX BOUNDS ss ss ss
-3.2426 3.0780
-2.7236 3.3650
-2.0628 1.9136
ITEM: ATOMS id type xs ys zs
1 1 .467342 .992427 .528216
2 1 .993472 .669808 .462013
3 1 .849457 .057307 .453803
4 1 .246007 .014432 .491606
5 1 .004383 .586587 .578016
6 1 .534064 .455182 .990478
7 1 .495647 .478073 .010804
ITEM: TIMESTEP
350
ITEM: NUMBER OF ATOMS
7
ITEM: BOX BOUNDS ss ss ss
-3.2463 3.0734
-2.7255 3.3510
-2.0710 1.9105
ITEM: ATOMS id type xs ys zs
1 1 .465983 .991238 .531377
2 1 .994114 .667814 .461276
3 1 .847356 .057636 .451063
4 1 .246076 .013022 .497677
5 1 .007307 .586910 .580670
6 1 .539116 .455168 .988323
7 1 .496167 .476167 .012453
ITEM: TIMESTEP
400
ITEM: NUMBER OF ATOMS
7
ITEM: BOX BOUNDS ss ss ss
-3.2372 3.0717
-2.7248 3.3615
-2.0665 1.9053
ITEM: ATOMS id type xs ys zs
1 1 .470227 .990188 .532234
2 1 .994379 .665328 .465995
3 1 .848778 .055154 .447749
4 1 .244343 .007549 .493077
5 1 .005876 .579298 .583705
6 1 .534308 .451771 .985702
7 1 .498247 .472884 .013667
ITEM: TIMESTEP
1
ITEM: NUMBER OF ATOMS
7
ITEM: BOX BOUNDS ss ss ss
-3.2337 3.0698
-2.7255 3.3538
-2.0600 1.9053
ITEM: ATOMS id type xs ys zs
1 1 .467560 .991013 .533356
2 1 .995497 .671547 .457316
3 1 .848806 .054661 .447753
4 1 .244864 .008806 .497475
5 1 .002749 .582594 .586407
6 1 .532660 .452108 .986138
7 1 .501730 .475057 .009302
ITEM: TIMESTEP
50
ITEM: NUMBER OF ATOMS
7
ITEM: BOX BOUNDS ss ss ss
-3.2458 3.0698
-2.7255 3.3538
-2.0600 1.9053
ITEM: ATOMS id type xs ys zs
1 1 .471803 .989069 .532166
2 1 .994233 .671713 .455742
3 1 .850546 .053984 .447497
4 1 .246822 .010467 .495822
5 1 .005418 .583997 .587613
6 1 .532285 .451823 .985978
7 1 .502644 .473620 .008018
ITEM: TIMESTEP
100
ITEM: NUMBER OF ATOMS
7
ITEM: BOX BOUNDS ss ss ss
-3.2502 3.0815
-2.7255 3.3511
-2.0655 1.9053
ITEM: ATOMS id type xs ys zs
1 1 .467917 .992338 .532169
2 1 .994429 .670811 .456690
3 1 .850796 .053791 .444929
4 1 .245375 .008131 .494801
5 1 .006608 .584412 .589013
6 1 .535221 .452346 .985433
7 1 .501572 .475020 .010367
ITEM: TIMESTEP
150
ITEM: NUMBER OF ATOMS
7
ITEM: BOX BOUNDS ss ss ss
-3.2517 3.0824
-2.7255 3.3511
-2.0708 1.8968
ITEM: ATOMS id type xs ys zs
1 1 .463725 .990887 .526910
2 1 .992402 .671140 .462812
3 1 .847497 .052923 .449960
4 1 .245264 .007049 .495996
5 1 .007339 .581280 .584923
6 1 .537859 .452256 .987190
7 1 .500714 .473527 .012226
ITEM: TIMESTEP
200
ITEM: NUMBER OF ATOMS
7
ITEM: BOX BOUNDS ss ss ss
-3.2485 3.0798
-2.7255 3.3511
-2.0655 1.8968
ITEM: ATOMS id type xs ys zs
1 1 .465137 .989421 .526457
2 1 .993027 .672118 .462950
3 1 .847862 .051941 .447840
4 1 .245499 .007995 .493332
5 1 .005476 .583235 .586062
6 1 .536211 .453166 .986079
7 1 .501516 .473829 .012069
ITEM: TIMESTEP
250
ITEM: NUMBER OF ATOMS
7
ITEM: BOX BOUNDS ss ss ss
-3.2443 3.0787
-2.7255 3.3511
-2.0733 1.8981
ITEM: ATOMS id type xs ys zs
1 1 .463294 .987908 .525755
2 1 .994001 .672343 .464469
3 1 .848663 .052812 .451214
4 1 .244867 .008052 .492838
5 1 .005290 .583217 .586437
6 1 .537092 .454503 .985024
7 1 .501702 .474437 .014386
ITEM: TIMESTEP
300
ITEM: NUMBER OF ATOMS
7
ITEM: BOX BOUNDS ss ss ss
-3.2466 3.0782
-2.7104 3.3511
-2.0722 1.9029
ITEM: ATOMS id type xs ys zs
1 1 .469692 .992314 .532540
2 1 .988010 .667887 .460168
3 1 .842997 .054591 .457606
4 1 .244632 .008274 .494610
5 1 .010099 .585542 .584187
6 1 .531428 .453531 .988317
7 1 .496161 .474223 .015517
ITEM: TIMESTEP
350
ITEM: NUMBER OF ATOMS
7
ITEM: BOX BOUNDS ss ss ss
-3.2403 3.0748
-2.7088 3.3482
-2.0649 1.9055
ITEM: ATOMS id type xs ys zs
1 1 .463286 .992408 .513896
2 1 .991206 .672991 .462348
3 1 .848640 .052688 .451466
4 1 .241759 .007262 .487843
5 1 .006872 .578626 .584303
6 1 .535415 .451905 .982076
7 1 .497672 .469940 .006913
ITEM: TIMESTEP
400
ITEM: NUMBER OF ATOMS
7
ITEM: BOX BOUNDS ss ss ss
-3.2343 3.0852
-2.7103 3.3545
-2.0684 1.9147
ITEM: ATOMS id type xs ys zs
1 1 .466137 .990168 .530778
2 1 .987970 .670530 .460828
3 1 .845293 .057113 .451554
4 1 .243339 .010782 .494801
5 1 .006359 .585247 .584192
6 1 .533409 .452448 .991114
7 1 .490681 .474745 .015354
ITEM: TIMESTEP
1
ITEM: NUMBER OF ATOMS
7
ITEM: BOX BOUNDS ss ss ss
-3.2302 3.0542
-2.7135 3.3569
-2.0588 1.9002
ITEM: ATOMS id type xs ys zs
1 1 .468503 .990410 .533608
2 1 .998016 .670770 .458300
3 1 .850675 .052315 .447952
4 1 .244983 .007335 .497959
5 1 .002425 .581716 .586553
6 1 .533866 .450642 .987246
7 1 .502450 .473828 .008709
ITEM: TIMESTEP
50
ITEM: NUMBER OF ATOMS
7
ITEM: BOX BOUNDS ss ss ss
-3.2461 3.0709
-2.7135 3.3569
-2.0588 1.8982
ITEM: ATOMS id type xs ys zs
1 1 .469820 .990190 .534633
2 1 .995043 .671135 .459273
3 1 .850738 .051769 .444857
4 1 .247813 .006854 .496698
5 1 .003513 .581543 .589485
6 1 .532759 .451392 .986863
7 1 .500545 .474225 .010520
ITEM: TIMESTEP
100
ITEM: NUMBER OF ATOMS
7
ITEM: BOX BOUNDS ss ss ss
-3.2509 3.0753
-2.7135 3.3569
-2.0697 1.8982
ITEM: ATOMS id type xs ys zs
1 1 .470377 .992958 .536981
2 1 .993896 .671141 .458483
3 1 .850520 .054102 .452635
4 1 .246839 .007105 .500839
5 1 .002146 .584234 .582187
6 1 .534429 .451709 .988465
7 1 .499221 .474614 .013787
ITEM: TIMESTEP
150
ITEM: NUMBER OF ATOMS
7
ITEM: BOX BOUNDS ss ss ss
-3.2565 3.0855
-2.7135 3.3569
-2.0638 1.8982
ITEM: ATOMS id type xs ys zs
1 1 .466713 .991093 .532920
2 1 .991426 .668616 .462461
3 1 .848221 .050137 .454178
4 1 .241371 .010097 .495913
5 1 .009723 .582145 .587746
6 1 .531763 .449648 .985282
7 1 .500514 .472413 .010294
ITEM: TIMESTEP
200
ITEM: NUMBER OF ATOMS
7
ITEM: BOX BOUNDS ss ss ss
-3.2470 3.0844
-2.7094 3.3599
-2.0656 1.8982
ITEM: ATOMS id type xs ys zs
1 1 .467453 .988837 .526479
2 1 .996339 .667985 .464541
3 1 .844656 .049892 .451167
4 1 .248205 .008157 .496324
5 1 .006971 .577170 .584575
6 1 .532125 .449434 .989492
7 1 .498024 .472675 .012841
ITEM: TIMESTEP
250
ITEM: NUMBER OF ATOMS
7
ITEM: BOX BOUNDS ss ss ss
-3.2549 3.0888
-2.7124 3.3569
-2.0713 1.8982
ITEM: ATOMS id type xs ys zs
1 1 .471086 .991906 .534300
2 1 .990110 .672586 .453868
3 1 .852274 .056329 .457348
4 1 .248534 .010249 .491960
5 1 .010434 .582423 .588464
6 1 .532996 .447490 .986956
7 1 .498323 .471065 .018235
ITEM: TIMESTEP
300
ITEM: NUMBER OF ATOMS
7
ITEM: BOX BOUNDS ss ss ss
-3.2419 3.0791
-2.7187 3.3622
-2.0679 1.8982
ITEM: ATOMS id type xs ys zs
1 1 .468200 .993863 .535017
2 1 .993517 .675465 .464931
3 1 .849432 .055910 .450268
4 1 .247018 .007068 .488315
5 1 .006152 .579793 .591844
6 1 .534613 .449515 .981020
7 1 .500746 .472774 .012205
ITEM: TIMESTEP
350
ITEM: NUMBER OF ATOMS
7
ITEM: BOX BOUNDS ss ss ss
-3.2343 3.0803
-2.7217 3.3794
-2.0813 1.9014
ITEM: ATOMS id type xs ys zs
1 1 .467041 .991035 .534034
2 1 .993219 .669666 .461187
3 1 .847810 .059957 .447655
4 1 .243080 .008915 .485855
5 1 .007118 .581383 .593735
6 1 .534800 .450470 .983152
7 1 .496305 .472586 .013286
ITEM: TIMESTEP
400
ITEM: NUMBER OF ATOMS
7
ITEM: BOX BOUNDS ss ss ss
-3.2322 3.0818
-2.7287 3.3647
-2.0736 1.9024
ITEM: ATOMS id type xs ys zs
1 1 .469125 .993766 .524563
2 1 .995050 .672139 .457816
3 1 .854506 .056020 .461600
4 1 .245171 .008938 .491163
5 1 .008157 .581995 .582731
6 1 .537262 .452605 .985578
7 1 .498715 .472682 .016903
ITEM: TIMESTEP
1
ITEM: NUMBER OF ATOMS
7
ITEM: BOX BOUNDS ss ss ss
-3.2201 3.0595
-2.7286 3.3724
-2.0577 1.8982
ITEM: ATOMS id type xs ys zs
1 1 .467044 .988066 .533358
2 1 .997020 .669934 .458358
3 1 .849882 .054842 .448293
4 1 .243554 .009677 .498098
5 1 .001006 .581400 .586387
6 1 .532648 .451243 .987816
7 1 .501340 .474013 .008346
ITEM: TIMESTEP
50
ITEM: NUMBER OF ATOMS
7
ITEM: BOX BOUNDS ss ss ss
-3.2447 3.0757
-2.7286 3.3724
-2.0577 1.8982
ITEM: ATOMS id type xs ys zs
1 1 .467304 .988204 .534040
2 1 .995531 .670854 .456301
3 1 .848599 .055304 .450812
4 1 .244191 .010261 .500820
5 1 .006770 .581212 .583980
6 1 .534024 .451058 .986128
7 1 .502964 .474002 .005690
ITEM: TIMESTEP
100
ITEM: NUMBER OF ATOMS
7
ITEM: BOX BOUNDS ss ss ss
-3.2646 3.0828
-2.7265 3.3724
-2.0679 1.8982
ITEM: ATOMS id type xs ys zs
1 1 .468872 .986926 .530598
2 1 .992474 .671380 .455229
3 1 .848344 .058011 .450540
4 1 .247275 .010677 .501822
5 1 .007437 .581143 .586953
6 1 .535954 .449458 .985756
7 1 .504364 .474232 .011238
ITEM: TIMESTEP
150
ITEM: NUMBER OF ATOMS
7
ITEM: BOX BOUNDS ss ss ss
-3.2586 3.0849
-2.7265 3.3724
-2.0660 1.8982
ITEM: ATOMS id type xs ys zs
1 1 .468456 .985102 .528398
2 1 .993529 .670849 .465123
3 1 .845826 .053746 .451079
4 1 .246422 .010169 .497305
5 1 .006011 .579596 .591995
6 1 .534305 .450269 .982403
7 1 .502660 .473225 .005959
ITEM: TIMESTEP
200
ITEM: NUMBER OF ATOMS
7
ITEM: BOX BOUNDS ss ss ss
-3.2548 3.0856
-2.7165 3.3543
-2.0720 1.8982
ITEM: ATOMS id type xs ys zs
1 1 .471682 .992254 .541962
2 1 .995446 .675105 .465596
3 1 .848405 .053614 .445470
4 1 .246534 .010775 .499683
5 1 .005301 .582887 .592518
6 1 .537339 .449687 .991446
7 1 .499998 .477106 .016241
ITEM: TIMESTEP
250
ITEM: NUMBER OF ATOMS
7
ITEM: BOX BOUNDS ss ss ss
-3.2535 3.0966
-2.7067 3.3543
-2.0655 1.8982
ITEM: ATOMS id type xs ys zs
1 1 .468447 .987690 .546954
2 1 .993799 .667088 .462236
3 1 .849220 .052806 .448923
4 1 .248190 .006790 .495734
5 1 .010033 .580009 .582875
6 1 .534338 .447051 .990480
7 1 .499509 .475883 .012466
ITEM: TIMESTEP
300
ITEM: NUMBER OF ATOMS
7
ITEM: BOX BOUNDS ss ss ss
-3.2454 3.0937
-2.7075 3.3537
-2.0639 1.9002
ITEM: ATOMS id type xs ys zs
1 1 .467389 .988211 .547027
2 1 .996024 .667915 .460186
3 1 .849959 .055058 .450527
4 1 .245971 .007446 .494923
5 1 .009196 .580678 .585155
6 1 .532919 .447495 .990254
7 1 .499334 .474640 .011894
ITEM: TIMESTEP
350
ITEM: NUMBER OF ATOMS
7
ITEM: BOX BOUNDS ss ss ss
-3.2397 3.0828
-2.7069 3.3531
-2.0650 1.9000
ITEM: ATOMS id type xs ys zs
1 1 .473007 .994123 .537873
2 1 .992484 .664409 .467858
3 1 .850980 .056459 .447661
4 1 .242617 .007247 .492764
5 1 .006099 .581434 .585095
6 1 .533523 .449457 .984360
7 1 .495610 .474428 .015150
ITEM: TIMESTEP
400
ITEM: NUMBER OF ATOMS
7
ITEM: BOX BOUNDS ss ss ss
-3.2336 3.0869
-2.7073 3.3630
-2.0573 1.9073
ITEM: ATOMS id type xs ys zs
1 1 .464765 .993868 .529946
2 1 .992698 .665419 .460962
3 1 .849837 .050595 .446805
4 1 .242686 .008313 .488155
5 1 .010461 .580179 .574449
6 1 .536290 .450735 .984726
7 1 .497098 .475123 .009698
ITEM: TIMESTEP
1
ITEM: NUMBER OF ATOMS
7
ITEM: BOX BOUNDS ss ss ss
-3.2267 3.0778
-2.7138 3.3659
-2.0621 1.8962
ITEM: ATOMS id type xs ys zs
1 1 .466204 .989421 .534907
2 1 .994171 .669390 .458772
3 1 .847848 .052598 .448358
4 1 .243580 .007299 .498648
5 1 .001915 .581039 .587388
6 1 .531287 .450272 .988956
7 1 .500474 .473362 .009248
ITEM: TIMESTEP
50
ITEM: NUMBER OF ATOMS
7
ITEM: BOX BOUNDS ss ss ss
-3.2458 3.0778
-2.7138 3.3659
-2.0621 1.8962
ITEM: ATOMS id type xs ys zs
1 1 .468254 .989411 .536047
2 1 .993937 .670853 .458931
3 1 .848477 .051159 .447525
4 1 .245924 .009287 .500585
5 1 .005663 .582397 .589162
6 1 .532898 .451560 .990559
7 1 .505110 .472116 .008154
ITEM: TIMESTEP
100
ITEM: NUMBER OF ATOMS
7
ITEM: BOX BOUNDS ss ss ss
-3.2584 3.0804
-2.7138 3.3659
-2.0653 1.8962
ITEM: ATOMS id type xs ys zs
1 1 .467421 .989456 .534791
2 1 .994442 .668787 .455186
3 1 .849107 .054007 .448775
4 1 .245973 .009166 .501921
5 1 .006990 .580946 .588667
6 1 .535233 .451992 .987962
7 1 .502906 .472191 .013126
ITEM: TIMESTEP
150
ITEM: NUMBER OF ATOMS
7
ITEM: BOX BOUNDS ss ss ss
-3.2638 3.0900
-2.7138 3.3659
-2.0660 1.8962
ITEM: ATOMS id type xs ys zs
1 1 .469005 .992421 .534482
2 1 .995852 .668382 .453387
3 1 .848387 .053483 .449605
4 1 .247412 .007689 .494122
5 1 .005858 .579868 .591103
6 1 .535585 .450231 .985371
7 1 .499991 .475826 .011158
ITEM: TIMESTEP
200
ITEM: NUMBER OF ATOMS
7
ITEM: BOX BOUNDS ss ss ss
-3.2580 3.0872
-2.7160 3.3659
-2.0664 1.8966
ITEM: ATOMS id type xs ys zs
1 1 .468316 .985700 .532899
2 1 .990035 .666480 .456647
3 1 .845238 .053285 .455218
4 1 .243789 .011161 .492836
5 1 .007093 .581231 .592700
6 1 .536067 .452163 .987064
7 1 .500064 .469447 .007548
ITEM: TIMESTEP
250
ITEM: NUMBER OF ATOMS
7
ITEM: BOX BOUNDS ss ss ss
-3.2632 3.0890
-2.7138 3.3659
-2.0621 1.8999
ITEM: ATOMS id type xs ys zs
1 1 .471606 .992416 .531760
2 1 .994925 .670909 .456393
3 1 .849135 .054131 .450153
4 1 .247698 .008514 .497616
5 1 .011773 .582423 .587426
6 1 .533666 .451404 .984043
7 1 .497067 .471479 .014237
ITEM: TIMESTEP
300
ITEM: NUMBER OF ATOMS
7
ITEM: BOX BOUNDS ss ss ss
-3.2522 3.0884
-2.7168 3.3635
-2.0721 1.9178
ITEM: ATOMS id type xs ys zs
1 1 .468597 .988021 .525823
2 1 .990589 .666968 .462499
3 1 .847035 .057124 .454605
4 1 .245953 .008914 .493860
5 1 .007750 .581421 .587262
6 1 .535086 .449510 .990309
7 1 .497372 .470119 .008699
ITEM: TIMESTEP
350
ITEM: NUMBER OF ATOMS
7
ITEM: BOX BOUNDS ss ss ss
-3.2487 3.0987
-2.7214 3.3644
-2.0748 1.9078
ITEM: ATOMS id type xs ys zs
1 1 .467104 .987439 .528649
2 1 .990482 .667634 .463971
3 1 .844145 .057815 .455803
4 1 .243972 .010618 .497325
5 1 .007951 .582632 .590506
6 1 .533474 .448451 .994624
7 1 .494418 .471194 .005597
ITEM: TIMESTEP
400
ITEM: NUMBER OF ATOMS
7
ITEM: BOX BOUNDS ss ss ss
-3.2493 3.1022
-2.7186 3.3602
-2.0719 1.9189
ITEM: ATOMS id type xs ys zs
1 1 .462420 .987365 .529022
2 1 .987439 .666655 .460609
3 1 .845779 .056179 .448845
4 1 .246876 .006628 .489639
5 1 .009557 .583551 .582889
6 1 .536131 .448548 .993071
7 1 .492314 .476449 .013009
ITEM: TIMESTEP
1
ITEM: NUMBER OF ATOMS
7
ITEM: BOX BOUNDS ss ss ss
-3.2336 3.0871
-2.7194 3.3581
-2.0662 1.9087
ITEM: ATOMS id type xs ys zs
1 1 .466349 .990090 .533287
2 1 .992474 .670848 .458041
3 1 .846684 .053496 .448583
4 1 .244091 .008353 .497910
5 1 .002726 .581617 .585535
6 1 .531239 .451711 .985221
7 1 .500165 .474811 .009963
ITEM: TIMESTEP
50
ITEM: NUMBER OF ATOMS
7
ITEM: BOX BOUNDS ss ss ss
-3.2545 3.0871
-2.7194 3.3581
-2.0662 1.9087
ITEM: ATOMS id type xs ys zs
1 1 .469570 .988854 .537928
2 1 .992379 .671682 .455046
3 1 .846131 .054600 .450441
4 1 .248077 .007777 .499407
5 1 .005572 .581515 .586499
6 1 .532425 .451433 .985552
7 1 .502344 .476524 .010668
ITEM: TIMESTEP
100
ITEM: NUMBER OF ATOMS
7
ITEM: BOX BOUNDS ss ss ss
-3.2599 3.0871
-2.7194 3.3581
-2.0680 1.9087
ITEM: ATOMS id type xs ys zs
1 1 .466687 .989647 .530452
2 1 .992859 .668861 .458605
3 1 .848242 .056164 .446570
4 1 .247900 .009438 .496650
5 1 .004735 .580313 .586225
6 1 .534887 .451017 .981868
7 1 .504924 .475569 .010216
ITEM: TIMESTEP
150
ITEM: NUMBER OF ATOMS
7
ITEM: BOX BOUNDS ss ss ss
-3.2610 3.0871
-2.7194 3.3581
-2.0724 1.9087
ITEM: ATOMS id type xs ys zs
1 1 .469443 .988351 .536984
2 1 .994286 .665389 .464163
3 1 .849481 .054910 .450041
4 1 .247650 .010159 .496780
5 1 .007340 .583339 .585981
6 1 .533795 .453642 .980955
7 1 .507236 .474377 .008802
ITEM: TIMESTEP
200
ITEM: NUMBER OF ATOMS
7
ITEM: BOX BOUNDS ss ss ss
-3.2542 3.0871
-2.7138 3.3581
-2.0662 1.9064
ITEM: ATOMS id type xs ys zs
1 1 .467359 .987194 .533556
2 1 .993053 .670054 .463838
3 1 .847556 .050916 .449954
4 1 .246635 .009146 .496033
5 1 .004235 .582664 .584173
6 1 .532431 .446105 .988986
7 1 .502549 .471071 .007832
ITEM: TIMESTEP
250
ITEM: NUMBER OF ATOMS
7
ITEM: BOX BOUNDS ss ss ss
-3.2483 3.0932
-2.7138 3.3581
-2.0730 1.9064
ITEM: ATOMS id type xs ys zs
1 1 .465869 .989182 .527424
2 1 .993025 .670675 .462028
3 1 .849644 .054842 .440790
4 1 .244517 .010895 .493358
5 1 .008461 .578803 .586172
6 1 .534839 .450788 .979778
7 1 .496246 .473841 .011539
ITEM: TIMESTEP
300
ITEM: NUMBER OF ATOMS
7
ITEM: BOX BOUNDS ss ss ss
-3.2461 3.0906
-2.7138 3.3581
-2.0667 1.8980
ITEM: ATOMS id type xs ys zs
1 1 .468494 .989720 .531374
2 1 .992478 .666655 .462074
3 1 .845561 .052835 .450403
4 1 .243776 .008447 .493337
5 1 .011126 .586741 .590415
6 1 .533543 .449040 .991844
7 1 .494639 .471491 .009713
ITEM: TIMESTEP
350
ITEM: NUMBER OF ATOMS
7
ITEM: BOX BOUNDS ss ss ss
-3.2357 3.0823
-2.7138 3.3581
-2.0742 1.8973
ITEM: ATOMS id type xs ys zs
1 1 .465244 .991481 .532306
2 1 .991122 .667894 .464175
3 1 .846236 .053818 .453400
4 1 .240038 .008478 .490844
5 1 .007023 .581472 .593255
6 1 .531399 .449068 .985630
7 1 .495658 .475787 .009192
ITEM: TIMESTEP
400
ITEM: NUMBER OF ATOMS
7
ITEM: BOX BOUNDS ss ss ss
-3.2328 3.0841
-2.7138 3.3581
-2.0750 1.8962
ITEM: ATOMS id type xs ys zs
1 1 .468534 .992736 .532013
2 1 .991446 .669664 .469091
3 1 .846333 .052083 .449363
4 1 .241587 .008393 .494797
5 1 .006917 .585376 .585697
6 1 .532154 .448955 .988567
7 1 .496507 .476134 .010985
ITEM: TIMESTEP
1
ITEM: NUMBER OF ATOMS
7
ITEM: BOX BOUNDS ss ss ss
-3.2214 3.0749
-2.7103 3.3565
-2.0673 1.8929
ITEM: ATOMS id type xs ys zs
1 1 .465999 .990950 .535236
2 1 .994574 .670672 .460271
3 1 .848115 .052015 .449717
4 1 .243109 .006690 .499629
5 1 .001202 .581342 .588050
6 1 .531453 .450662 .989079
7 1 .500214 .473645 .010260
ITEM: TIMESTEP
50
ITEM: NUMBER OF ATOMS
7
ITEM: BOX BOUNDS ss ss ss
-3.2487 3.0749
-2.7103 3.3565
-2.0673 1.8929
ITEM: ATOMS id type xs ys zs
1 1 .469881 .991950 .536488
2 1 .995791 .669115 .461273
3 1 .849270 .051478 .452060
4 1 .245829 .007437 .499284
5 1 .004821 .582159 .587922
6 1 .532743 .451091 .987824
7 1 .502793 .472635 .010920
ITEM: TIMESTEP
100
ITEM: NUMBER OF ATOMS
7
ITEM: BOX BOUNDS ss ss ss
-3.2593 3.0843
-2.7087 3.3565
-2.0684 1.8929
ITEM: ATOMS id type xs ys zs
1 1 .468548 .993283 .536428
2 1 .992550 .667998 .460305
3 1 .848100 .052630 .449732
4 1 .245204 .006400 .497981
5 1 .006359 .580845 .588554
6 1 .530201 .450453 .985925
7 1 .502247 .472164 .011134
ITEM: TIMESTEP
150
ITEM: NUMBER OF ATOMS
7
ITEM: BOX BOUNDS ss ss ss
-3.2600 3.0940
-2.7087 3.3565
-2.0713 1.9036
ITEM: ATOMS id type xs ys zs
1 1 .465017 .990218 .539329
2 1 .994885 .668985 .461696
3 1 .848490 .054775 .454803
4 1 .246607 .008248 .497704
5 1 .006363 .581105 .584259
6 1 .533815 .450980 .985212
7 1 .504172 .474464 .012627
ITEM: TIMESTEP
200
ITEM: NUMBER OF ATOMS
7
ITEM: BOX BOUNDS ss ss ss
-3.2593 3.1152
-2.7088 3.3565
-2.0727 1.9157
ITEM: ATOMS id type xs ys zs
1 1 .465506 .990799 .535138
2 1 .989415 .670345 .456217
3 1 .840299 .050560 .450414
4 1 .244104 .006377 .494136
5 1 .009225 .577862 .592421
6 1 .532393 .451415 .985734
7 1 .499207 .475829 .015036
ITEM: TIMESTEP
250
ITEM: NUMBER OF ATOMS
7
ITEM: BOX BOUNDS ss ss ss
-3.2581 3.0968
-2.7087 3.3530
-2.0715 1.9231
ITEM: ATOMS id type xs ys zs
1 1 .468919 .993246 .534253
2 1 .987066 .667378 .460829
3 1 .838606 .052300 .451580
4 1 .245158 .009952 .498636
5 1 .011613 .579007 .584548
6 1 .534407 .451090 .994133
7 1 .499020 .473863 .008691
ITEM: TIMESTEP
300
ITEM: NUMBER OF ATOMS
7
ITEM: BOX BOUNDS ss ss ss
-3.2535 3.0813
-2.7087 3.3530
-2.0792 1.9158
ITEM: ATOMS id type xs ys zs
1 1 .461825 .993115 .536351
2 1 .990270 .667397 .457509
3 1 .845187 .053515 .454533
4 1 .246567 .007900 .494615
5 1 .005188 .579510 .584323
6 1 .534722 .453782 .988675
7 1 .498971 .475658 .013900
ITEM: TIMESTEP
350
ITEM: NUMBER OF ATOMS
7
ITEM: BOX BOUNDS ss ss ss
-3.2543 3.0810
-2.7087 3.3530
-2.0630 1.9146
ITEM: ATOMS id type xs ys zs
1 1 .461941 .993172 .535054
2 1 .989406 .667200 .453366
3 1 .846682 .053362 .448594
4 1 .243864 .007260 .490080
5 1 .004231 .579274 .582930
6 1 .533285 .451287 .986902
7 1 .499708 .473868 .011405
ITEM: TIMESTEP
400
ITEM: NUMBER OF ATOMS
7
ITEM: BOX BOUNDS ss ss ss
-3.2598 3.0774
-2.7087 3.3574
-2.0620 1.9163
ITEM: ATOMS id type xs ys zs
1 1 .462234 .992424 .529767
2 1 .990238 .669156 .457687
3 1 .845523 .053296 .454713
4 1 .246743 .005898 .491141
5 1 .008618 .577610 .579665
6 1 .534693 .451791 .991291
7 1 .500291 .472943 .014047
ITEM: TIMESTEP
1
ITEM: NUMBER OF ATOMS
7
ITEM: BOX BOUNDS ss ss ss
-3.2491 3.0687
-2.7107 3.3527
-2.0604 1.9225
ITEM: ATOMS id type xs ys zs
1 1 .469332 .991393 .530677
2 1 .995461 .670860 .455712
3 1 .849521 .052063 .445711
4 1 .246836 .007009 .495274
5 1 .005484 .581963 .582807
6 1 .534146 .450929 .981554
7 1 .502924 .473967 .008797
ITEM: TIMESTEP
50
ITEM: NUMBER OF ATOMS
7
ITEM: BOX BOUNDS ss ss ss
-3.2491 3.0733
-2.7107 3.3527
-2.0604 1.9225
ITEM: ATOMS id type xs ys zs
1 1 .467329 .992397 .531353
2 1 .994661 .670721 .457645
3 1 .850251 .052596 .443678
4 1 .247253 .007632 .495567
5 1 .003061 .584563 .587940
6 1 .533245 .451735 .981509
7 1 .503488 .474098 .005254
ITEM: TIMESTEP
100
ITEM: NUMBER OF ATOMS
7
ITEM: BOX BOUNDS ss ss ss
-3.2587 3.0852
-2.7087 3.3527
-2.0631 1.9225
ITEM: ATOMS id type xs ys zs
1 1 .469048 .989602 .529588
2 1 .994587 .673598 .457082
3 1 .847909 .050424 .445189
4 1 .248415 .006990 .493449
5 1 .008412 .581240 .586844
6 1 .532198 .449141 .977583
7 1 .504353 .475609 .007687
ITEM: TIMESTEP
150
ITEM: NUMBER OF ATOMS
7
ITEM: BOX BOUNDS ss ss ss
-3.2673 3.0886
-2.7095 3.3527
-2.0664 1.9215
ITEM: ATOMS id type xs ys zs
1 1 .469996 .993528 .529294
2 1 .988235 .671598 .459694
3 1 .850041 .052660 .447254
4 1 .248914 .007781 .495748
5 1 .008051 .580103 .583464
6 1 .535073 .449576 .979844
7 1 .503036 .473498 .011638
ITEM: TIMESTEP
200
ITEM: NUMBER OF ATOMS
7
ITEM: BOX BOUNDS ss ss ss
-3.2640 3.0983
-2.7087 3.3509
-2.0673 1.9215
ITEM: ATOMS id type xs ys zs
1 1 .463494 .993769 .525999
2 1 .991312 .669286 .455126
3 1 .845038 .050485 .447495
4 1 .248650 .010720 .492677
5 1 .007056 .583028 .586187
6 1 .533047 .454155 .980687
7 1 .494605 .477236 .013868
ITEM: TIMESTEP
250
ITEM: NUMBER OF ATOMS
7
ITEM: BOX BOUNDS ss ss ss
-3.2700 3.1015
-2.7102 3.3509
-2.0693 1.9215
ITEM: ATOMS id type xs ys zs
1 1 .465450 .990798 .532934
2 1 .988337 .667274 .459186
3 1 .855366 .050861 .446156
4 1 .246182 .006229 .500465
5 1 .005522 .581271 .580696
6 1 .533377 .451167 .978728
7 1 .499390 .470848 .017476
ITEM: TIMESTEP
300
ITEM: NUMBER OF ATOMS
7
ITEM: BOX BOUNDS ss ss ss
-3.2712 3.1057
-2.7087 3.3591
-2.0760 1.9176
ITEM: ATOMS id type xs ys zs
1 1 .469376 .994265 .532270
2 1 .988609 .669256 .456352
3 1 .846665 .050837 .448180
4 1 .245998 .012647 .495238
5 1 .008949 .580211 .593029
6 1 .535579 .454585 .979616
7 1 .501108 .470891 .014796
ITEM: TIMESTEP
350
ITEM: NUMBER OF ATOMS
7
ITEM: BOX BOUNDS ss ss ss
-3.2592 3.1049
-2.7087 3.3640
-2.0643 1.9176
ITEM: ATOMS id type xs ys zs
1 1 .465971 .988709 .522839
2 1 .996521 .663464 .457717
3 1 .844412 .056056 .446846
4 1 .246934 .007777 .484414
5 1 .003780 .580849 .585941
6 1 .533068 .455513 .977725
7 1 .494395 .474964 .006429
ITEM: TIMESTEP
400
ITEM: NUMBER OF ATOMS
7
ITEM: BOX BOUNDS ss ss ss
-3.2541 3.1013
-2.7087 3.3662
-2.0641 1.9135
ITEM: ATOMS id type xs ys zs
1 1 .465833 .992254 .518893
2 1 .990234 .663881 .463921
3 1 .846091 .051634 .453657
4 1 .249255 .006094 .488074
5 1 .005727 .582700 .586248
6 1 .532215 .453566 .984701
7 1 .496768 .475681 .013819
ITEM: TIMESTEP
1
ITEM: NUMBER OF ATOMS
7
ITEM: BOX BOUNDS ss ss ss
-3.2489 3.0859
-2.7087 3.3726
-2.0629 1.8910
ITEM: ATOMS id type xs ys zs
1 1 .467782 .988205 .535244
2 1 .992470 .668582 .459484
3 1 .846927 .051840 .449278
4 1 .246038 .006712 .500069
5 1 .005389 .579892 .588514
6 1 .532320 .449216 .989630
7 1 .501194 .472247 .009362
ITEM: TIMESTEP
50
ITEM: NUMBER OF ATOMS
7
ITEM: BOX BOUNDS ss ss ss
-3.2489 3.0859
-2.7087 3.3726
-2.0629 1.8910
ITEM: ATOMS id type xs ys zs
1 1 .467584 .988062 .535323
2 1 .994526 .667523 .459663
3 1 .847419 .052055 .447956
4 1 .244693 .007882 .499109
5 1 .004185 .579048 .589589
6 1 .531758 .448850 .989511
7 1 .502992 .473261 .009291
ITEM: TIMESTEP
100
ITEM: NUMBER OF ATOMS
7
ITEM: BOX BOUNDS ss ss ss
-3.2594 3.0865
-2.7087 3.3726
-2.0665 1.8910
ITEM: ATOMS id type xs ys zs
1 1 .469242 .986086 .538480
2 1 .995460 .667510 .459236
3 1 .851350 .053927 .451822
4 1 .247848 .006703 .499489
5 1 .005965 .578944 .590893
6 1 .534995 .450651 .987071
7 1 .500870 .471126 .007569
ITEM: TIMESTEP
150
ITEM: NUMBER OF ATOMS
7
ITEM: BOX BOUNDS ss ss ss
-3.2622 3.0878
-2.7087 3.3669
-2.0712 1.8910
ITEM: ATOMS id type xs ys zs
1 1 .465526 .988112 .535930
2 1 .997289 .671547 .466693
3 1 .846093 .054638 .457972
4 1 .244363 .006395 .500753
5 1 .007300 .583973 .594355
6 1 .536281 .450110 .990907
7 1 .503184 .474077 .017724
ITEM: TIMESTEP
200
ITEM: NUMBER OF ATOMS
7
ITEM: BOX BOUNDS ss ss ss
-3.2740 3.1014
-2.7087 3.3669
-2.0719 1.8910
ITEM: ATOMS id type xs ys zs
1 1 .468752 .990713 .533780
2 1 .988042 .670024 .466366
3 1 .844819 .051417 .454049
4 1 .244987 .008939 .499130
5 1 .007757 .581047 .586864
6 1 .534318 .452059 .983739
7 1 .501517 .472654 .014925
ITEM: TIMESTEP
250
ITEM: NUMBER OF ATOMS
7
ITEM: BOX BOUNDS ss ss ss
-3.2678 3.1005
-2.7087 3.3669
-2.0786 1.8989
ITEM: ATOMS id type xs ys zs
1 1 .470801 .992101 .529422
2 1 .988403 .669965 .467411
3 1 .842161 .049292 .455667
4 1 .243108 .008515 .497100
5 1 .005457 .579647 .590759
6 1 .533122 .452114 .979484
7 1 .502239 .472518 .013737
ITEM: TIMESTEP
300
ITEM: NUMBER OF ATOMS
7
ITEM: BOX BOUNDS ss ss ss
-3.2673 3.0989
-2.7087 3.3669
-2.0810 1.8993
ITEM: ATOMS id type xs ys zs
1 1 .465942 .987761 .529174
2 1 .988876 .668798 .461860
3 1 .847543 .051809 .447172
4 1 .248436 .008011 .502148
5 1 .010981 .576295 .593166
6 1 .535175 .445624 .981352
7 1 .500111 .471416 .011566
ITEM: TIMESTEP
350
ITEM: NUMBER OF ATOMS
7
ITEM: BOX BOUNDS ss ss ss
-3.2666 3.0869
-2.7106 3.3669
-2.0803 1.9082
ITEM: ATOMS id type xs ys zs
1 1 .466845 .985015 .526522