ITEM: TIMESTEP
1
ITEM: NUMBER OF ATOMS
7
ITEM: BOX BOUNDS ss ss ss
-3.2184 3.0436
-2.6744 3.3033
-2.0296 1.8544
ITEM: ATOMS id type xs ys zs
1 1 .468288 .999414 .536407
2 1 .999413 .674447 .459445
3 1 .852062 .046809 .449119
4 1 .244038 .000832 .500084
5 1 .000561 .584235 .590180
6 1 .533857 .451354 .998968
7 1 .502498 .474748 .001061
ITEM: TIMESTEP
50
ITEM: NUMBER OF ATOMS
7
ITEM: BOX BOUNDS ss ss ss
-3.2430 3.0661
-2.6984 3.3250
-2.0520 1.8759
ITEM: ATOMS id type xs ys zs
1 1 .468596 .995705 .535984
2 1 .996018 .673279 .460058
3 1 .849613 .050453 .449974
4 1 .246067 .005072 .500040
5 1 .004304 .583685 .589637
6 1 .533863 .451873 .993228
7 1 .502771 .475085 .006760
ITEM: TIMESTEP
100
ITEM: NUMBER OF ATOMS
7
ITEM: BOX BOUNDS ss ss ss
-3.2496 3.0765
-2.7040 3.3322
-2.0583 1.8925
ITEM: ATOMS id type xs ys zs
1 1 .468357 .994567 .534166
2 1 .994207 .672359 .459920
3 1 .848591 .051468 .449649
4 1 .246122 .006626 .497992
5 1 .006001 .583361 .587345
6 1 .534314 .451688 .989156
7 1 .501489 .474894 .008900
ITEM: TIMESTEP
150
ITEM: NUMBER OF ATOMS
7
ITEM: BOX BOUNDS ss ss ss
-3.2476 3.0763
-2.7027 3.3364
-2.0629 1.8931
ITEM: ATOMS id type xs ys zs
1 1 .468577 .994833 .535350
2 1 .993960 .671341 .462393
3 1 .847936 .051546 .450217
4 1 .245454 .006682 .497167
5 1 .007734 .584194 .584981
6 1 .535436 .451341 .989083
7 1 .499738 .474670 .010260
ITEM: TIMESTEP
200
ITEM: NUMBER OF ATOMS
7
ITEM: BOX BOUNDS ss ss ss
-3.2493 3.0764
-2.7005 3.3515
-2.0593 1.8885
ITEM: ATOMS id type xs ys zs
1 1 .468753 .993067 .535126
2 1 .993808 .669148 .463004
3 1 .847594 .051261 .449777
4 1 .245234 .006397 .497075
5 1 .009288 .582995 .582937
6 1 .536246 .450274 .990407
7 1 .499020 .473685 .010199
ITEM: TIMESTEP
250
ITEM: NUMBER OF ATOMS
7
ITEM: BOX BOUNDS ss ss ss
-3.2303 3.0756
-2.7081 3.3520
-2.0623 1.8971
ITEM: ATOMS id type xs ys zs
1 1 .467195 .993395 .533768
2 1 .993429 .669011 .463204
3 1 .847524 .052441 .449265
4 1 .242947 .007802 .496150
5 1 .007063 .583524 .580796
6 1 .535419 .451010 .989098
7 1 .496832 .474513 .011686
ITEM: TIMESTEP
300
ITEM: NUMBER OF ATOMS
7
ITEM: BOX BOUNDS ss ss ss
-3.2287 3.0764
-2.7088 3.3573
-2.0588 1.9016
ITEM: ATOMS id type xs ys zs
1 1 .467104 .993207 .532326
2 1 .992649 .668014 .463174
3 1 .847739 .052452 .448201
4 1 .242763 .007956 .495248
5 1 .007528 .583286 .578763
6 1 .535354 .450706 .988714
7 1 .495977 .474269 .011419
ITEM: TIMESTEP
350
ITEM: NUMBER OF ATOMS
7
ITEM: BOX BOUNDS ss ss ss
-3.2219 3.0755
-2.7125 3.3623
-2.0612 1.9065
ITEM: ATOMS id type xs ys zs
1 1 .466803 .992924 .531402
2 1 .992029 .667538 .463443
3 1 .847847 .053111 .447832
4 1 .242087 .008332 .495384
5 1 .007068 .583078 .577523
6 1 .534897 .450628 .988248
7 1 .494937 .474272 .012373
ITEM: TIMESTEP
400
ITEM: NUMBER OF ATOMS
7
ITEM: BOX BOUNDS ss ss ss
-3.2185 3.0777
-2.7114 3.3700
-2.0626 1.9151
ITEM: ATOMS id type xs ys zs
1 1 .466700 .992114 .529846
2 1 .991151 .666650 .463055
3 1 .847553 .053058 .447009
4 1 .241790 .007761 .495035
5 1 .007198 .582308 .575805
6 1 .534486 .449836 .986875
7 1 .494169 .473625 .013002
ITEM: TIMESTEP
1
ITEM: NUMBER OF ATOMS
7
ITEM: BOX BOUNDS ss ss ss
-3.2187 3.0673
-2.7154 3.3627
-2.0613 1.9136
ITEM: ATOMS id type xs ys zs
1 1 .466542 .989643 .532115
2 1 .995634 .670050 .456908
3 1 .848844 .052787 .446822
4 1 .243152 .007573 .496627
5 1 .000603 .581328 .584662
6 1 .531858 .450644 .984104
7 1 .500623 .473657 .009007
ITEM: TIMESTEP
50
ITEM: NUMBER OF ATOMS
7
ITEM: BOX BOUNDS ss ss ss
-3.2417 3.0681
-2.7059 3.3627
-2.0613 1.9136
ITEM: ATOMS id type xs ys zs
1 1 .468306 .989479 .532014
2 1 .995763 .669508 .456902
3 1 .849275 .051249 .447019
4 1 .245850 .006257 .496443
5 1 .003989 .580613 .585164
6 1 .533509 .449789 .983721
7 1 .502594 .472758 .008944
ITEM: TIMESTEP
100
ITEM: NUMBER OF ATOMS
7
ITEM: BOX BOUNDS ss ss ss
-3.2507 3.0791
-2.7059 3.3627
-2.0613 1.9136
ITEM: ATOMS id type xs ys zs
1 1 .467962 .989479 .531703
2 1 .994047 .669046 .457908
3 1 .848291 .051448 .447379
4 1 .246171 .006758 .495782
5 1 .005905 .580489 .584773
6 1 .534119 .449694 .983502
7 1 .501521 .472433 .009450
ITEM: TIMESTEP
150
ITEM: NUMBER OF ATOMS
7
ITEM: BOX BOUNDS ss ss ss
-3.2520 3.0803
-2.7067 3.3627
-2.0741 1.9136
ITEM: ATOMS id type xs ys zs
1 1 .467535 .989478 .532933
2 1 .993686 .668304 .460846
3 1 .848327 .051989 .448833
4 1 .245938 .007102 .496953
5 1 .006726 .580947 .585068
6 1 .534891 .449711 .984274
7 1 .500149 .472303 .014156
ITEM: TIMESTEP
200
ITEM: NUMBER OF ATOMS
7
ITEM: BOX BOUNDS ss ss ss
-3.2586 3.0819
-2.7094 3.3627
-2.0613 1.9136
ITEM: ATOMS id type xs ys zs
1 1 .467837 .989731 .531242
2 1 .993256 .667491 .459635
3 1 .848396 .052644 .447014
4 1 .246654 .007563 .494926
5 1 .008622 .581366 .583495
6 1 .535825 .449997 .985260
7 1 .499293 .472644 .011688
ITEM: TIMESTEP
250
ITEM: NUMBER OF ATOMS
7
ITEM: BOX BOUNDS ss ss ss
-3.2512 3.0806
-2.7254 3.3610
-2.0613 1.9136
ITEM: ATOMS id type xs ys zs
1 1 .467045 .990226 .530493
2 1 .992916 .668024 .459711
3 1 .848764 .055662 .446590
4 1 .246102 .009972 .494631
5 1 .008358 .582611 .583827
6 1 .536079 .451609 .985717
7 1 .497369 .474035 .011797
ITEM: TIMESTEP
300
ITEM: NUMBER OF ATOMS
7
ITEM: BOX BOUNDS ss ss ss
-3.2426 3.0780
-2.7236 3.3650
-2.0628 1.9136
ITEM: ATOMS id type xs ys zs
1 1 .466407 .989773 .529999
2 1 .992686 .667114 .459251
3 1 .849146 .055429 .446081
4 1 .245302 .009716 .494366
5 1 .007764 .582273 .584286
6 1 .536334 .450945 .985688
7 1 .495666 .473720 .011793
ITEM: TIMESTEP
350
ITEM: NUMBER OF ATOMS
7
ITEM: BOX BOUNDS ss ss ss
-3.2463 3.0734
-2.7255 3.3510
-2.0710 1.9105
ITEM: ATOMS id type xs ys zs
1 1 .467363 .992387 .530797
2 1 .992845 .668578 .459983
3 1 .850033 .055734 .447239
4 1 .246109 .009719 .495139
5 1 .008955 .583632 .585138
6 1 .537356 .451800 .986331
7 1 .495668 .475108 .013849
ITEM: TIMESTEP
400
ITEM: NUMBER OF ATOMS
7
ITEM: BOX BOUNDS ss ss ss
-3.2372 3.0717
-2.7248 3.3615
-2.0665 1.9053
ITEM: ATOMS id type xs ys zs
1 1 .467023 .990843 .530010
2 1 .992620 .667462 .460007
3 1 .850211 .055435 .447141
4 1 .245096 .008863 .494966
5 1 .008058 .582092 .583910
6 1 .536749 .450703 .987653
7 1 .494866 .473923 .012898
ITEM: TIMESTEP
1
ITEM: NUMBER OF ATOMS
7
ITEM: BOX BOUNDS ss ss ss
-3.2337 3.0698
-2.7255 3.3538
-2.0600 1.9053
ITEM: ATOMS id type xs ys zs
1 1 .467625 .991103 .533071
2 1 .995253 .671576 .457686
3 1 .848869 .054439 .447578
4 1 .244861 .009235 .497496
5 1 .002980 .582870 .585744
6 1 .532764 .452219 .986152
7 1 .501617 .475222 .008699
ITEM: TIMESTEP
50
ITEM: NUMBER OF ATOMS
7
ITEM: BOX BOUNDS ss ss ss
-3.2458 3.0698
-2.7255 3.3538
-2.0600 1.9053
ITEM: ATOMS id type xs ys zs
1 1 .468491 .990940 .532997
2 1 .995561 .671624 .457593
3 1 .849160 .054385 .447782
4 1 .246288 .009481 .497312
5 1 .004447 .582834 .586400
6 1 .533622 .452211 .985781
7 1 .502967 .475160 .008587
ITEM: TIMESTEP
100
ITEM: NUMBER OF ATOMS
7
ITEM: BOX BOUNDS ss ss ss
-3.2502 3.0815
-2.7255 3.3511
-2.0655 1.9053
ITEM: ATOMS id type xs ys zs
1 1 .467719 .991440 .533066
2 1 .993641 .671595 .458842
3 1 .847933 .054603 .449045
4 1 .245992 .010065 .497364
5 1 .005455 .583072 .586774
6 1 .533561 .452314 .985513
7 1 .501740 .475110 .010192
ITEM: TIMESTEP
150
ITEM: NUMBER OF ATOMS
7
ITEM: BOX BOUNDS ss ss ss
-3.2517 3.0824
-2.7255 3.3511
-2.0708 1.8968
ITEM: ATOMS id type xs ys zs
1 1 .466963 .991166 .532386
2 1 .992753 .670858 .462893
3 1 .847863 .054497 .451869
4 1 .245321 .010469 .498467
5 1 .006609 .583038 .587617
6 1 .534557 .452385 .987312
7 1 .501021 .474384 .011959
ITEM: TIMESTEP
200
ITEM: NUMBER OF ATOMS
7
ITEM: BOX BOUNDS ss ss ss
-3.2485 3.0798
-2.7255 3.3511
-2.0655 1.8968
ITEM: ATOMS id type xs ys zs
1 1 .465655 .991172 .528743
2 1 .992706 .670402 .464176
3 1 .847907 .053982 .451916
4 1 .244681 .010427 .497118
5 1 .006977 .582732 .585946
6 1 .534998 .452665 .987480
7 1 .500751 .473771 .010937
ITEM: TIMESTEP
250
ITEM: NUMBER OF ATOMS
7
ITEM: BOX BOUNDS ss ss ss
-3.2443 3.0787
-2.7255 3.3511
-2.0733 1.8981
ITEM: ATOMS id type xs ys zs
1 1 .464910 .991606 .527826
2 1 .992690 .670150 .465818
3 1 .848012 .053762 .453076
4 1 .243999 .010239 .497127
5 1 .007066 .582530 .586290
6 1 .535121 .452896 .987298
7 1 .499960 .473463 .012813
ITEM: TIMESTEP
300
ITEM: NUMBER OF ATOMS
7
ITEM: BOX BOUNDS ss ss ss
-3.2466 3.0782
-2.7104 3.3511
-2.0722 1.9029
ITEM: ATOMS id type xs ys zs
1 1 .465477 .992043 .526109
2 1 .992124 .669146 .465420
3 1 .848026 .051560 .452320
4 1 .243796 .007884 .496631
5 1 .008231 .581950 .585355
6 1 .535565 .451599 .986687
7 1 .499324 .471883 .012576
ITEM: TIMESTEP
350
ITEM: NUMBER OF ATOMS
7
ITEM: BOX BOUNDS ss ss ss
-3.2403 3.0748
-2.7088 3.3482
-2.0649 1.9055
ITEM: ATOMS id type xs ys zs
1 1 .465943 .993030 .525523
2 1 .991700 .669556 .463805
3 1 .848153 .052116 .451657
4 1 .242886 .007692 .495711
5 1 .007710 .582920 .583655
6 1 .535133 .451590 .986892
7 1 .497980 .472078 .010860
ITEM: TIMESTEP
400
ITEM: NUMBER OF ATOMS
7
ITEM: BOX BOUNDS ss ss ss
-3.2343 3.0852
-2.7103 3.3545
-2.0684 1.9147
ITEM: ATOMS id type xs ys zs
1 1 .466080 .992918 .527119
2 1 .988549 .669606 .461055
3 1 .846185 .054126 .452483
4 1 .241705 .007787 .495194
5 1 .007090 .583804 .580832
6 1 .532669 .451624 .985890
7 1 .494786 .472494 .011645
ITEM: TIMESTEP
1
ITEM: NUMBER OF ATOMS
7
ITEM: BOX BOUNDS ss ss ss
-3.2302 3.0542
-2.7135 3.3569
-2.0588 1.9002
ITEM: ATOMS id type xs ys zs
1 1 .468495 .990584 .533620
2 1 .997720 .670579 .458109
3 1 .850893 .052532 .447985
4 1 .245054 .007263 .497983
5 1 .002439 .581746 .586375
6 1 .533827 .450900 .987418
7 1 .502593 .473942 .008412
ITEM: TIMESTEP
50
ITEM: NUMBER OF ATOMS
7
ITEM: BOX BOUNDS ss ss ss
-3.2461 3.0709
-2.7135 3.3569
-2.0588 1.8982
ITEM: ATOMS id type xs ys zs
1 1 .468433 .990415 .533754
2 1 .995424 .670632 .458253
3 1 .848997 .052406 .448445
4 1 .246266 .007494 .498133
5 1 .004409 .581698 .587450
6 1 .533504 .450929 .987521
7 1 .503011 .473913 .008198
ITEM: TIMESTEP
100
ITEM: NUMBER OF ATOMS
7
ITEM: BOX BOUNDS ss ss ss
-3.2509 3.0753
-2.7135 3.3569
-2.0697 1.8982
ITEM: ATOMS id type xs ys zs
1 1 .468257 .990153 .534089
2 1 .994753 .670237 .460558
3 1 .848716 .052758 .450444
4 1 .246435 .007939 .498805
5 1 .005389 .581518 .588940
6 1 .534178 .450777 .987332
7 1 .502265 .473714 .011239
ITEM: TIMESTEP
150
ITEM: NUMBER OF ATOMS
7
ITEM: BOX BOUNDS ss ss ss
-3.2565 3.0855
-2.7135 3.3569
-2.0638 1.8982
ITEM: ATOMS id type xs ys zs
1 1 .467881 .990310 .531660
2 1 .992949 .669793 .460785
3 1 .847929 .052991 .450466
4 1 .246465 .007931 .497039
5 1 .006846 .581229 .588732
6 1 .534548 .450723 .986815
7 1 .500651 .473567 .010403
ITEM: TIMESTEP
200
ITEM: NUMBER OF ATOMS
7
ITEM: BOX BOUNDS ss ss ss
-3.2470 3.0844
-2.7094 3.3599
-2.0656 1.8982
ITEM: ATOMS id type xs ys zs
1 1 .466988 .990743 .531459
2 1 .992936 .669326 .461315
3 1 .848429 .052659 .451552
4 1 .245601 .006909 .495508
5 1 .006251 .580672 .588591
6 1 .534410 .450197 .986572
7 1 .499322 .472894 .011626
ITEM: TIMESTEP
250
ITEM: NUMBER OF ATOMS
7
ITEM: BOX BOUNDS ss ss ss
-3.2549 3.0888
-2.7124 3.3569
-2.0713 1.8982
ITEM: ATOMS id type xs ys zs
1 1 .467310 .992279 .532523
2 1 .991775 .670343 .461290
3 1 .848638 .053986 .452949
4 1 .246895 .007155 .493641
5 1 .008851 .581840 .589006
6 1 .535057 .450742 .986537
7 1 .498894 .473843 .013667
ITEM: TIMESTEP
300
ITEM: NUMBER OF ATOMS
7
ITEM: BOX BOUNDS ss ss ss
-3.2419 3.0791
-2.7187 3.3622
-2.0679 1.8982
ITEM: ATOMS id type xs ys zs
1 1 .467075 .992328 .533059
2 1 .992795 .670653 .460234
3 1 .850638 .055697 .452947
4 1 .245768 .007719 .490969
5 1 .008075 .582606 .588036
6 1 .535237 .450773 .986415
7 1 .497623 .474356 .013515
ITEM: TIMESTEP
350
ITEM: NUMBER OF ATOMS
7
ITEM: BOX BOUNDS ss ss ss
-3.2343 3.0803
-2.7217 3.3794
-2.0813 1.9014
ITEM: ATOMS id type xs ys zs
1 1 .466362 .989972 .534425
2 1 .992092 .669121 .461872
3 1 .850718 .056201 .454184
4 1 .244671 .007925 .491441
5 1 .007551 .581243 .588737
6 1 .534953 .449383 .985429
7 1 .496019 .473505 .017045
ITEM: TIMESTEP
400
ITEM: NUMBER OF ATOMS
7
ITEM: BOX BOUNDS ss ss ss
-3.2322 3.0818
-2.7287 3.3647
-2.0736 1.9024
ITEM: ATOMS id type xs ys zs
1 1 .466199 .992805 .532847
2 1 .991088 .671032 .461395
3 1 .850681 .057546 .452086
4 1 .244338 .008299 .490169
5 1 .008013 .582689 .587599
6 1 .534838 .450530 .985370
7 1 .494923 .475396 .015399
ITEM: TIMESTEP
1
ITEM: NUMBER OF ATOMS
7
ITEM: BOX BOUNDS ss ss ss
-3.2201 3.0595
-2.7286 3.3724
-2.0577 1.8982
ITEM: ATOMS id type xs ys zs
1 1 .467237 .988098 .533770
2 1 .996877 .669706 .458200
3 1 .849932 .054748 .448068
4 1 .243622 .009708 .498107
5 1 .000821 .581311 .586570
6 1 .532619 .451119 .987934
7 1 .501363 .474045 .008139
ITEM: TIMESTEP
50
ITEM: NUMBER OF ATOMS
7
ITEM: BOX BOUNDS ss ss ss
-3.2447 3.0757
-2.7286 3.3724
-2.0577 1.8982
ITEM: ATOMS id type xs ys zs
1 1 .467969 .987884 .533727
2 1 .994733 .669799 .458060
3 1 .848321 .054646 .448236
4 1 .245946 .010013 .497976
5 1 .004140 .581248 .587466
6 1 .532937 .451172 .987481
7 1 .502581 .473994 .007898
ITEM: TIMESTEP
100
ITEM: NUMBER OF ATOMS
7
ITEM: BOX BOUNDS ss ss ss
-3.2646 3.0828
-2.7265 3.3724
-2.0679 1.8982
ITEM: ATOMS id type xs ys zs
1 1 .468884 .987827 .534940
2 1 .993744 .669522 .459911
3 1 .848011 .054353 .450266
4 1 .247904 .010306 .498581
5 1 .007362 .580816 .588851
6 1 .534535 .450881 .987057
7 1 .503094 .473582 .010975
ITEM: TIMESTEP
150
ITEM: NUMBER OF ATOMS
7
ITEM: BOX BOUNDS ss ss ss
-3.2586 3.0849
-2.7265 3.3724
-2.0660 1.8982
ITEM: ATOMS id type xs ys zs
1 1 .468245 .988045 .536299
2 1 .993402 .669644 .460108
3 1 .848377 .054890 .450381
4 1 .247223 .010563 .497263
5 1 .007029 .580286 .587789
6 1 .535183 .450151 .987084
7 1 .501503 .474062 .011765
ITEM: TIMESTEP
200
ITEM: NUMBER OF ATOMS
7
ITEM: BOX BOUNDS ss ss ss
-3.2548 3.0856
-2.7165 3.3543
-2.0720 1.8982
ITEM: ATOMS id type xs ys zs
1 1 .468199 .991245 .538205
2 1 .993409 .670636 .461617
3 1 .849041 .054406 .451052
4 1 .246760 .008867 .496369
5 1 .007482 .581240 .587542
6 1 .535576 .450027 .988078
7 1 .500809 .475167 .013987
ITEM: TIMESTEP
250
ITEM: NUMBER OF ATOMS
7
ITEM: BOX BOUNDS ss ss ss
-3.2535 3.0966
-2.7067 3.3543
-2.0655 1.8982
ITEM: ATOMS id type xs ys zs
1 1 .467044 .991393 .537951
2 1 .991919 .669569 .461207
3 1 .847825 .053334 .450536
4 1 .245708 .007274 .494507
5 1 .008141 .580445 .585912
6 1 .534869 .449001 .988230
7 1 .499492 .474497 .012774
ITEM: TIMESTEP
300
ITEM: NUMBER OF ATOMS
7
ITEM: BOX BOUNDS ss ss ss
-3.2454 3.0937
-2.7075 3.3537
-2.0639 1.9002
ITEM: ATOMS id type xs ys zs
1 1 .466146 .992023 .537343
2 1 .992007 .668689 .461754
3 1 .847930 .053302 .449969
4 1 .244161 .007603 .492483
5 1 .008216 .580816 .584011
6 1 .534709 .449092 .987997
7 1 .498680 .475277 .012571
ITEM: TIMESTEP
350
ITEM: NUMBER OF ATOMS
7
ITEM: BOX BOUNDS ss ss ss
-3.2397 3.0828
-2.7069 3.3531
-2.0650 1.9000
ITEM: ATOMS id type xs ys zs
1 1 .466407 .992991 .536050
2 1 .993307 .667747 .463272
3 1 .848980 .052492 .449827
4 1 .243698 .007716 .491146
5 1 .008457 .581105 .582845
6 1 .535454 .449399 .988242
7 1 .498688 .475744 .013017
ITEM: TIMESTEP
400
ITEM: NUMBER OF ATOMS
7
ITEM: BOX BOUNDS ss ss ss
-3.2336 3.0869
-2.7073 3.3630
-2.0573 1.9073
ITEM: ATOMS id type xs ys zs
1 1 .465783 .992140 .532612
2 1 .992397 .666078 .462514
3 1 .848206 .052031 .448081
4 1 .243000 .007761 .488752
5 1 .008103 .580972 .579938
6 1 .534949 .449140 .986403
7 1 .497125 .475073 .011415
ITEM: TIMESTEP
1
ITEM: NUMBER OF ATOMS
7
ITEM: BOX BOUNDS ss ss ss
-3.2267 3.0778
-2.7138 3.3659
-2.0621 1.8962
ITEM: ATOMS id type xs ys zs
1 1 .466452 .989108 .534547
2 1 .993995 .669605 .459018
3 1 .847633 .052506 .448896
4 1 .243719 .007309 .498901
5 1 .001873 .580908 .587315
6 1 .531572 .450263 .988429
7 1 .500441 .473267 .009233
ITEM: TIMESTEP
50
ITEM: NUMBER OF ATOMS
7
ITEM: BOX BOUNDS ss ss ss
-3.2458 3.0778
-2.7138 3.3659
-2.0621 1.8962
ITEM: ATOMS id type xs ys zs
1 1 .467891 .988852 .534482
2 1 .994453 .669713 .458777
3 1 .848049 .052338 .449039
4 1 .245971 .007599 .498810
5 1 .004173 .580897 .588252
6 1 .532795 .450318 .987961
7 1 .502614 .473237 .008966
ITEM: TIMESTEP
100
ITEM: NUMBER OF ATOMS
7
ITEM: BOX BOUNDS ss ss ss
-3.2584 3.0804
-2.7138 3.3659
-2.0653 1.8962
ITEM: ATOMS id type xs ys zs
1 1 .468419 .988822 .534468
2 1 .994248 .669369 .459599
3 1 .848334 .052538 .449811
4 1 .247184 .008005 .498775
5 1 .006133 .580726 .588975
6 1 .534124 .450130 .987506
7 1 .502994 .473081 .010186
ITEM: TIMESTEP
150
ITEM: NUMBER OF ATOMS
7
ITEM: BOX BOUNDS ss ss ss
-3.2638 3.0900
-2.7138 3.3659
-2.0660 1.8962
ITEM: ATOMS id type xs ys zs
1 1 .467480 .988677 .534460
2 1 .992726 .668611 .460448
3 1 .847271 .053066 .450027
4 1 .247148 .008052 .498194
5 1 .007503 .580147 .589322
6 1 .534156 .449836 .987457
7 1 .501686 .473083 .011107
ITEM: TIMESTEP
200
ITEM: NUMBER OF ATOMS
7
ITEM: BOX BOUNDS ss ss ss
-3.2580 3.0872
-2.7160 3.3659
-2.0664 1.8966
ITEM: ATOMS id type xs ys zs
1 1 .467300 .988597 .534432
2 1 .992913 .668640 .460249
3 1 .847833 .053769 .450607
4 1 .246521 .008385 .497724
5 1 .007559 .580005 .589851
6 1 .534682 .449992 .988013
7 1 .500534 .473036 .011692
ITEM: TIMESTEP
250
ITEM: NUMBER OF ATOMS
7
ITEM: BOX BOUNDS ss ss ss
-3.2632 3.0890
-2.7138 3.3659
-2.0621 1.8999
ITEM: ATOMS id type xs ys zs
1 1 .468414 .989526 .534015
2 1 .992456 .668708 .458895
3 1 .848089 .053847 .450591
4 1 .247066 .007691 .496826
5 1 .009292 .579882 .589552
6 1 .535449 .449685 .987322
7 1 .499491 .473409 .011519
ITEM: TIMESTEP
300
ITEM: NUMBER OF ATOMS
7
ITEM: BOX BOUNDS ss ss ss
-3.2522 3.0884
-2.7168 3.3635
-2.0721 1.9178
ITEM: ATOMS id type xs ys zs
1 1 .468175 .990403 .532760
2 1 .992207 .668418 .458356
3 1 .847763 .054824 .451109
4 1 .245781 .007921 .495870
5 1 .008346 .580525 .587785
6 1 .535236 .449913 .984069
7 1 .497335 .474215 .014186
ITEM: TIMESTEP
350
ITEM: NUMBER OF ATOMS
7
ITEM: BOX BOUNDS ss ss ss
-3.2487 3.0987
-2.7214 3.3644
-2.0748 1.9078
ITEM: ATOMS id type xs ys zs
1 1 .466962 .990120 .533927
2 1 .990263 .668013 .460520
3 1 .846108 .055983 .453232
4 1 .244900 .008774 .497129
5 1 .008397 .580841 .589799
6 1 .534380 .450379 .987675
7 1 .495174 .474615 .014728
ITEM: TIMESTEP
400
ITEM: NUMBER OF ATOMS
7
ITEM: BOX BOUNDS ss ss ss
-3.2493 3.1022
-2.7186 3.3602
-2.0719 1.9189
ITEM: ATOMS id type xs ys zs
1 1 .466442 .990483 .531617
2 1 .989196 .668128 .459271
3 1 .845717 .055911 .452758
4 1 .244761 .008429 .494585
5 1 .009132 .581282 .588278
6 1 .534202 .450565 .986087
7 1 .494336 .474304 .014182
ITEM: TIMESTEP
1
ITEM: NUMBER OF ATOMS
7
ITEM: BOX BOUNDS ss ss ss
-3.2336 3.0871
-2.7194 3.3581
-2.0662 1.9087
ITEM: ATOMS id type xs ys zs
1 1 .466336 .990394 .533341
2 1 .992532 .670774 .458133
3 1 .846541 .053433 .448048
4 1 .244175 .008221 .497852
5 1 .002951 .582037 .585900
6 1 .531291 .451343 .985337
7 1 .500244 .474358 .010222
ITEM: TIMESTEP
50
ITEM: NUMBER OF ATOMS
7
ITEM: BOX BOUNDS ss ss ss
-3.2545 3.0871
-2.7194 3.3581
-2.0662 1.9087
ITEM: ATOMS id type xs ys zs
1 1 .467909 .990146 .533283
2 1 .993039 .670919 .457893
3 1 .846995 .053225 .448246
4 1 .246672 .008514 .497727
5 1 .005496 .581984 .586935
6 1 .532596 .451411 .984847
7 1 .502626 .474325 .009911
ITEM: TIMESTEP
100
ITEM: NUMBER OF ATOMS
7
ITEM: BOX BOUNDS ss ss ss
-3.2599 3.0871
-2.7194 3.3581
-2.0680 1.9087
ITEM: ATOMS id type xs ys zs
1 1 .468016 .990055 .533052
2 1 .993238 .670718 .458487
3 1 .847431 .053331 .449080
4 1 .247011 .009306 .497289
5 1 .006347 .581946 .587359
6 1 .533582 .451293 .984247
7 1 .502821 .474170 .010518
ITEM: TIMESTEP
150
ITEM: NUMBER OF ATOMS
7
ITEM: BOX BOUNDS ss ss ss
-3.2610 3.0871
-2.7194 3.3581
-2.0724 1.9087
ITEM: ATOMS id type xs ys zs
1 1 .468121 .990534 .532835
2 1 .993182 .669975 .459258
3 1 .847937 .053317 .450208
4 1 .246519 .010264 .496907
5 1 .007372 .582654 .587235
6 1 .534634 .451036 .983391
7 1 .502053 .473847 .012185
ITEM: TIMESTEP
200
ITEM: NUMBER OF ATOMS
7
ITEM: BOX BOUNDS ss ss ss
-3.2542 3.0871
-2.7138 3.3581
-2.0662 1.9064
ITEM: ATOMS id type xs ys zs
1 1 .467504 .991011 .530743
2 1 .993203 .669727 .459000
3 1 .848205 .051915 .449457
4 1 .244784 .009468 .495513
5 1 .006985 .582541 .586421
6 1 .535298 .450506 .983029
7 1 .500760 .472940 .011596
ITEM: TIMESTEP
250
ITEM: NUMBER OF ATOMS
7
ITEM: BOX BOUNDS ss ss ss
-3.2483 3.0932
-2.7138 3.3581
-2.0730 1.9064
ITEM: ATOMS id type xs ys zs
1 1 .466751 .990506 .529933
2 1 .992092 .669454 .461732
3 1 .847774 .052019 .448969
4 1 .243543 .009422 .495165
5 1 .007116 .582151 .586869
6 1 .535492 .449938 .982946
7 1 .499170 .472918 .012867
ITEM: TIMESTEP
300
ITEM: NUMBER OF ATOMS
7
ITEM: BOX BOUNDS ss ss ss
-3.2461 3.0906
-2.7138 3.3581
-2.0667 1.8980
ITEM: ATOMS id type xs ys zs
1 1 .468243 .990594 .530555
2 1 .991595 .667494 .463267
3 1 .846977 .051730 .449467
4 1 .243087 .008392 .494673
5 1 .008409 .583472 .586996
6 1 .534747 .448605 .985920
7 1 .497928 .472689 .009832
ITEM: TIMESTEP
350
ITEM: NUMBER OF ATOMS
7
ITEM: BOX BOUNDS ss ss ss
-3.2357 3.0823
-2.7138 3.3581
-2.0742 1.8973
ITEM: ATOMS id type xs ys zs
1 1 .468672 .990943 .532378
2 1 .992173 .666168 .464529
3 1 .846890 .051624 .451772
4 1 .241846 .007741 .495182
5 1 .007701 .584279 .587815
6 1 .534110 .448330 .986555
7 1 .496776 .472635 .011957
ITEM: TIMESTEP
400
ITEM: NUMBER OF ATOMS
7
ITEM: BOX BOUNDS ss ss ss
-3.2328 3.0841
-2.7138 3.3581
-2.0750 1.8962
ITEM: ATOMS id type xs ys zs
1 1 .468472 .991181 .532466
2 1 .991713 .665892 .464606
3 1 .846619 .051582 .452284
4 1 .241235 .007620 .494426
5 1 .007617 .584233 .588155
6 1 .534070 .448501 .987288
7 1 .495656 .472555 .012996
ITEM: TIMESTEP
1
ITEM: NUMBER OF ATOMS
7
ITEM: BOX BOUNDS ss ss ss
-3.2214 3.0749
-2.7103 3.3565
-2.0673 1.8929
ITEM: ATOMS id type xs ys zs
1 1 .466208 .990638 .535606
2 1 .994436 .670454 .460116
3 1 .847882 .052032 .449999
4 1 .243187 .006739 .499985
5 1 .001025 .581566 .588358
6 1 .531414 .450642 .989273
7 1 .500245 .473692 .010548
ITEM: TIMESTEP
50
ITEM: NUMBER OF ATOMS
7
ITEM: BOX BOUNDS ss ss ss
-3.2487 3.0749
-2.7103 3.3565
-2.0673 1.8929
ITEM: ATOMS id type xs ys zs
1 1 .468370 .990346 .535583
2 1 .994970 .670586 .459808
3 1 .848479 .051823 .450154
4 1 .246425 .007034 .499881
5 1 .004497 .581544 .589465
6 1 .533132 .450728 .988757
7 1 .503248 .473698 .010178
ITEM: TIMESTEP
100
ITEM: NUMBER OF ATOMS
7
ITEM: BOX BOUNDS ss ss ss
-3.2593 3.0843
-2.7087 3.3565
-2.0684 1.8929
ITEM: ATOMS id type xs ys zs
1 1 .468083 .990213 .535228
2 1 .993708 .670368 .460429
3 1 .847450 .051775 .450956
4 1 .246895 .007297 .499083
5 1 .006273 .581202 .590299
6 1 .533629 .450509 .988406
7 1 .503127 .473467 .010478
ITEM: TIMESTEP
150
ITEM: NUMBER OF ATOMS
7
ITEM: BOX BOUNDS ss ss ss
-3.2600 3.0940
-2.7087 3.3565
-2.0713 1.9036
ITEM: ATOMS id type xs ys zs
1 1 .466517 .990037 .533961
2 1 .991779 .670478 .460760
3 1 .845486 .051768 .450770
4 1 .245869 .007893 .497033
5 1 .007248 .580278 .589475
6 1 .533878 .450542 .987063
7 1 .501811 .473484 .011630
ITEM: TIMESTEP
200
ITEM: NUMBER OF ATOMS
7
ITEM: BOX BOUNDS ss ss ss
-3.2593 3.1152
-2.7088 3.3565
-2.0727 1.9157
ITEM: ATOMS id type xs ys zs
1 1 .464147 .990070 .533042
2 1 .987891 .670291 .460543
3 1 .841994 .051708 .450719
4 1 .244346 .009113 .494983
5 1 .007768 .579276 .588959
6 1 .533134 .450631 .986130
7 1 .499235 .473870 .012640
ITEM: TIMESTEP
250
ITEM: NUMBER OF ATOMS
7
ITEM: BOX BOUNDS ss ss ss
-3.2581 3.0968
-2.7087 3.3530
-2.0715 1.9231
ITEM: ATOMS id type xs ys zs
1 1 .464678 .990763 .532830
2 1 .990385 .669967 .459619
3 1 .844140 .052089 .451432
4 1 .244728 .010196 .492249
5 1 .007819 .579315 .589524
6 1 .535464 .450975 .985489
7 1 .499458 .474757 .012724
ITEM: TIMESTEP
300
ITEM: NUMBER OF ATOMS
7
ITEM: BOX BOUNDS ss ss ss
-3.2535 3.0813
-2.7087 3.3530
-2.0792 1.9158
ITEM: ATOMS id type xs ys zs
1 1 .464458 .990952 .534112
2 1 .992223 .669622 .461463
3 1 .846244 .052206 .453596
4 1 .245052 .009664 .492734
5 1 .007428 .579165 .591064
6 1 .536778 .451377 .988078
7 1 .499541 .474555 .015297
ITEM: TIMESTEP
350
ITEM: NUMBER OF ATOMS
7
ITEM: BOX BOUNDS ss ss ss
-3.2543 3.0810
-2.7087 3.3530
-2.0630 1.9146
ITEM: ATOMS id type xs ys zs
1 1 .463304 .991485 .531087
2 1 .991830 .669346 .458766
3 1 .846298 .052096 .452022
4 1 .245209 .008535 .490052
5 1 .007376 .578570 .588064
6 1 .536528 .451747 .988396
7 1 .498730 .474532 .012496
ITEM: TIMESTEP
400
ITEM: NUMBER OF ATOMS
7
ITEM: BOX BOUNDS ss ss ss
-3.2598 3.0774
-2.7087 3.3574
-2.0620 1.9163
ITEM: ATOMS id type xs ys zs
1 1 .463255 .991607 .530166
2 1 .992021 .668710 .458311
3 1 .846577 .052056 .452110
4 1 .245674 .007799 .489180
5 1 .008345 .577690 .586286
6 1 .536861 .451741 .987831
7 1 .498868 .474207 .013480
ITEM: TIMESTEP
1
ITEM: NUMBER OF ATOMS
7
ITEM: BOX BOUNDS ss ss ss
-3.2491 3.0687
-2.7107 3.3527
-2.0604 1.9225
ITEM: ATOMS id type xs ys zs
1 1 .469013 .991256 .530826
2 1 .995447 .670890 .455767
3 1 .849390 .052124 .445708
4 1 .246756 .006802 .495408
5 1 .005416 .581952 .583276
6 1 .533998 .450955 .981906
7 1 .502940 .474021 .008760
ITEM: TIMESTEP
50
ITEM: NUMBER OF ATOMS
7
ITEM: BOX BOUNDS ss ss ss
-3.2491 3.0733
-2.7107 3.3527
-2.0604 1.9225
ITEM: ATOMS id type xs ys zs
1 1 .468516 .990936 .530820
2 1 .995293 .671058 .455422
3 1 .848715 .051861 .445839
4 1 .246583 .007097 .495283
5 1 .004534 .581893 .584507
6 1 .533294 .451060 .981366
7 1 .503518 .474014 .008389
ITEM: TIMESTEP
100
ITEM: NUMBER OF ATOMS
7
ITEM: BOX BOUNDS ss ss ss
-3.2587 3.0852
-2.7087 3.3527
-2.0631 1.9225
ITEM: ATOMS id type xs ys zs
1 1 .468087 .990935 .530715
2 1 .993776 .670849 .456330
3 1 .847687 .051516 .446720
4 1 .247104 .007354 .494861
5 1 .005765 .581472 .585381
6 1 .533448 .450786 .980555
7 1 .503375 .473876 .009062
ITEM: TIMESTEP
150
ITEM: NUMBER OF ATOMS
7
ITEM: BOX BOUNDS ss ss ss
-3.2673 3.0886
-2.7095 3.3527
-2.0664 1.9215
ITEM: ATOMS id type xs ys zs
1 1 .468278 .991142 .530302
2 1 .993247 .670579 .457961
3 1 .848510 .052006 .447647
4 1 .247906 .008054 .494591
5 1 .007581 .580688 .585480
6 1 .534297 .450450 .980117
7 1 .502823 .474264 .010901
ITEM: TIMESTEP
200
ITEM: NUMBER OF ATOMS
7
ITEM: BOX BOUNDS ss ss ss
-3.2640 3.0983
-2.7087 3.3509
-2.0673 1.9215
ITEM: ATOMS id type xs ys zs
1 1 .466793 .991614 .530357
2 1 .991811 .670622 .458598
3 1 .847729 .051831 .447665
4 1 .247034 .007839 .494034
5 1 .007225 .580270 .584959
6 1 .533833 .450279 .979976
7 1 .501347 .473992 .012318
ITEM: TIMESTEP
250
ITEM: NUMBER OF ATOMS
7
ITEM: BOX BOUNDS ss ss ss
-3.2700 3.1015
-2.7102 3.3509
-2.0693 1.9215
ITEM: ATOMS id type xs ys zs
1 1 .466782 .991973 .530415
2 1 .991594 .670356 .459017
3 1 .847837 .051663 .447757
4 1 .247387 .008267 .493456
5 1 .008510 .580465 .584950
6 1 .534983 .450656 .979697
7 1 .501159 .473759 .013728
ITEM: TIMESTEP
300
ITEM: NUMBER OF ATOMS
7
ITEM: BOX BOUNDS ss ss ss
-3.2712 3.1057
-2.7087 3.3591
-2.0760 1.9176
ITEM: ATOMS id type xs ys zs
1 1 .465877 .990959 .530943
2 1 .990711 .668860 .460539
3 1 .847399 .051128 .448113
4 1 .247388 .008135 .493254
5 1 .009041 .579927 .585617
6 1 .535473 .450182 .980758
7 1 .500449 .472700 .015670
ITEM: TIMESTEP
350
ITEM: NUMBER OF ATOMS
7
ITEM: BOX BOUNDS ss ss ss
-3.2592 3.1049
-2.7087 3.3640
-2.0643 1.9176
ITEM: ATOMS id type xs ys zs
1 1 .463818 .990093 .528700
2 1 .990110 .667829 .460081
3 1 .846458 .050693 .446049
4 1 .246318 .007998 .490625
5 1 .008097 .579663 .583417
6 1 .535408 .450027 .981186
7 1 .498892 .472377 .012744
ITEM: TIMESTEP
400
ITEM: NUMBER OF ATOMS
7
ITEM: BOX BOUNDS ss ss ss
-3.2541 3.1013
-2.7087 3.3662
-2.0641 1.9135
ITEM: ATOMS id type xs ys zs
1 1 .463515 .990861 .526574
2 1 .989527 .666752 .461130
3 1 .846402 .051402 .447641
4 1 .246448 .007894 .489639
5 1 .008087 .580084 .585625
6 1 .535044 .450579 .982115
7 1 .497239 .473183 .011313
ITEM: TIMESTEP
1
ITEM: NUMBER OF ATOMS
7
ITEM: BOX BOUNDS ss ss ss
-3.2489 3.0859
-2.7087 3.3726
-2.0629 1.8910
ITEM: ATOMS id type xs ys zs
1 1 .467721 .988019 .535344
2 1 .992739 .668596 .459735
3 1 .847076 .051646 .449598
4 1 .246057 .006457 .499666
5 1 .005365 .579917 .588181
6 1 .532525 .449304 .989725
7 1 .501557 .472304 .009448
ITEM: TIMESTEP
50
ITEM: NUMBER OF ATOMS
7
ITEM: BOX BOUNDS ss ss ss
-3.2489 3.0859
-2.7087 3.3726
-2.0629 1.8910
ITEM: ATOMS id type xs ys zs
1 1 .467558 .987712 .535268
2 1 .993338 .668768 .459335
3 1 .847005 .051390 .449761
4 1 .246088 .006786 .499605
5 1 .004418 .579873 .589428
6 1 .532205 .449403 .989172
7 1 .502491 .472294 .009043
ITEM: TIMESTEP
100
ITEM: NUMBER OF ATOMS
7
ITEM: BOX BOUNDS ss ss ss
-3.2594 3.0865
-2.7087 3.3726
-2.0665 1.8910
ITEM: ATOMS id type xs ys zs
1 1 .468275 .987741 .535067
2 1 .993577 .668476 .460178
3 1 .847497 .051703 .450778
4 1 .246985 .007441 .499659
5 1 .005704 .579755 .590597
6 1 .533716 .449466 .988468
7 1 .503035 .471855 .010000
ITEM: TIMESTEP
150
ITEM: NUMBER OF ATOMS
7
ITEM: BOX BOUNDS ss ss ss
-3.2622 3.0878
-2.7087 3.3669
-2.0712 1.8910
ITEM: ATOMS id type xs ys zs
1 1 .468846 .989224 .534760
2 1 .992881 .668164 .462033
3 1 .848228 .052219 .451688
4 1 .246856 .007828 .500035
5 1 .006569 .580084 .591223
6 1 .534992 .450384 .987595
7 1 .502286 .471920 .011215
ITEM: TIMESTEP
200
ITEM: NUMBER OF ATOMS
7
ITEM: BOX BOUNDS ss ss ss
-3.2740 3.1014
-2.7087 3.3669
-2.0719 1.8910
ITEM: ATOMS id type xs ys zs
1 1 .468788 .989438 .533735
2 1 .990579 .667967 .462452
3 1 .847265 .052436 .452067
4 1 .247442 .008485 .499553
5 1 .008773 .580068 .591525
6 1 .534894 .450479 .986895
7 1 .501845 .472033 .011320
ITEM: TIMESTEP
250
ITEM: NUMBER OF ATOMS
7
ITEM: BOX BOUNDS ss ss ss
-3.2678 3.1005
-2.7087 3.3669
-2.0786 1.8989
ITEM: ATOMS id type xs ys zs
1 1 .467706 .989641 .532239
2 1 .990588 .668080 .462483
3 1 .847771 .052263 .452533
4 1 .246538 .009162 .498866
5 1 .008245 .580051 .591161
6 1 .534960 .450518 .984485
7 1 .501296 .471794 .012668
ITEM: TIMESTEP
300
ITEM: NUMBER OF ATOMS
7
ITEM: BOX BOUNDS ss ss ss
-3.2673 3.0989
-2.7087 3.3669
-2.0810 1.8993
ITEM: ATOMS id type xs ys zs
1 1 .467404 .989583 .532516
2 1 .990717 .667892 .462790
3 1 .848681 .052374 .454537
4 1 .247026 .009099 .498515
5 1 .009225 .580099 .591726
6 1 .536040 .450187 .984815
7 1 .501221 .472042 .012576
ITEM: TIMESTEP
350
ITEM: NUMBER OF ATOMS
7
ITEM: BOX BOUNDS ss ss ss
-3.2666 3.0869
-2.7106 3.3669
-2.0803 1.9082
ITEM: ATOMS id type xs ys zs
1 1 .468130 .989167 .533602