ITEM: TIMESTEP
1
ITEM: NUMBER OF ATOMS
7
ITEM: BOX BOUNDS ss ss ss
-2.9216 3.1870
-2.8174 3.1302
-1.7999 2.1170
ITEM: ATOMS id type xs ys zs
1 1 .487707 .999618 .436007
2 1 .999084 .633598 .436347
3 1 .823279 .003646 .498845
4 1 .205614 .000634 .561968
5 1 .000804 .604421 .513478
6 1 .518642 .477589 .998959
7 1 .493992 .426229 .000971
ITEM: TIMESTEP
50
ITEM: NUMBER OF ATOMS
7
ITEM: BOX BOUNDS ss ss ss
-2.9434 3.2079
-2.8394 3.1528
-1.8226 2.1446
ITEM: ATOMS id type xs ys zs
1 1 .486982 .995183 .435032
2 1 .997128 .632709 .436785
3 1 .821138 .007864 .499091
4 1 .207782 .007104 .561677
5 1 .004339 .603246 .517205
6 1 .518353 .476313 .994682
7 1 .493441 .426463 .007595
ITEM: TIMESTEP
100
ITEM: NUMBER OF ATOMS
7
ITEM: BOX BOUNDS ss ss ss
-2.9532 3.2158
-2.8482 3.1671
-1.8338 2.1447
ITEM: ATOMS id type xs ys zs
1 1 .491220 .992543 .438778
2 1 .993854 .631206 .442759
3 1 .821785 .010926 .500174
4 1 .209697 .004447 .559834
5 1 .004190 .605523 .513989
6 1 .517751 .475248 .991578
7 1 .490703 .424355 .003371
ITEM: TIMESTEP
150
ITEM: NUMBER OF ATOMS
7
ITEM: BOX BOUNDS ss ss ss
-2.9611 3.2266
-2.8571 3.1788
-1.8400 2.1395
ITEM: ATOMS id type xs ys zs
1 1 .487287 .993229 .441327
2 1 .992569 .631468 .442995
3 1 .820112 .009538 .496080
4 1 .207533 .007568 .564643
5 1 .007229 .603671 .517165
6 1 .519620 .474509 .992159
7 1 .493267 .428914 .008603
ITEM: TIMESTEP
200
ITEM: NUMBER OF ATOMS
7
ITEM: BOX BOUNDS ss ss ss
-2.9706 3.2320
-2.8600 3.1860
-1.8470 2.1395
ITEM: ATOMS id type xs ys zs
1 1 .485439 .994775 .437782
2 1 .991583 .633120 .446390
3 1 .817157 .016182 .509444
4 1 .207387 .005881 .567526
5 1 .007864 .604241 .523932
6 1 .520028 .472673 .996160
7 1 .488181 .427770 .016738
ITEM: TIMESTEP
250
ITEM: NUMBER OF ATOMS
7
ITEM: BOX BOUNDS ss ss ss
-2.9771 3.2366
-2.8600 3.1835
-1.8475 2.1357
ITEM: ATOMS id type xs ys zs
1 1 .487143 .992469 .442957
2 1 .990210 .627434 .447354
3 1 .815162 .013009 .505822
4 1 .210371 .009235 .575806
5 1 .007690 .602742 .517288
6 1 .518896 .471702 .994520
7 1 .489317 .427150 .007246
ITEM: TIMESTEP
300
ITEM: NUMBER OF ATOMS
7
ITEM: BOX BOUNDS ss ss ss
-2.9855 3.2367
-2.8677 3.1896
-1.8466 2.1355
ITEM: ATOMS id type xs ys zs
1 1 .486382 .995300 .442258
2 1 .992166 .629481 .444778
3 1 .819631 .015239 .511952
4 1 .206026 .008487 .567023
5 1 .009592 .606787 .520729
6 1 .518362 .471282 .984747
7 1 .493494 .427456 .015111
ITEM: TIMESTEP
350
ITEM: NUMBER OF ATOMS
7
ITEM: BOX BOUNDS ss ss ss
-2.9850 3.2421
-2.8644 3.1844
-1.8577 2.1290
ITEM: ATOMS id type xs ys zs
1 1 .483870 .991035 .438098
2 1 .993469 .629211 .449398
3 1 .818801 .021821 .515056
4 1 .208247 .006303 .567324
5 1 .004301 .604426 .525431
6 1 .517824 .471238 .990084
7 1 .490081 .426992 .017441
ITEM: TIMESTEP
400
ITEM: NUMBER OF ATOMS
7
ITEM: BOX BOUNDS ss ss ss
-2.9949 3.2466
-2.8642 3.1749
-1.8773 2.1332
ITEM: ATOMS id type xs ys zs
1 1 .484606 .993085 .438100
2 1 .993597 .628468 .452431
3 1 .818706 .022023 .518255
4 1 .210069 .003825 .568317
5 1 .007784 .605568 .524831
6 1 .519557 .472675 .990939
7 1 .489764 .428234 .021962
ITEM: TIMESTEP
1
ITEM: NUMBER OF ATOMS
7
ITEM: BOX BOUNDS ss ss ss
-2.9778 3.2409
-2.8507 3.1441
-1.8455 2.1170
ITEM: ATOMS id type xs ys zs
1 1 .487906 .996899 .442856
2 1 .990337 .634259 .443039
3 1 .817918 .009160 .504999
4 1 .210943 .006056 .566930
5 1 .009541 .605300 .519179
6 1 .518269 .478863 .999161
7 1 .493780 .428528 .012881
ITEM: TIMESTEP
50
ITEM: NUMBER OF ATOMS
7
ITEM: BOX BOUNDS ss ss ss
-2.9778 3.2409
-2.8507 3.1565
-1.8455 2.1411
ITEM: ATOMS id type xs ys zs
1 1 .488944 .995530 .437816
2 1 .989479 .629489 .442860
3 1 .815169 .009658 .498609
4 1 .209705 .005446 .561728
5 1 .009447 .605946 .519719
6 1 .519340 .478178 .992378
7 1 .494599 .429039 .011832
ITEM: TIMESTEP
100
ITEM: NUMBER OF ATOMS
7
ITEM: BOX BOUNDS ss ss ss
-2.9778 3.2409
-2.8507 3.1641
-1.8455 2.1476
ITEM: ATOMS id type xs ys zs
1 1 .488571 .996210 .437587
2 1 .991305 .633655 .440261
3 1 .818101 .009949 .499156
4 1 .210286 .004525 .564925
5 1 .010184 .603582 .509792
6 1 .518348 .476393 .989995
7 1 .492831 .429180 .007424
ITEM: TIMESTEP
150
ITEM: NUMBER OF ATOMS
7
ITEM: BOX BOUNDS ss ss ss
-2.9778 3.2409
-2.8533 3.1671
-1.8455 2.1474
ITEM: ATOMS id type xs ys zs
1 1 .483487 .993709 .439679
2 1 .991103 .630292 .437773
3 1 .816645 .013462 .502691
4 1 .211253 .007430 .563186
5 1 .010340 .603271 .517520
6 1 .521871 .476035 .991568
7 1 .493709 .427342 .004306
ITEM: TIMESTEP
200
ITEM: NUMBER OF ATOMS
7
ITEM: BOX BOUNDS ss ss ss
-2.9778 3.2409
-2.8615 3.1669
-1.8455 2.1446
ITEM: ATOMS id type xs ys zs
1 1 .487551 .993446 .438513
2 1 .994061 .630742 .444387
3 1 .821990 .012578 .505997
4 1 .208638 .008059 .568445
5 1 .006062 .600013 .514914
6 1 .521175 .476576 .989208
7 1 .490979 .426646 .009483
ITEM: TIMESTEP
250
ITEM: NUMBER OF ATOMS
7
ITEM: BOX BOUNDS ss ss ss
-2.9778 3.2480
-2.8663 3.1740
-1.8497 2.1515
ITEM: ATOMS id type xs ys zs
1 1 .487727 .992091 .436787
2 1 .991088 .630486 .444637
3 1 .816048 .015157 .507438
4 1 .213814 .007135 .566083
5 1 .010664 .604915 .510651
6 1 .523000 .473048 .983627
7 1 .493598 .429795 .011869
ITEM: TIMESTEP
300
ITEM: NUMBER OF ATOMS
7
ITEM: BOX BOUNDS ss ss ss
-2.9802 3.2593
-2.8687 3.1772
-1.8508 2.1336
ITEM: ATOMS id type xs ys zs
1 1 .485294 .993427 .435647
2 1 .987313 .627178 .447570
3 1 .815163 .016346 .505742
4 1 .206129 .008804 .565727
5 1 .008575 .602939 .516182
6 1 .519413 .472350 .986870
7 1 .491724 .430804 .008875
ITEM: TIMESTEP
350
ITEM: NUMBER OF ATOMS
7
ITEM: BOX BOUNDS ss ss ss
-2.9883 3.2503
-2.8553 3.1734
-1.8557 2.1333
ITEM: ATOMS id type xs ys zs
1 1 .486438 .995845 .437754
2 1 .990542 .627471 .450012
3 1 .817205 .013010 .504603
4 1 .208060 .005890 .565700
5 1 .010495 .603358 .516598
6 1 .520726 .471552 .986169
7 1 .490452 .429820 .010342
ITEM: TIMESTEP
400
ITEM: NUMBER OF ATOMS
7
ITEM: BOX BOUNDS ss ss ss
-2.9929 3.2588
-2.8566 3.1617
-1.8607 2.1301
ITEM: ATOMS id type xs ys zs
1 1 .491754 .993509 .443982
2 1 .993003 .627035 .449068
3 1 .818123 .016546 .502871
4 1 .210071 .008850 .569116
5 1 .007709 .601984 .522755
6 1 .521620 .469713 .991853
7 1 .489418 .430433 .015442
ITEM: TIMESTEP
1
ITEM: NUMBER OF ATOMS
7
ITEM: BOX BOUNDS ss ss ss
-2.9909 3.2419
-2.8403 3.1389
-1.8383 2.1169
ITEM: ATOMS id type xs ys zs
1 1 .488950 .998204 .441826
2 1 .990146 .634239 .441788
3 1 .817969 .007580 .504273
4 1 .212714 .004118 .566113
5 1 .011385 .605517 .518764
6 1 .519478 .478511 .999029
7 1 .494753 .428090 .010503
ITEM: TIMESTEP
50
ITEM: NUMBER OF ATOMS
7
ITEM: BOX BOUNDS ss ss ss
-2.9909 3.2419
-2.8403 3.1546
-1.8383 2.1403
ITEM: ATOMS id type xs ys zs
1 1 .490261 .995990 .440829
2 1 .990013 .630003 .441414
3 1 .819954 .007599 .503298
4 1 .211748 .004926 .561063
5 1 .010319 .605224 .517008
6 1 .518550 .475405 .992691
7 1 .495012 .425147 .006195
ITEM: TIMESTEP
100
ITEM: NUMBER OF ATOMS
7
ITEM: BOX BOUNDS ss ss ss
-2.9909 3.2419
-2.8487 3.1663
-1.8383 2.1507
ITEM: ATOMS id type xs ys zs
1 1 .490361 .994629 .439283
2 1 .992957 .630647 .441610
3 1 .819339 .008809 .503545
4 1 .213130 .006742 .563239
5 1 .009089 .603553 .515585
6 1 .517762 .474294 .989413
7 1 .494980 .423930 .006160
ITEM: TIMESTEP
150
ITEM: NUMBER OF ATOMS
7
ITEM: BOX BOUNDS ss ss ss
-2.9909 3.2419
-2.8525 3.1702
-1.8389 2.1558
ITEM: ATOMS id type xs ys zs
1 1 .488828 .996228 .441473
2 1 .990292 .631724 .436428
3 1 .818611 .012625 .503471
4 1 .213684 .007544 .563048
5 1 .010239 .603279 .510362
6 1 .521652 .474852 .981357
7 1 .494088 .427629 .012781
ITEM: TIMESTEP
200
ITEM: NUMBER OF ATOMS
7
ITEM: BOX BOUNDS ss ss ss
-2.9909 3.2419
-2.8535 3.1780
-1.8419 2.1412
ITEM: ATOMS id type xs ys zs
1 1 .487046 .992609 .439902
2 1 .990640 .631065 .438177
3 1 .818913 .010640 .502738
4 1 .211164 .007580 .569002
5 1 .012599 .602630 .515949
6 1 .521586 .470724 .988455
7 1 .494172 .427189 .009533
ITEM: TIMESTEP
250
ITEM: NUMBER OF ATOMS
7
ITEM: BOX BOUNDS ss ss ss
-2.9909 3.2419
-2.8520 3.1714
-1.8582 2.1415
ITEM: ATOMS id type xs ys zs
1 1 .489902 .994131 .440558
2 1 .993378 .628618 .443784
3 1 .819333 .013788 .507263
4 1 .211340 .009231 .565238
5 1 .008908 .605633 .518534
6 1 .520376 .474848 .986321
7 1 .489716 .427031 .013330
ITEM: TIMESTEP
300
ITEM: NUMBER OF ATOMS
7
ITEM: BOX BOUNDS ss ss ss
-2.9909 3.2428
-2.8597 3.1715
-1.8545 2.1324
ITEM: ATOMS id type xs ys zs
1 1 .484309 .991206 .448550
2 1 .993228 .630408 .441333
3 1 .819119 .012558 .507228
4 1 .211495 .010101 .570546
5 1 .010034 .608952 .519500
6 1 .525458 .472015 .983663
7 1 .491417 .427016 .012293
ITEM: TIMESTEP
350
ITEM: NUMBER OF ATOMS
7
ITEM: BOX BOUNDS ss ss ss
-2.9909 3.2419
-2.8606 3.1725
-1.8715 2.1293
ITEM: ATOMS id type xs ys zs
1 1 .492512 .990869 .452979
2 1 .994157 .629295 .442388
3 1 .817974 .014939 .516332
4 1 .210612 .006483 .572355
5 1 .007513 .607433 .517046
6 1 .521825 .472882 .986768
7 1 .491903 .428327 .009697
ITEM: TIMESTEP
400
ITEM: NUMBER OF ATOMS
7
ITEM: BOX BOUNDS ss ss ss
-2.9909 3.2419
-2.8550 3.1763
-1.8705 2.1247
ITEM: ATOMS id type xs ys zs
1 1 .492630 .991963 .454116
2 1 .994589 .627768 .441647
3 1 .819045 .013958 .517016
4 1 .210630 .005421 .574922
5 1 .009798 .606378 .516620
6 1 .521358 .472258 .991029
7 1 .490889 .426230 .008021
ITEM: TIMESTEP
1
ITEM: NUMBER OF ATOMS
7
ITEM: BOX BOUNDS ss ss ss
-2.9909 3.2419
-2.8403 3.1428
-1.8518 2.1170
ITEM: ATOMS id type xs ys zs
1 1 .489199 .997396 .443326
2 1 .990237 .633818 .443573
3 1 .817817 .007661 .505900
4 1 .212473 .004341 .567679
5 1 .011690 .605241 .519880
6 1 .519513 .478197 .998772
7 1 .494686 .427558 .013913
ITEM: TIMESTEP
50
ITEM: NUMBER OF ATOMS
7
ITEM: BOX BOUNDS ss ss ss
-2.9909 3.2419
-2.8403 3.1549
-1.8518 2.1465
ITEM: ATOMS id type xs ys zs
1 1 .487941 .995405 .440224
2 1 .989061 .631359 .438345
3 1 .816375 .007676 .499425
4 1 .211662 .003479 .560581
5 1 .012759 .600671 .518206
6 1 .518468 .477725 .993640
7 1 .494022 .428214 .013399
ITEM: TIMESTEP
100
ITEM: NUMBER OF ATOMS
7
ITEM: BOX BOUNDS ss ss ss
-2.9909 3.2419
-2.8485 3.1687
-1.8518 2.1535
ITEM: ATOMS id type xs ys zs
1 1 .490689 .990607 .437290
2 1 .992021 .633169 .442043
3 1 .818780 .009124 .502573
4 1 .212644 .007210 .561669
5 1 .011852 .602696 .516980
6 1 .517870 .475966 .992184
7 1 .494003 .426582 .015769
ITEM: TIMESTEP
150
ITEM: NUMBER OF ATOMS
7
ITEM: BOX BOUNDS ss ss ss
-2.9909 3.2419
-2.8542 3.1705
-1.8518 2.1475
ITEM: ATOMS id type xs ys zs
1 1 .489692 .992582 .436209
2 1 .991873 .631327 .444132
3 1 .820079 .010300 .499080
4 1 .211797 .008993 .562840
5 1 .010724 .604976 .517432
6 1 .522374 .478246 .986982
7 1 .495219 .428979 .007108
ITEM: TIMESTEP
200
ITEM: NUMBER OF ATOMS
7
ITEM: BOX BOUNDS ss ss ss
-2.9909 3.2419
-2.8505 3.1770
-1.8518 2.1447
ITEM: ATOMS id type xs ys zs
1 1 .488981 .991898 .442771
2 1 .991978 .625554 .441644
3 1 .818311 .018900 .501639
4 1 .214063 .006581 .558763
5 1 .012179 .601418 .516692
6 1 .519224 .474516 .986164
7 1 .493453 .427635 .010453
ITEM: TIMESTEP
250
ITEM: NUMBER OF ATOMS
7
ITEM: BOX BOUNDS ss ss ss
-2.9909 3.2419
-2.8634 3.1810
-1.8518 2.1406
ITEM: ATOMS id type xs ys zs
1 1 .484559 .992917 .439008
2 1 .992213 .628855 .447497
3 1 .816307 .013336 .503116
4 1 .210336 .008064 .557493
5 1 .010467 .601123 .515770
6 1 .523021 .473398 .987470
7 1 .493776 .427302 .014387
ITEM: TIMESTEP
300
ITEM: NUMBER OF ATOMS
7
ITEM: BOX BOUNDS ss ss ss
-2.9916 3.2419
-2.8678 3.1853
-1.8479 2.1392
ITEM: ATOMS id type xs ys zs
1 1 .483935 .990299 .439350
2 1 .990376 .627137 .441361
3 1 .823505 .021694 .503050
4 1 .212784 .008111 .558698
5 1 .010075 .599166 .512305
6 1 .520804 .477631 .992337
7 1 .491953 .429562 .006748
ITEM: TIMESTEP
350
ITEM: NUMBER OF ATOMS
7
ITEM: BOX BOUNDS ss ss ss
-2.9909 3.2482
-2.8724 3.1798
-1.8543 2.1454
ITEM: ATOMS id type xs ys zs
1 1 .484378 .991015 .436760
2 1 .991770 .631912 .448788
3 1 .822009 .018399 .504815
4 1 .215366 .011433 .562262
5 1 .009655 .597496 .511905
6 1 .518986 .475253 .989280
7 1 .494109 .431436 .013492
ITEM: TIMESTEP
400
ITEM: NUMBER OF ATOMS
7
ITEM: BOX BOUNDS ss ss ss
-2.9887 3.2526
-2.8633 3.1897
-1.8592 2.1512
ITEM: ATOMS id type xs ys zs
1 1 .491034 .989023 .446101
2 1 .991926 .626750 .438251
3 1 .819544 .016543 .516895
4 1 .213621 .010052 .572859
5 1 .006867 .600857 .518578
6 1 .519157 .475498 .993188
7 1 .487986 .429883 .013589
ITEM: TIMESTEP
1
ITEM: NUMBER OF ATOMS
7
ITEM: BOX BOUNDS ss ss ss
-2.9750 3.2383
-2.8282 3.1458
-1.8378 2.1222
ITEM: ATOMS id type xs ys zs
1 1 .488112 .996749 .441127
2 1 .991153 .632592 .440948
3 1 .817842 .005795 .503157
4 1 .210755 .002005 .565020
5 1 .009019 .603737 .518043
6 1 .518379 .476831 .997466
7 1 .493679 .426176 .010503
ITEM: TIMESTEP
50
ITEM: NUMBER OF ATOMS
7
ITEM: BOX BOUNDS ss ss ss
-2.9750 3.2383
-2.8442 3.1547
-1.8378 2.1413
ITEM: ATOMS id type xs ys zs
1 1 .487345 .995973 .439651
2 1 .989143 .633097 .440496
3 1 .817832 .007253 .495930
4 1 .213001 .002115 .563011
5 1 .009061 .602403 .514182
6 1 .518234 .477114 .993077
7 1 .494784 .424606 .012883
ITEM: TIMESTEP
100
ITEM: NUMBER OF ATOMS
7
ITEM: BOX BOUNDS ss ss ss
-2.9750 3.2383
-2.8495 3.1731
-1.8378 2.1485
ITEM: ATOMS id type xs ys zs
1 1 .486844 .992019 .440155
2 1 .989225 .627864 .438154
3 1 .818095 .007987 .496417
4 1 .210670 .004787 .559666
5 1 .007746 .602586 .514566
6 1 .519128 .474082 .990716
7 1 .494891 .425772 .007822
ITEM: TIMESTEP
150
ITEM: NUMBER OF ATOMS
7
ITEM: BOX BOUNDS ss ss ss
-2.9750 3.2383
-2.8588 3.1798
-1.8400 2.1442
ITEM: ATOMS id type xs ys zs
1 1 .488708 .991240 .439162
2 1 .989917 .629755 .444793
3 1 .818246 .007147 .499959
4 1 .210700 .005645 .564229
5 1 .009863 .602396 .514807
6 1 .519945 .476186 .988552
7 1 .489734 .424335 .012476
ITEM: TIMESTEP
200
ITEM: NUMBER OF ATOMS
7
ITEM: BOX BOUNDS ss ss ss
-2.9750 3.2383
-2.8615 3.1828
-1.8378 2.1427
ITEM: ATOMS id type xs ys zs
1 1 .485327 .994799 .442728
2 1 .990166 .629352 .439857
3 1 .819179 .010922 .502177
4 1 .211463 .008911 .557984
5 1 .007444 .598939 .511513
6 1 .522493 .476382 .989527
7 1 .491063 .430512 .009644
ITEM: TIMESTEP
250
ITEM: NUMBER OF ATOMS
7
ITEM: BOX BOUNDS ss ss ss
-2.9750 3.2383
-2.8623 3.1843
-1.8418 2.1381
ITEM: ATOMS id type xs ys zs
1 1 .487921 .990998 .443284
2 1 .996811 .628857 .444413
3 1 .816993 .009512 .505105
4 1 .203942 .005016 .565498
5 1 .004346 .603384 .515686
6 1 .522304 .468765 .986204
7 1 .494243 .425403 .011356
ITEM: TIMESTEP
300
ITEM: NUMBER OF ATOMS
7
ITEM: BOX BOUNDS ss ss ss
-2.9750 3.2423
-2.8679 3.1756
-1.8392 2.1359
ITEM: ATOMS id type xs ys zs
1 1 .487824 .994825 .445872
2 1 .995721 .628775 .445349
3 1 .817852 .011131 .502974
4 1 .205775 .007793 .571938
5 1 .007636 .602441 .519336
6 1 .523936 .469015 .982860
7 1 .491621 .428047 .004910
ITEM: TIMESTEP
350
ITEM: NUMBER OF ATOMS
7
ITEM: BOX BOUNDS ss ss ss
-2.9750 3.2535
-2.8760 3.1827
-1.8548 2.1374
ITEM: ATOMS id type xs ys zs
1 1 .486658 .992216 .438024
2 1 .986735 .629663 .450250
3 1 .819259 .012617 .510734
4 1 .208717 .010418 .571553
5 1 .011286 .606015 .517764
6 1 .521034 .471890 .989428
7 1 .493641 .427338 .013168
ITEM: TIMESTEP
400
ITEM: NUMBER OF ATOMS
7
ITEM: BOX BOUNDS ss ss ss
-2.9763 3.2671
-2.8683 3.1710
-1.8476 2.1316
ITEM: ATOMS id type xs ys zs
1 1 .487196 .987789 .449426
2 1 .992762 .630831 .438640
3 1 .816680 .018938 .504616
4 1 .208106 .010573 .572782
5 1 .009168 .601058 .509288
6 1 .518771 .476393 .989566
7 1 .490133 .428249 .009710
ITEM: TIMESTEP
1
ITEM: NUMBER OF ATOMS
7
ITEM: BOX BOUNDS ss ss ss
-2.9750 3.2411
-2.8589 3.1458
-1.8378 2.1222
ITEM: ATOMS id type xs ys zs
1 1 .487928 .996475 .441160
2 1 .990416 .634480 .440888
3 1 .817577 .010306 .503235
4 1 .210804 .007594 .565505
5 1 .009471 .605917 .517615
6 1 .518235 .479530 .997607
7 1 .493448 .429218 .010419
ITEM: TIMESTEP
50
ITEM: NUMBER OF ATOMS
7
ITEM: BOX BOUNDS ss ss ss
-2.9750 3.2411
-2.8589 3.1583
-1.8378 2.1442
ITEM: ATOMS id type xs ys zs
1 1 .490104 .995563 .439009
2 1 .989428 .634586 .436243
3 1 .816914 .008701 .503272
4 1 .210815 .007137 .562640
5 1 .012157 .604537 .516154
6 1 .515503 .478916 .991209
7 1 .493117 .430260 .009565
ITEM: TIMESTEP
100
ITEM: NUMBER OF ATOMS
7
ITEM: BOX BOUNDS ss ss ss
-2.9750 3.2411
-2.8589 3.1692
-1.8378 2.1533
ITEM: ATOMS id type xs ys zs
1 1 .486297 .993971 .439011
2 1 .990391 .632343 .436922
3 1 .818953 .008912 .496904
4 1 .209843 .005317 .561117
5 1 .009580 .603779 .512318
6 1 .520422 .476904 .988249
7 1 .496340 .424425 .008610
ITEM: TIMESTEP
150
ITEM: NUMBER OF ATOMS
7
ITEM: BOX BOUNDS ss ss ss
-2.9750 3.2411
-2.8733 3.1763
-1.8451 2.1651
ITEM: ATOMS id type xs ys zs
1 1 .484125 .991457 .437534
2 1 .991202 .629301 .436982
3 1 .820437 .013073 .501680
4 1 .215328 .009378 .561160
5 1 .011060 .606793 .512948
6 1 .520774 .473224 .988707
7 1 .493530 .426289 .010999
ITEM: TIMESTEP
200
ITEM: NUMBER OF ATOMS
7
ITEM: BOX BOUNDS ss ss ss
-2.9750 3.2411
-2.8598 3.1765
-1.8557 2.1503
ITEM: ATOMS id type xs ys zs
1 1 .483111 .992422 .436777
2 1 .990962 .632931 .450686
3 1 .815948 .010974 .500188
4 1 .214899 .007514 .568050
5 1 .010265 .602049 .511568
6 1 .522215 .474007 .988308
7 1 .494367 .425239 .010561
ITEM: TIMESTEP
250
ITEM: NUMBER OF ATOMS
7
ITEM: BOX BOUNDS ss ss ss
-2.9750 3.2411
-2.8589 3.1841
-1.8542 2.1502
ITEM: ATOMS id type xs ys zs
1 1 .488235 .992954 .447221
2 1 .993447 .628827 .444740
3 1 .818117 .011939 .498037
4 1 .209221 .010663 .565886
5 1 .013641 .605342 .518289
6 1 .523334 .473316 .981871
7 1 .488574 .429994 .014907
ITEM: TIMESTEP
300
ITEM: NUMBER OF ATOMS
7
ITEM: BOX BOUNDS ss ss ss
-2.9750 3.2411
-2.8589 3.1905
-1.8646 2.1391
ITEM: ATOMS id type xs ys zs
1 1 .489160 .990225 .441968
2 1 .990487 .628754 .452072
3 1 .817323 .010575 .498786
4 1 .210681 .008474 .564894
5 1 .009253 .601694 .523071
6 1 .518650 .471874 .990655
7 1 .493086 .427762 .015015
ITEM: TIMESTEP
350
ITEM: NUMBER OF ATOMS
7
ITEM: BOX BOUNDS ss ss ss
-2.9750 3.2439
-2.8589 3.1883
-1.8699 2.1336
ITEM: ATOMS id type xs ys zs
1 1 .485526 .993255 .444172
2 1 .990891 .626776 .454668
3 1 .815187 .011182 .508178
4 1 .207308 .007338 .571880
5 1 .011056 .606163 .524373
6 1 .521853 .470811 .990447
7 1 .489451 .431348 .015831
ITEM: TIMESTEP
400
ITEM: NUMBER OF ATOMS
7
ITEM: BOX BOUNDS ss ss ss
-2.9750 3.2481
-2.8589 3.1861
-1.8646 2.1408
ITEM: ATOMS id type xs ys zs
1 1 .485393 .990986 .438596
2 1 .997295 .625130 .452720
3 1 .817576 .014078 .503299
4 1 .208414 .008853 .561681
5 1 .008612 .601693 .531882
6 1 .525795 .471112 .982481
7 1 .490072 .433176 .013080
ITEM: TIMESTEP
1
ITEM: NUMBER OF ATOMS
7
ITEM: BOX BOUNDS ss ss ss
-2.9750 3.2436
-2.8589 3.1616
-1.8502 2.1222
ITEM: ATOMS id type xs ys zs
1 1 .487645 .994101 .442546
2 1 .990210 .633043 .442712
3 1 .817505 .010879 .505058
4 1 .210262 .007327 .567432
5 1 .009355 .604341 .519111
6 1 .518146 .478418 .997420
7 1 .493462 .428284 .013481
ITEM: TIMESTEP
50
ITEM: NUMBER OF ATOMS
7
ITEM: BOX BOUNDS ss ss ss
-2.9750 3.2436
-2.8589 3.1616
-1.8502 2.1432
ITEM: ATOMS id type xs ys zs
1 1 .485530 .994354 .438636
2 1 .988587 .635314 .436748
3 1 .817062 .010155 .500363
4 1 .211567 .006913 .565854
5 1 .008872 .604466 .517612
6 1 .515463 .480919 .992580
7 1 .495173 .426978 .012773
ITEM: TIMESTEP
100
ITEM: NUMBER OF ATOMS
7
ITEM: BOX BOUNDS ss ss ss
-2.9750 3.2436
-2.8589 3.1711
-1.8502 2.1511
ITEM: ATOMS id type xs ys zs
1 1 .486660 .992944 .437947
2 1 .991558 .633933 .441317
3 1 .813323 .006721 .502156
4 1 .210373 .009832 .565175
5 1 .010414 .602251 .514125
6 1 .514782 .477020 .986416
7 1 .495553 .427995 .010576
ITEM: TIMESTEP
150
ITEM: NUMBER OF ATOMS
7
ITEM: BOX BOUNDS ss ss ss
-2.9750 3.2436
-2.8589 3.1783
-1.8502 2.1501
ITEM: ATOMS id type xs ys zs
1 1 .487734 .991484 .435780
2 1 .991893 .633149 .442305
3 1 .814609 .008691 .499794
4 1 .208752 .007347 .560090
5 1 .007184 .602106 .517354
6 1 .519297 .475520 .989670
7 1 .494860 .427353 .011666
ITEM: TIMESTEP
200
ITEM: NUMBER OF ATOMS
7
ITEM: BOX BOUNDS ss ss ss
-2.9750 3.2436
-2.8589 3.1804
-1.8502 2.1510
ITEM: ATOMS id type xs ys zs
1 1 .488174 .995131 .435403
2 1 .994714 .630252 .436862
3 1 .819983 .008904 .496265
4 1 .210146 .010479 .563042
5 1 .004912 .600588 .516217
6 1 .521068 .475924 .985792
7 1 .491796 .426513 .011746
ITEM: TIMESTEP
250
ITEM: NUMBER OF ATOMS
7
ITEM: BOX BOUNDS ss ss ss
-2.9906 3.2436
-2.8589 3.1859
-1.8562 2.1480
ITEM: ATOMS id type xs ys zs
1 1 .488999 .989926 .441056
2 1 .996043 .628765 .447316
3 1 .819690 .009731 .500748
4 1 .210891 .007578 .563586
5 1 .008832 .604551 .513072
6 1 .521113 .471929 .988043
7 1 .495077 .425202 .017822
ITEM: TIMESTEP
300
ITEM: NUMBER OF ATOMS
7
ITEM: BOX BOUNDS ss ss ss
-2.9750 3.2436
-2.8589 3.1828
-1.8502 2.1396
ITEM: ATOMS id type xs ys zs
1 1 .487915 .991894 .441456
2 1 .992966 .631057 .447136
3 1 .823478 .009891 .499167
4 1 .210368 .006984 .569142
5 1 .007088 .606349 .510839
6 1 .522700 .471771 .995145
7 1 .493864 .425726 .015513
ITEM: TIMESTEP
350
ITEM: NUMBER OF ATOMS
7
ITEM: BOX BOUNDS ss ss ss
-2.9885 3.2444
-2.8589 3.1791
-1.8502 2.1383
ITEM: ATOMS id type xs ys zs
1 1 .486494 .995035 .438911
2 1 .989782 .630678 .452683
3 1 .821147 .011488 .495792
4 1 .213297 .007696 .561921
5 1 .010949 .605147 .510181
6 1 .516909 .477304 .984022
7 1 .495393 .429387 .008137
ITEM: TIMESTEP
400
ITEM: NUMBER OF ATOMS
7
ITEM: BOX BOUNDS ss ss ss
-2.9750 3.2458
-2.8590 3.1753
-1.8502 2.1421
ITEM: ATOMS id type xs ys zs
1 1 .486990 .990616 .445325
2 1 .989708 .627380 .443850
3 1 .816181 .013345 .509485
4 1 .206811 .006298 .565991
5 1 .010255 .600602 .516400
6 1 .517877 .471112 .985872
7 1 .492324 .425893 .010780
ITEM: TIMESTEP
1
ITEM: NUMBER OF ATOMS
7
ITEM: BOX BOUNDS ss ss ss
-2.9750 3.2436
-2.8589 3.1616
-1.8502 2.1222
ITEM: ATOMS id type xs ys zs
1 1 .487651 .993919 .443022
2 1 .990137 .633128 .442936
3 1 .817250 .010652 .505050
4 1 .210360 .007344 .566852
5 1 .009129 .604470 .519217
6 1 .517841 .478299 .997980
7 1 .493026 .427879 .013537
ITEM: TIMESTEP
50
ITEM: NUMBER OF ATOMS
7
ITEM: BOX BOUNDS ss ss ss
-2.9750 3.2436
-2.8589 3.1616
-1.8502 2.1466
ITEM: ATOMS id type xs ys zs
1 1 .487154 .993020 .438311
2 1 .989863 .631388 .439395
3 1 .817373 .007999 .504512
4 1 .211503 .007495 .560825
5 1 .011957 .605306 .515868
6 1 .519367 .477710 .988338
7 1 .491753 .428358 .012931
ITEM: TIMESTEP
100
ITEM: NUMBER OF ATOMS
7
ITEM: BOX BOUNDS ss ss ss
-2.9750 3.2436
-2.8589 3.1693
-1.8502 2.1666
ITEM: ATOMS id type xs ys zs
1 1 .487388 .992989 .436110
2 1 .991169 .635776 .441447
3 1 .817679 .009837 .497087
4 1 .207921 .007899 .558414
5 1 .009197 .606131 .510732
6 1 .517502 .476652 .983693
7 1 .490299 .427425 .009578
ITEM: TIMESTEP
150
ITEM: NUMBER OF ATOMS
7
ITEM: BOX BOUNDS ss ss ss
-2.9750 3.2436
-2.8589 3.1727
-1.8502 2.1529
ITEM: ATOMS id type xs ys zs
1 1 .485650 .994300 .441940
2 1 .992530 .635134 .440748
3 1 .818107 .012985 .502684
4 1 .211158 .010620 .564779
5 1 .009947 .602385 .513139
6 1 .518768 .476982 .989264
7 1 .495849 .429726 .014065
ITEM: TIMESTEP
200
ITEM: NUMBER OF ATOMS
7
ITEM: BOX BOUNDS ss ss ss
-2.9750 3.2436
-2.8589 3.1775
-1.8502 2.1494
ITEM: ATOMS id type xs ys zs
1 1 .482457 .993683 .442183
2 1 .988608 .624661 .441029
3 1 .816958 .010123 .502519
4 1 .211436 .005479 .566067
5 1 .004596 .600812 .522981
6 1 .517527 .476754 .993385
7 1 .490143 .425511 .014826
ITEM: TIMESTEP
250
ITEM: NUMBER OF ATOMS
7
ITEM: BOX BOUNDS ss ss ss
-2.9817 3.2436
-2.8589 3.1759
-1.8502 2.1490
ITEM: ATOMS id type xs ys zs
1 1 .486196 .992091 .442481
2 1 .990122 .625599 .446646
3 1 .815735 .009785 .499942
4 1 .209361 .010125 .569008
5 1 .008979 .602885 .520456
6 1 .516325 .474457 .985182
7 1 .492821 .426521 .010758
ITEM: TIMESTEP
300
ITEM: NUMBER OF ATOMS
7
ITEM: BOX BOUNDS ss ss ss
-2.9870 3.2436
-2.8648 3.1782
-1.8502 2.1469
ITEM: ATOMS id type xs ys zs
1 1 .489902 .991836 .434067
2 1 .991913 .626894 .452244
3 1 .818964 .008759 .498690
4 1 .210679 .005282 .569386
5 1 .009199 .604098 .511679
6 1 .517792 .473703 .986291
7 1 .493910 .429203 .013380
ITEM: TIMESTEP
350
ITEM: NUMBER OF ATOMS
7
ITEM: BOX BOUNDS ss ss ss
-2.9902 3.2411
-2.8819 3.1867
-1.8451 2.1461
ITEM: ATOMS id type xs ys zs
1 1 .483538 .987862 .433197
2 1 .990999 .630546 .446716
3 1 .814892 .016438 .504007
4 1 .207302 .014724 .571227
5 1 .005128 .602963 .523062
6 1 .521130 .474578 .989571
7 1 .487023 .429055 .015294
ITEM: TIMESTEP
400
ITEM: NUMBER OF ATOMS
7
ITEM: BOX BOUNDS ss ss ss
-2.9962 3.2350
-2.8692 3.1689
-1.8372 2.1554
ITEM: ATOMS id type xs ys zs
1 1 .482714 .990406 .432294
2 1 .990736 .631492 .444513
3 1 .814767 .014096 .500354
4 1 .209354 .015277 .570638
5 1 .007054 .600924 .521567
6 1 .521443 .476171 .988229
7 1 .487827 .428002 .017982
ITEM: TIMESTEP
1
ITEM: NUMBER OF ATOMS
7
ITEM: BOX BOUNDS ss ss ss
-2.9835 3.2174
-2.8320 3.1421
-1.8254 2.1169
ITEM: ATOMS id type xs ys zs
1 1 .490541 .997418 .440408
2 1 .994442 .633363 .439651
3 1 .820908 .005914 .502114
4 1 .212304 .003216 .564586
5 1 .010654 .604617 .516613
6 1 .520917 .477566 .999139
7 1 .496015 .426802 .007623
ITEM: TIMESTEP
50
ITEM: NUMBER OF ATOMS
7
ITEM: BOX BOUNDS ss ss ss
-2.9835 3.2174
-2.8448 3.1596
-1.8254 2.1452
ITEM: ATOMS id type xs ys zs
1 1 .491233 .994913 .437548
2 1 .994435 .633754 .434809
3 1 .821823 .009502 .498171
4 1 .212682 .005907 .563577
5 1 .011274 .603165 .512633
6 1 .520939 .477087 .993468
7 1 .496695 .427878 .008249
ITEM: TIMESTEP
100
ITEM: NUMBER OF ATOMS
7
ITEM: BOX BOUNDS ss ss ss
-2.9835 3.2187
-2.8562 3.1718
-1.8377 2.1588
ITEM: ATOMS id type xs ys zs
1 1 .487365 .993295 .437030
2 1 .992390 .633592 .444039
3 1 .822170 .008177 .496709
4 1 .214913 .007017 .558658
5 1 .011780 .601451 .509738
6 1 .521116 .476732 .988953
7 1 .500059 .429023 .007680
ITEM: TIMESTEP
150
ITEM: NUMBER OF ATOMS
7
ITEM: BOX BOUNDS ss ss ss
-2.9835 3.2253
-2.8643 3.1777
-1.8495 2.1611
ITEM: ATOMS id type xs ys zs
1 1 .487028 .993509 .438518
2 1 .995281 .629854 .440031
3 1 .815124 .010245 .497500
4 1 .210441 .007113 .562852
5 1 .012891 .604868 .513532
6 1 .519202 .476161 .993570
7 1 .494622 .426112 .012722
ITEM: TIMESTEP
200
ITEM: NUMBER OF ATOMS
7
ITEM: BOX BOUNDS ss ss ss
-2.9835 3.2388
-2.8585 3.1860
-1.8405 2.1671
ITEM: ATOMS id type xs ys zs
1 1 .486956 .995788 .437359
2 1 .992891 .627795 .437519
3 1 .813588 .008269 .499491
4 1 .214020 .005183 .562797
5 1 .012002 .598829 .506204
6 1 .523470 .477055 .984586
7 1 .493290 .428674 .012361
ITEM: TIMESTEP
250
ITEM: NUMBER OF ATOMS
7
ITEM: BOX BOUNDS ss ss ss
-2.9835 3.2404
-2.8605 3.1869
-1.8376 2.1643
ITEM: ATOMS id type xs ys zs
1 1 .487510 .995374 .434140
2 1 .992284 .629186 .427657
3 1 .818723 .006590 .494204
4 1 .210352 .002949 .560723
5 1 .012210 .597962 .513990
6 1 .521765 .471843 .989280
7 1 .495369 .425345 .012991
ITEM: TIMESTEP
300
ITEM: NUMBER OF ATOMS
7
ITEM: BOX BOUNDS ss ss ss
-2.9835 3.2416
-2.8582 3.1979
-1.8331 2.1550
ITEM: ATOMS id type xs ys zs
1 1 .489725 .989151 .436761
2 1 .993904 .625721 .436657
3 1 .822678 .011936 .495773
4 1 .213841 .006188 .564306
5 1 .009524 .597494 .507306
6 1 .526691 .476522 .987087
7 1 .497085 .423888 .014220
ITEM: TIMESTEP
350
ITEM: NUMBER OF ATOMS
7
ITEM: BOX BOUNDS ss ss ss
-2.9835 3.2452
-2.8642 3.1973
-1.8395 2.1474
ITEM: ATOMS id type xs ys zs
1 1 .488240 .990492 .434759
2 1 .991184 .630896 .440436
3 1 .820357 .011467 .490043
4 1 .209651 .006939 .564043
5 1 .010902 .602606 .512875
6 1 .522635 .472036 .987749
7 1 .497118 .425238 .012642
ITEM: TIMESTEP
400
ITEM: NUMBER OF ATOMS
7
ITEM: BOX BOUNDS ss ss ss
-2.9835 3.2592
-2.8634 3.1897
-1.8518 2.1521
ITEM: ATOMS id type xs ys zs
1 1 .490690 .990079 .437536
2 1 .992875 .626019 .437528
3 1 .820243 .015027 .499191
4 1 .214676 .013487 .567169
5 1 .014952 .600203 .512093
6 1 .523387 .478306 .989310
7 1 .496466 .429184 .008182
ITEM: TIMESTEP
1
ITEM: NUMBER OF ATOMS
7
ITEM: BOX BOUNDS ss ss ss
-2.9515 3.2351
-2.8297 3.1427
-1.8443 2.1203
ITEM: ATOMS id type xs ys zs
1 1 .486206 .997416 .442372
2 1 .991556 .632847 .442432
3 1 .817674 .005785 .504487
4 1 .208014 .002770 .566318
5 1 .005372 .604325 .519233
6 1 .516638 .477314 .998535
7 1 .491884 .426825 .012384
ITEM: TIMESTEP
50
ITEM: NUMBER OF ATOMS
7
ITEM: BOX BOUNDS ss ss ss
-2.9515 3.2351
-2.8448 3.1552
-1.8443 2.1490
ITEM: ATOMS id type xs ys zs
1 1 .485525 .994091 .440745
2 1 .990122 .630926 .439689
3 1 .816575 .007798 .498866
4 1 .206885 .006196 .562781
5 1 .005981 .604256 .514566
6 1 .517080 .476707 .993233
7 1 .493618 .427793 .014461
ITEM: TIMESTEP
100
ITEM: NUMBER OF ATOMS
7
ITEM: BOX BOUNDS ss ss ss
-2.9578 3.2351
-2.8508 3.1690
-1.8443 2.1568
ITEM: ATOMS id type xs ys zs
1 1 .486201 .994982 .440423
2 1 .991190 .632216 .442483
3 1 .820018 .008212 .499022
4 1 .209918 .008423 .560327
5 1 .003799 .601994 .517946
6 1 .517604 .476402 .990461
7 1 .493915 .429534 .014857
ITEM: TIMESTEP
150
ITEM: NUMBER OF ATOMS
7
ITEM: BOX BOUNDS ss ss ss
-2.9665 3.2351
-2.8616 3.1840
-1.8443 2.1680
ITEM: ATOMS id type xs ys zs
1 1 .485945 .991608 .432046
2 1 .990078 .628244 .437680
3 1 .818492 .010469 .495571
4 1 .210798 .010053 .560507
5 1 .006976 .603610 .507025
6 1 .517624 .480370 .983508
7 1 .491792 .426375 .011351
ITEM: TIMESTEP
200
ITEM: NUMBER OF ATOMS
7
ITEM: BOX BOUNDS ss ss ss
-2.9734 3.2351
-2.8569 3.1781
-1.8443 2.1590
ITEM: ATOMS id type xs ys zs
1 1 .482901 .989788 .433612
2 1 .994013 .627487 .439306
3 1 .821838 .009649 .490176
4 1 .212158 .008466 .567572
5 1 .004617 .604956 .509475
6 1 .518918 .477039 .991583
7 1 .495020 .427098 .009612
ITEM: TIMESTEP
250
ITEM: NUMBER OF ATOMS
7
ITEM: BOX BOUNDS ss ss ss
-2.9776 3.2365
-2.8560 3.1902
-1.8457 2.1643
ITEM: ATOMS id type xs ys zs
1 1 .487874 .991537 .433253
2 1 .991381 .627241 .441847
3 1 .817460 .007324 .491880
4 1 .211982 .012968 .568679
5 1 .006060 .601906 .504849
6 1 .518813 .476000 .985482
7 1 .491741 .425118 .005808
ITEM: TIMESTEP
300
ITEM: NUMBER OF ATOMS
7
ITEM: BOX BOUNDS ss ss ss
-2.9943 3.2351
-2.8474 3.1830
-1.8519 2.1557
ITEM: ATOMS id type xs ys zs
1 1 .490948 .992120 .431130
2 1 .993048 .627393 .443915
3 1 .820333 .005780 .491250
4 1 .213566 .012413 .570775
5 1 .007347 .601243 .501822
6 1 .521418 .476330 .988727
7 1 .493070 .426117 .009898
ITEM: TIMESTEP
350
ITEM: NUMBER OF ATOMS
7
ITEM: BOX BOUNDS ss ss ss
-2.9994 3.2421
-2.8602 3.1764
-1.8516 2.1540
ITEM: ATOMS id type xs ys zs
1 1 .493805 .988375 .447734