ITEM: TIMESTEP
1
ITEM: NUMBER OF ATOMS
7
ITEM: BOX BOUNDS ss ss ss
-2.9216 3.1870
-2.8174 3.1302
-1.7999 2.1170
ITEM: ATOMS id type xs ys zs
1 1 .487657 .999330 .436297
2 1 .999338 .633638 .436425
3 1 .823376 .003952 .499505
4 1 .205534 .000639 .561900
5 1 .000539 .604766 .513809
6 1 .518646 .477137 .998818
7 1 .493471 .426354 .000877
ITEM: TIMESTEP
50
ITEM: NUMBER OF ATOMS
7
ITEM: BOX BOUNDS ss ss ss
-2.9434 3.2079
-2.8394 3.1528
-1.8226 2.1446
ITEM: ATOMS id type xs ys zs
1 1 .487974 .996440 .434262
2 1 .997304 .631602 .438125
3 1 .821408 .010402 .499335
4 1 .207220 .004194 .562003
5 1 .003355 .604090 .513551
6 1 .518935 .476534 .989909
7 1 .492524 .427086 .007691
ITEM: TIMESTEP
100
ITEM: NUMBER OF ATOMS
7
ITEM: BOX BOUNDS ss ss ss
-2.9532 3.2158
-2.8482 3.1671
-1.8338 2.1447
ITEM: ATOMS id type xs ys zs
1 1 .488217 .994772 .436724
2 1 .996171 .631285 .440635
3 1 .820377 .011466 .502794
4 1 .207986 .006655 .561805
5 1 .003828 .603565 .513779
6 1 .519390 .474648 .988749
7 1 .491425 .427290 .008170
ITEM: TIMESTEP
150
ITEM: NUMBER OF ATOMS
7
ITEM: BOX BOUNDS ss ss ss
-2.9611 3.2266
-2.8571 3.1788
-1.8400 2.1395
ITEM: ATOMS id type xs ys zs
1 1 .484945 .993134 .439219
2 1 .993044 .630997 .442068
3 1 .820693 .014963 .506957
4 1 .206559 .006023 .564599
5 1 .004125 .604981 .520778
6 1 .520083 .472960 .989432
7 1 .488917 .427218 .011211
ITEM: TIMESTEP
200
ITEM: NUMBER OF ATOMS
7
ITEM: BOX BOUNDS ss ss ss
-2.9706 3.2320
-2.8600 3.1860
-1.8470 2.1395
ITEM: ATOMS id type xs ys zs
1 1 .485944 .989490 .438831
2 1 .992500 .629758 .442866
3 1 .818002 .015971 .511921
4 1 .207100 .007152 .564610
5 1 .005686 .603603 .519305
6 1 .520143 .473469 .988184
7 1 .490721 .427998 .010337
ITEM: TIMESTEP
250
ITEM: NUMBER OF ATOMS
7
ITEM: BOX BOUNDS ss ss ss
-2.9771 3.2366
-2.8600 3.1835
-1.8475 2.1357
ITEM: ATOMS id type xs ys zs
1 1 .485949 .990602 .439230
2 1 .993115 .629461 .440478
3 1 .818538 .019328 .512214
4 1 .210474 .005802 .568592
5 1 .004062 .604522 .524106
6 1 .521952 .473513 .987280
7 1 .486794 .428624 .015157
ITEM: TIMESTEP
300
ITEM: NUMBER OF ATOMS
7
ITEM: BOX BOUNDS ss ss ss
-2.9855 3.2367
-2.8677 3.1896
-1.8466 2.1355
ITEM: ATOMS id type xs ys zs
1 1 .487258 .988684 .438423
2 1 .992892 .628854 .441781
3 1 .819720 .020167 .511537
4 1 .211028 .007085 .569148
5 1 .004437 .603871 .523957
6 1 .522028 .472351 .986430
7 1 .488058 .428534 .012958
ITEM: TIMESTEP
350
ITEM: NUMBER OF ATOMS
7
ITEM: BOX BOUNDS ss ss ss
-2.9850 3.2421
-2.8644 3.1844
-1.8577 2.1290
ITEM: ATOMS id type xs ys zs
1 1 .487039 .989843 .439228
2 1 .994923 .627925 .440193
3 1 .820208 .020897 .515043
4 1 .208997 .006788 .575099
5 1 .005514 .602981 .529024
6 1 .521011 .473122 .988446
7 1 .487768 .428665 .014277
ITEM: TIMESTEP
400
ITEM: NUMBER OF ATOMS
7
ITEM: BOX BOUNDS ss ss ss
-2.9949 3.2466
-2.8642 3.1749
-1.8773 2.1332
ITEM: ATOMS id type xs ys zs
1 1 .488282 .988800 .444171
2 1 .992572 .629327 .445029
3 1 .821839 .020997 .514821
4 1 .213172 .009285 .571218
5 1 .004970 .604870 .528775
6 1 .522045 .473404 .986747
7 1 .488747 .428600 .018367
ITEM: TIMESTEP
1
ITEM: NUMBER OF ATOMS
7
ITEM: BOX BOUNDS ss ss ss
-2.9778 3.2409
-2.8507 3.1441
-1.8455 2.1170
ITEM: ATOMS id type xs ys zs
1 1 .488058 .997015 .442780
2 1 .990676 .634187 .442876
3 1 .817823 .009483 .505279
4 1 .210923 .006174 .566979
5 1 .009545 .605575 .519358
6 1 .518526 .478912 .998840
7 1 .493761 .428567 .012403
ITEM: TIMESTEP
50
ITEM: NUMBER OF ATOMS
7
ITEM: BOX BOUNDS ss ss ss
-2.9778 3.2409
-2.8507 3.1565
-1.8455 2.1411
ITEM: ATOMS id type xs ys zs
1 1 .487857 .994251 .441445
2 1 .992113 .632864 .439511
3 1 .818039 .012225 .504018
4 1 .210415 .006506 .562349
5 1 .009090 .604125 .518031
6 1 .516844 .476882 .988353
7 1 .492155 .426794 .010334
ITEM: TIMESTEP
100
ITEM: NUMBER OF ATOMS
7
ITEM: BOX BOUNDS ss ss ss
-2.9778 3.2409
-2.8507 3.1641
-1.8455 2.1476
ITEM: ATOMS id type xs ys zs
1 1 .489248 .993164 .438148
2 1 .994322 .631303 .441373
3 1 .818336 .012516 .500221
4 1 .211535 .006231 .566696
5 1 .008827 .604158 .516002
6 1 .521896 .475318 .989412
7 1 .493496 .429313 .010601
ITEM: TIMESTEP
150
ITEM: NUMBER OF ATOMS
7
ITEM: BOX BOUNDS ss ss ss
-2.9778 3.2409
-2.8533 3.1671
-1.8455 2.1474
ITEM: ATOMS id type xs ys zs
1 1 .489048 .993851 .438667
2 1 .994051 .627884 .441223
3 1 .820041 .013377 .509095
4 1 .209013 .005427 .565427
5 1 .007295 .601656 .516396
6 1 .520612 .476766 .987408
7 1 .492714 .427349 .009693
ITEM: TIMESTEP
200
ITEM: NUMBER OF ATOMS
7
ITEM: BOX BOUNDS ss ss ss
-2.9778 3.2409
-2.8615 3.1669
-1.8455 2.1446
ITEM: ATOMS id type xs ys zs
1 1 .488812 .994265 .439422
2 1 .994203 .629494 .443947
3 1 .819871 .016987 .510603
4 1 .208956 .007137 .564582
5 1 .004535 .603810 .514856
6 1 .520590 .477373 .988877
7 1 .491918 .428776 .011711
ITEM: TIMESTEP
250
ITEM: NUMBER OF ATOMS
7
ITEM: BOX BOUNDS ss ss ss
-2.9778 3.2480
-2.8663 3.1740
-1.8497 2.1515
ITEM: ATOMS id type xs ys zs
1 1 .488673 .991340 .440466
2 1 .994792 .627390 .442826
3 1 .819154 .017524 .509865
4 1 .208229 .008674 .567566
5 1 .005575 .602457 .516336
6 1 .520677 .474888 .985419
7 1 .491618 .428249 .012790
ITEM: TIMESTEP
300
ITEM: NUMBER OF ATOMS
7
ITEM: BOX BOUNDS ss ss ss
-2.9802 3.2593
-2.8687 3.1772
-1.8508 2.1336
ITEM: ATOMS id type xs ys zs
1 1 .488164 .989903 .444605
2 1 .992732 .628610 .446371
3 1 .817797 .019239 .515425
4 1 .208538 .009655 .570479
5 1 .005342 .603638 .518083
6 1 .519000 .474634 .989258
7 1 .490438 .428569 .013757
ITEM: TIMESTEP
350
ITEM: NUMBER OF ATOMS
7
ITEM: BOX BOUNDS ss ss ss
-2.9883 3.2503
-2.8553 3.1734
-1.8557 2.1333
ITEM: ATOMS id type xs ys zs
1 1 .488687 .989595 .447042
2 1 .993126 .630489 .449629
3 1 .819220 .020025 .518612
4 1 .210963 .007788 .567235
5 1 .004868 .602899 .516703
6 1 .517987 .473652 .988301
7 1 .491863 .430508 .014221
ITEM: TIMESTEP
400
ITEM: NUMBER OF ATOMS
7
ITEM: BOX BOUNDS ss ss ss
-2.9929 3.2588
-2.8566 3.1617
-1.8607 2.1301
ITEM: ATOMS id type xs ys zs
1 1 .487820 .992910 .447958
2 1 .992523 .631596 .450315
3 1 .819822 .021516 .520440
4 1 .210607 .007212 .567099
5 1 .004707 .603936 .519766
6 1 .517578 .475208 .987649
7 1 .490653 .430334 .015601
ITEM: TIMESTEP
1
ITEM: NUMBER OF ATOMS
7
ITEM: BOX BOUNDS ss ss ss
-2.9909 3.2419
-2.8403 3.1389
-1.8383 2.1169
ITEM: ATOMS id type xs ys zs
1 1 .489043 .997868 .441768
2 1 .990539 .634122 .441915
3 1 .818086 .007752 .504384
4 1 .212555 .004468 .566169
5 1 .011640 .605399 .518547
6 1 .519430 .478435 .998864
7 1 .494739 .427939 .010593
ITEM: TIMESTEP
50
ITEM: NUMBER OF ATOMS
7
ITEM: BOX BOUNDS ss ss ss
-2.9909 3.2419
-2.8403 3.1546
-1.8383 2.1403
ITEM: ATOMS id type xs ys zs
1 1 .488427 .997801 .438083
2 1 .991322 .632297 .440790
3 1 .819385 .009237 .502648
4 1 .212849 .002969 .565766
5 1 .010819 .605076 .517010
6 1 .519326 .475296 .990757
7 1 .494237 .425811 .010839
ITEM: TIMESTEP
100
ITEM: NUMBER OF ATOMS
7
ITEM: BOX BOUNDS ss ss ss
-2.9909 3.2419
-2.8487 3.1663
-1.8383 2.1507
ITEM: ATOMS id type xs ys zs
1 1 .488433 .993554 .442221
2 1 .992591 .631649 .437484
3 1 .818419 .009632 .503966
4 1 .212788 .008326 .563525
5 1 .007350 .602641 .514587
6 1 .522353 .473338 .986381
7 1 .494702 .426372 .007388
ITEM: TIMESTEP
150
ITEM: NUMBER OF ATOMS
7
ITEM: BOX BOUNDS ss ss ss
-2.9909 3.2419
-2.8525 3.1702
-1.8389 2.1558
ITEM: ATOMS id type xs ys zs
1 1 .489120 .993289 .438075
2 1 .991924 .630198 .438420
3 1 .820004 .010894 .503272
4 1 .211760 .008315 .564384
5 1 .009793 .605326 .512054
6 1 .522510 .472131 .982010
7 1 .493217 .426556 .006702
ITEM: TIMESTEP
200
ITEM: NUMBER OF ATOMS
7
ITEM: BOX BOUNDS ss ss ss
-2.9909 3.2419
-2.8535 3.1780
-1.8419 2.1412
ITEM: ATOMS id type xs ys zs
1 1 .491240 .992337 .440573
2 1 .992798 .628108 .440494
3 1 .818952 .014046 .506144
4 1 .211098 .008322 .564395
5 1 .008991 .604816 .515519
6 1 .520786 .471620 .986600
7 1 .492102 .427031 .005897
ITEM: TIMESTEP
250
ITEM: NUMBER OF ATOMS
7
ITEM: BOX BOUNDS ss ss ss
-2.9909 3.2419
-2.8520 3.1714
-1.8582 2.1415
ITEM: ATOMS id type xs ys zs
1 1 .490791 .992027 .444057
2 1 .993441 .628991 .441873
3 1 .817854 .014941 .511671
4 1 .208564 .006738 .566375
5 1 .009135 .606211 .514911
6 1 .520151 .472023 .984477
7 1 .492407 .427142 .007187
ITEM: TIMESTEP
300
ITEM: NUMBER OF ATOMS
7
ITEM: BOX BOUNDS ss ss ss
-2.9909 3.2428
-2.8597 3.1715
-1.8545 2.1324
ITEM: ATOMS id type xs ys zs
1 1 .491012 .991254 .446269
2 1 .993407 .628265 .442989
3 1 .817953 .016669 .511560
4 1 .208980 .008350 .567198
5 1 .008834 .605859 .516550
6 1 .520946 .471555 .986609
7 1 .490762 .428677 .007189
ITEM: TIMESTEP
350
ITEM: NUMBER OF ATOMS
7
ITEM: BOX BOUNDS ss ss ss
-2.9909 3.2419
-2.8606 3.1725
-1.8715 2.1293
ITEM: ATOMS id type xs ys zs
1 1 .492187 .990277 .447389
2 1 .994073 .626964 .445137
3 1 .819237 .016881 .514379
4 1 .208436 .007165 .569029
5 1 .008082 .605938 .517955
6 1 .520585 .470995 .986062
7 1 .491701 .427456 .013167
ITEM: TIMESTEP
400
ITEM: NUMBER OF ATOMS
7
ITEM: BOX BOUNDS ss ss ss
-2.9909 3.2419
-2.8550 3.1763
-1.8705 2.1247
ITEM: ATOMS id type xs ys zs
1 1 .491966 .990012 .449177
2 1 .993524 .627377 .447042
3 1 .820163 .017702 .516658
4 1 .207388 .006815 .567805
5 1 .007323 .606168 .522573
6 1 .519872 .469253 .985955
7 1 .490792 .426843 .013704
ITEM: TIMESTEP
1
ITEM: NUMBER OF ATOMS
7
ITEM: BOX BOUNDS ss ss ss
-2.9909 3.2419
-2.8403 3.1428
-1.8518 2.1170
ITEM: ATOMS id type xs ys zs
1 1 .489047 .997238 .443711
2 1 .990559 .633683 .443779
3 1 .818098 .007732 .506060
4 1 .212555 .004459 .567619
5 1 .011633 .605011 .520173
6 1 .519452 .478117 .998835
7 1 .494728 .427659 .013957
ITEM: TIMESTEP
50
ITEM: NUMBER OF ATOMS
7
ITEM: BOX BOUNDS ss ss ss
-2.9909 3.2419
-2.8403 3.1549
-1.8518 2.1465
ITEM: ATOMS id type xs ys zs
1 1 .488395 .994170 .438290
2 1 .989803 .631664 .439269
3 1 .819194 .009821 .506809
4 1 .211810 .003510 .562128
5 1 .010398 .604811 .513768
6 1 .520889 .477524 .988700
7 1 .494280 .426969 .010459
ITEM: TIMESTEP
100
ITEM: NUMBER OF ATOMS
7
ITEM: BOX BOUNDS ss ss ss
-2.9909 3.2419
-2.8485 3.1687
-1.8518 2.1535
ITEM: ATOMS id type xs ys zs
1 1 .488952 .991327 .440436
2 1 .990411 .628089 .440638
3 1 .818448 .013303 .504898
4 1 .212406 .006821 .568372
5 1 .008639 .602175 .516594
6 1 .519677 .477258 .989789
7 1 .493640 .427656 .012701
ITEM: TIMESTEP
150
ITEM: NUMBER OF ATOMS
7
ITEM: BOX BOUNDS ss ss ss
-2.9909 3.2419
-2.8542 3.1705
-1.8518 2.1475
ITEM: ATOMS id type xs ys zs
1 1 .487756 .994235 .440953
2 1 .993354 .630262 .442828
3 1 .819068 .019300 .501586
4 1 .212058 .004880 .557825
5 1 .010764 .603072 .517581
6 1 .521092 .473414 .984981
7 1 .493100 .429195 .011564
ITEM: TIMESTEP
200
ITEM: NUMBER OF ATOMS
7
ITEM: BOX BOUNDS ss ss ss
-2.9909 3.2419
-2.8505 3.1770
-1.8518 2.1447
ITEM: ATOMS id type xs ys zs
1 1 .490966 .989617 .443668
2 1 .993350 .629075 .444077
3 1 .819132 .016865 .506646
4 1 .212743 .006302 .572570
5 1 .008199 .602705 .517039
6 1 .519600 .473794 .990155
7 1 .492313 .430122 .011451
ITEM: TIMESTEP
250
ITEM: NUMBER OF ATOMS
7
ITEM: BOX BOUNDS ss ss ss
-2.9909 3.2419
-2.8634 3.1810
-1.8518 2.1406
ITEM: ATOMS id type xs ys zs
1 1 .492479 .988241 .444081
2 1 .993562 .629500 .445638
3 1 .819999 .020036 .509642
4 1 .213016 .010235 .572353
5 1 .007950 .601651 .517432
6 1 .522173 .474546 .992217
7 1 .491677 .430883 .012359
ITEM: TIMESTEP
300
ITEM: NUMBER OF ATOMS
7
ITEM: BOX BOUNDS ss ss ss
-2.9916 3.2419
-2.8678 3.1853
-1.8479 2.1392
ITEM: ATOMS id type xs ys zs
1 1 .491133 .988363 .445914
2 1 .993921 .628417 .443588
3 1 .819955 .020529 .508945
4 1 .211408 .009892 .573812
5 1 .006739 .601623 .517838
6 1 .521241 .473886 .991459
7 1 .490469 .430645 .012567
ITEM: TIMESTEP
350
ITEM: NUMBER OF ATOMS
7
ITEM: BOX BOUNDS ss ss ss
-2.9909 3.2482
-2.8724 3.1798
-1.8543 2.1454
ITEM: ATOMS id type xs ys zs
1 1 .490420 .990247 .444727
2 1 .994348 .629022 .443699
3 1 .819334 .022276 .511679
4 1 .211742 .013212 .574684
5 1 .007736 .603925 .519471
6 1 .522228 .476116 .988724
7 1 .489534 .431063 .013592
ITEM: TIMESTEP
400
ITEM: NUMBER OF ATOMS
7
ITEM: BOX BOUNDS ss ss ss
-2.9887 3.2526
-2.8633 3.1897
-1.8592 2.1512
ITEM: ATOMS id type xs ys zs
1 1 .489280 .987012 .443409
2 1 .993761 .627698 .445245
3 1 .818140 .021053 .512545
4 1 .210276 .010329 .569836
5 1 .007297 .603246 .520260
6 1 .521134 .473519 .985857
7 1 .489646 .429651 .013915
ITEM: TIMESTEP
1
ITEM: NUMBER OF ATOMS
7
ITEM: BOX BOUNDS ss ss ss
-2.9750 3.2383
-2.8282 3.1458
-1.8378 2.1222
ITEM: ATOMS id type xs ys zs
1 1 .488006 .996714 .441140
2 1 .991123 .632651 .441257
3 1 .818102 .005755 .503639
4 1 .210688 .002441 .565388
5 1 .009104 .603907 .517759
6 1 .518517 .476812 .997514
7 1 .493744 .426283 .010458
ITEM: TIMESTEP
50
ITEM: NUMBER OF ATOMS
7
ITEM: BOX BOUNDS ss ss ss
-2.9750 3.2383
-2.8442 3.1547
-1.8378 2.1413
ITEM: ATOMS id type xs ys zs
1 1 .488311 .996973 .439606
2 1 .991662 .632057 .442460
3 1 .818119 .009012 .502358
4 1 .210620 .004438 .560308
5 1 .007437 .604120 .512839
6 1 .521160 .475604 .991569
7 1 .491122 .428040 .010131
ITEM: TIMESTEP
100
ITEM: NUMBER OF ATOMS
7
ITEM: BOX BOUNDS ss ss ss
-2.9750 3.2383
-2.8495 3.1731
-1.8378 2.1485
ITEM: ATOMS id type xs ys zs
1 1 .488479 .993395 .438256
2 1 .992019 .629258 .439361
3 1 .819660 .010319 .501309
4 1 .208524 .005646 .557922
5 1 .006868 .602937 .509219
6 1 .520750 .472380 .986948
7 1 .490920 .426794 .012603
ITEM: TIMESTEP
150
ITEM: NUMBER OF ATOMS
7
ITEM: BOX BOUNDS ss ss ss
-2.9750 3.2383
-2.8588 3.1798
-1.8400 2.1442
ITEM: ATOMS id type xs ys zs
1 1 .487383 .991959 .440828
2 1 .992345 .626965 .438894
3 1 .819019 .011611 .504286
4 1 .210184 .005845 .563186
5 1 .006788 .603943 .514784
6 1 .521797 .473093 .988404
7 1 .489696 .426184 .010956
ITEM: TIMESTEP
200
ITEM: NUMBER OF ATOMS
7
ITEM: BOX BOUNDS ss ss ss
-2.9750 3.2383
-2.8615 3.1828
-1.8378 2.1427
ITEM: ATOMS id type xs ys zs
1 1 .489206 .991240 .442691
2 1 .994659 .628603 .439253
3 1 .820700 .014184 .501122
4 1 .211325 .007634 .563161
5 1 .008101 .602681 .511745
6 1 .522882 .473072 .985228
7 1 .492542 .429852 .011199
ITEM: TIMESTEP
250
ITEM: NUMBER OF ATOMS
7
ITEM: BOX BOUNDS ss ss ss
-2.9750 3.2383
-2.8623 3.1843
-1.8418 2.1381
ITEM: ATOMS id type xs ys zs
1 1 .487015 .991066 .439922
2 1 .992913 .626633 .440409
3 1 .818830 .014054 .506784
4 1 .209269 .005632 .564799
5 1 .006656 .602151 .517331
6 1 .522466 .471666 .985441
7 1 .489173 .425674 .010768
ITEM: TIMESTEP
300
ITEM: NUMBER OF ATOMS
7
ITEM: BOX BOUNDS ss ss ss
-2.9750 3.2423
-2.8679 3.1756
-1.8392 2.1359
ITEM: ATOMS id type xs ys zs
1 1 .489257 .990656 .439200
2 1 .991781 .627919 .441643
3 1 .820119 .017023 .507629
4 1 .208192 .007689 .568183
5 1 .007459 .606594 .513427
6 1 .520265 .472707 .991579
7 1 .489948 .427851 .007761
ITEM: TIMESTEP
350
ITEM: NUMBER OF ATOMS
7
ITEM: BOX BOUNDS ss ss ss
-2.9750 3.2535
-2.8760 3.1827
-1.8548 2.1374
ITEM: ATOMS id type xs ys zs
1 1 .489145 .989573 .442685
2 1 .990247 .627423 .444337
3 1 .818750 .018382 .511219
4 1 .208367 .009635 .568490
5 1 .008031 .605644 .518657
6 1 .520377 .472556 .989609
7 1 .489288 .428529 .011176
ITEM: TIMESTEP
400
ITEM: NUMBER OF ATOMS
7
ITEM: BOX BOUNDS ss ss ss
-2.9763 3.2671
-2.8683 3.1710
-1.8476 2.1316
ITEM: ATOMS id type xs ys zs
1 1 .492938 .990360 .445924
2 1 .992034 .624249 .447523
3 1 .814630 .013706 .506313
4 1 .204419 .008207 .566022
5 1 .005620 .608476 .522855
6 1 .517148 .469931 .985813
7 1 .489138 .429566 .013692
ITEM: TIMESTEP
1
ITEM: NUMBER OF ATOMS
7
ITEM: BOX BOUNDS ss ss ss
-2.9750 3.2411
-2.8589 3.1458
-1.8378 2.1222
ITEM: ATOMS id type xs ys zs
1 1 .487816 .996720 .441116
2 1 .990646 .634498 .441248
3 1 .817729 .010792 .503635
4 1 .210566 .007525 .565388
5 1 .009119 .605937 .517790
6 1 .518276 .479470 .997527
7 1 .493501 .429228 .010433
ITEM: TIMESTEP
50
ITEM: NUMBER OF ATOMS
7
ITEM: BOX BOUNDS ss ss ss
-2.9750 3.2411
-2.8589 3.1583
-1.8378 2.1442
ITEM: ATOMS id type xs ys zs
1 1 .487768 .994792 .438647
2 1 .990526 .632550 .438038
3 1 .818522 .010206 .501767
4 1 .212410 .008847 .563885
5 1 .008382 .605528 .517876
6 1 .520241 .476930 .990336
7 1 .492078 .428704 .007739
ITEM: TIMESTEP
100
ITEM: NUMBER OF ATOMS
7
ITEM: BOX BOUNDS ss ss ss
-2.9750 3.2411
-2.8589 3.1692
-1.8378 2.1533
ITEM: ATOMS id type xs ys zs
1 1 .489949 .992449 .435155
2 1 .991569 .629021 .435892
3 1 .817916 .009351 .502970
4 1 .207471 .009717 .561264
5 1 .008460 .604254 .515384
6 1 .519682 .473939 .985797
7 1 .493032 .424660 .008698
ITEM: TIMESTEP
150
ITEM: NUMBER OF ATOMS
7
ITEM: BOX BOUNDS ss ss ss
-2.9750 3.2411
-2.8733 3.1763
-1.8451 2.1651
ITEM: ATOMS id type xs ys zs
1 1 .488934 .992603 .438926
2 1 .991908 .630857 .440133
3 1 .817987 .014000 .501077
4 1 .210169 .011088 .562052
5 1 .009909 .604382 .515194
6 1 .520961 .475029 .982018
7 1 .491960 .429808 .008576
ITEM: TIMESTEP
200
ITEM: NUMBER OF ATOMS
7
ITEM: BOX BOUNDS ss ss ss
-2.9750 3.2411
-2.8598 3.1765
-1.8557 2.1503
ITEM: ATOMS id type xs ys zs
1 1 .487143 .992282 .442889
2 1 .992531 .629298 .447263
3 1 .815148 .014161 .504057
4 1 .208520 .010054 .564691
5 1 .009848 .604020 .521314
6 1 .521027 .472914 .983565
7 1 .490427 .431009 .008069
ITEM: TIMESTEP
250
ITEM: NUMBER OF ATOMS
7
ITEM: BOX BOUNDS ss ss ss
-2.9750 3.2411
-2.8589 3.1841
-1.8542 2.1502
ITEM: ATOMS id type xs ys zs
1 1 .487674 .991054 .439476
2 1 .993279 .628308 .447704
3 1 .815705 .015651 .502716
4 1 .209466 .010052 .564137
5 1 .008747 .602672 .520540
6 1 .521996 .471559 .985529
7 1 .490495 .429450 .010615
ITEM: TIMESTEP
300
ITEM: NUMBER OF ATOMS
7
ITEM: BOX BOUNDS ss ss ss
-2.9750 3.2411
-2.8589 3.1905
-1.8646 2.1391
ITEM: ATOMS id type xs ys zs
1 1 .487997 .988263 .441060
2 1 .995744 .626943 .447011
3 1 .816046 .014158 .505553
4 1 .210149 .010181 .565840
5 1 .006071 .601069 .521266
6 1 .522983 .470850 .984891
7 1 .490176 .428771 .012041
ITEM: TIMESTEP
350
ITEM: NUMBER OF ATOMS
7
ITEM: BOX BOUNDS ss ss ss
-2.9750 3.2439
-2.8589 3.1883
-1.8699 2.1336
ITEM: ATOMS id type xs ys zs
1 1 .486694 .989404 .445063
2 1 .994121 .629187 .446684
3 1 .819686 .017730 .509093
4 1 .211121 .010110 .565704
5 1 .007532 .600976 .520176
6 1 .521292 .471184 .988148
7 1 .493493 .432832 .009277
ITEM: TIMESTEP
400
ITEM: NUMBER OF ATOMS
7
ITEM: BOX BOUNDS ss ss ss
-2.9750 3.2481
-2.8589 3.1861
-1.8646 2.1408
ITEM: ATOMS id type xs ys zs
1 1 .487354 .989264 .442060
2 1 .993483 .627342 .447331
3 1 .818545 .017771 .506484
4 1 .211124 .008918 .567173
5 1 .006885 .600306 .521512
6 1 .521271 .472247 .985420
7 1 .491501 .431161 .011026
ITEM: TIMESTEP
1
ITEM: NUMBER OF ATOMS
7
ITEM: BOX BOUNDS ss ss ss
-2.9750 3.2436
-2.8589 3.1616
-1.8502 2.1222
ITEM: ATOMS id type xs ys zs
1 1 .487593 .994123 .442861
2 1 .990265 .632850 .442995
3 1 .817412 .010796 .505210
4 1 .210468 .007501 .566729
5 1 .009102 .604359 .519271
6 1 .518065 .478229 .997498
7 1 .493303 .428084 .013534
ITEM: TIMESTEP
50
ITEM: NUMBER OF ATOMS
7
ITEM: BOX BOUNDS ss ss ss
-2.9750 3.2436
-2.8589 3.1616
-1.8502 2.1432
ITEM: ATOMS id type xs ys zs
1 1 .488748 .994482 .439854
2 1 .991532 .631483 .442402
3 1 .818796 .011305 .502619
4 1 .210756 .008031 .562452
5 1 .007755 .605210 .515557
6 1 .518339 .477174 .991381
7 1 .493285 .427834 .012513
ITEM: TIMESTEP
100
ITEM: NUMBER OF ATOMS
7
ITEM: BOX BOUNDS ss ss ss
-2.9750 3.2436
-2.8589 3.1711
-1.8502 2.1511
ITEM: ATOMS id type xs ys zs
1 1 .487147 .993118 .440220
2 1 .993646 .630700 .441569
3 1 .819014 .012195 .500062
4 1 .210111 .008638 .558413
5 1 .007505 .603157 .513733
6 1 .519122 .477545 .984345
7 1 .491660 .428043 .013679
ITEM: TIMESTEP
150
ITEM: NUMBER OF ATOMS
7
ITEM: BOX BOUNDS ss ss ss
-2.9750 3.2436
-2.8589 3.1783
-1.8502 2.1501
ITEM: ATOMS id type xs ys zs
1 1 .487187 .993500 .441243
2 1 .994480 .629009 .442728
3 1 .820017 .011962 .500088
4 1 .208330 .007908 .560895
5 1 .005283 .603977 .511513
6 1 .519051 .472792 .986539
7 1 .492042 .425829 .012369
ITEM: TIMESTEP
200
ITEM: NUMBER OF ATOMS
7
ITEM: BOX BOUNDS ss ss ss
-2.9750 3.2436
-2.8589 3.1804
-1.8502 2.1510
ITEM: ATOMS id type xs ys zs
1 1 .488036 .990492 .441961
2 1 .993686 .628819 .443140
3 1 .819102 .012755 .504176
4 1 .210123 .009165 .563729
5 1 .005841 .602807 .511404
6 1 .517809 .474833 .987116
7 1 .494055 .426914 .010516
ITEM: TIMESTEP
250
ITEM: NUMBER OF ATOMS
7
ITEM: BOX BOUNDS ss ss ss
-2.9906 3.2436
-2.8589 3.1859
-1.8562 2.1480
ITEM: ATOMS id type xs ys zs
1 1 .489353 .990076 .444050
2 1 .990569 .626932 .443731
3 1 .820552 .014379 .509214
4 1 .210483 .008396 .563589
5 1 .009604 .601648 .513072
6 1 .519427 .474164 .985660
7 1 .494795 .425094 .009204
ITEM: TIMESTEP
300
ITEM: NUMBER OF ATOMS
7
ITEM: BOX BOUNDS ss ss ss
-2.9750 3.2436
-2.8589 3.1828
-1.8502 2.1396
ITEM: ATOMS id type xs ys zs
1 1 .488499 .989149 .441525
2 1 .991714 .628171 .444952
3 1 .819744 .013751 .509075
4 1 .207029 .008257 .563594
5 1 .007043 .602901 .511328
6 1 .518980 .471711 .986034
7 1 .491879 .426227 .011032
ITEM: TIMESTEP
350
ITEM: NUMBER OF ATOMS
7
ITEM: BOX BOUNDS ss ss ss
-2.9885 3.2444
-2.8589 3.1791
-1.8502 2.1383
ITEM: ATOMS id type xs ys zs
1 1 .491226 .991055 .443112
2 1 .991434 .627866 .445473
3 1 .819934 .015533 .509825
4 1 .208905 .007733 .563291
5 1 .009568 .604777 .513666
6 1 .519211 .471562 .986962
7 1 .491851 .426122 .010767
ITEM: TIMESTEP
400
ITEM: NUMBER OF ATOMS
7
ITEM: BOX BOUNDS ss ss ss
-2.9750 3.2458
-2.8590 3.1753
-1.8502 2.1421
ITEM: ATOMS id type xs ys zs
1 1 .489642 .990387 .442300
2 1 .990137 .629763 .443443
3 1 .820631 .018770 .508923
4 1 .207869 .008129 .562795
5 1 .005664 .604291 .514330
6 1 .516864 .471558 .986049
7 1 .488765 .427502 .011977
ITEM: TIMESTEP
1
ITEM: NUMBER OF ATOMS
7
ITEM: BOX BOUNDS ss ss ss
-2.9750 3.2436
-2.8589 3.1616
-1.8502 2.1222
ITEM: ATOMS id type xs ys zs
1 1 .487614 .994138 .442850
2 1 .990242 .632865 .442981
3 1 .817393 .010783 .505164
4 1 .210466 .007503 .566738
5 1 .009109 .604332 .519279
6 1 .518061 .478244 .997531
7 1 .493321 .428090 .013559
ITEM: TIMESTEP
50
ITEM: NUMBER OF ATOMS
7
ITEM: BOX BOUNDS ss ss ss
-2.9750 3.2436
-2.8589 3.1616
-1.8502 2.1466
ITEM: ATOMS id type xs ys zs
1 1 .487068 .992136 .442332
2 1 .990586 .632605 .438432
3 1 .818264 .011874 .504773
4 1 .210576 .006389 .564564
5 1 .008047 .603505 .518022
6 1 .518390 .475885 .993284
7 1 .494123 .427851 .011886
ITEM: TIMESTEP
100
ITEM: NUMBER OF ATOMS
7
ITEM: BOX BOUNDS ss ss ss
-2.9750 3.2436
-2.8589 3.1693
-1.8502 2.1666
ITEM: ATOMS id type xs ys zs
1 1 .485019 .992938 .437419
2 1 .990251 .627989 .443872
3 1 .818211 .010549 .502755
4 1 .209090 .006658 .563327
5 1 .006506 .604058 .517653
6 1 .516740 .476558 .987048
7 1 .490264 .428160 .012477
ITEM: TIMESTEP
150
ITEM: NUMBER OF ATOMS
7
ITEM: BOX BOUNDS ss ss ss
-2.9750 3.2436
-2.8589 3.1727
-1.8502 2.1529
ITEM: ATOMS id type xs ys zs
1 1 .484046 .992195 .440739
2 1 .989677 .627676 .444342
3 1 .817959 .013546 .502727
4 1 .208349 .007849 .567131
5 1 .004093 .603575 .519646
6 1 .516131 .477032 .987315
7 1 .488933 .427405 .013025
ITEM: TIMESTEP
200
ITEM: NUMBER OF ATOMS
7
ITEM: BOX BOUNDS ss ss ss
-2.9750 3.2436
-2.8589 3.1775
-1.8502 2.1494
ITEM: ATOMS id type xs ys zs
1 1 .486033 .990812 .437466
2 1 .990137 .629001 .448035
3 1 .817643 .013247 .504855
4 1 .206762 .008933 .571196
5 1 .005253 .602815 .519731
6 1 .517151 .473252 .985812
7 1 .489293 .427707 .011533
ITEM: TIMESTEP
250
ITEM: NUMBER OF ATOMS
7
ITEM: BOX BOUNDS ss ss ss
-2.9817 3.2436
-2.8589 3.1759
-1.8502 2.1490
ITEM: ATOMS id type xs ys zs
1 1 .485283 .991489 .436113
2 1 .990887 .626329 .445630
3 1 .817589 .013859 .504100
4 1 .208904 .007473 .570830
5 1 .005107 .603300 .522161
6 1 .518311 .473674 .985378
7 1 .490105 .425938 .013024
ITEM: TIMESTEP
300
ITEM: NUMBER OF ATOMS
7
ITEM: BOX BOUNDS ss ss ss
-2.9870 3.2436
-2.8648 3.1782
-1.8502 2.1469
ITEM: ATOMS id type xs ys zs
1 1 .484609 .990479 .434137
2 1 .991763 .630385 .447549
3 1 .816270 .016400 .506702
4 1 .208414 .009994 .570149
5 1 .003779 .602296 .521433
6 1 .520320 .474225 .986623
7 1 .489082 .428460 .013328
ITEM: TIMESTEP
350
ITEM: NUMBER OF ATOMS
7
ITEM: BOX BOUNDS ss ss ss
-2.9902 3.2411
-2.8819 3.1867
-1.8451 2.1461
ITEM: ATOMS id type xs ys zs
1 1 .485748 .987873 .433982
2 1 .992152 .630661 .447436
3 1 .817548 .022318 .507643
4 1 .209686 .013231 .570497
5 1 .004478 .602279 .521836
6 1 .520844 .474925 .986579
7 1 .490419 .430650 .012533
ITEM: TIMESTEP
400
ITEM: NUMBER OF ATOMS
7
ITEM: BOX BOUNDS ss ss ss
-2.9962 3.2350
-2.8692 3.1689
-1.8372 2.1554
ITEM: ATOMS id type xs ys zs
1 1 .486648 .991765 .436490
2 1 .992958 .632435 .445232
3 1 .818498 .019676 .509806
4 1 .210712 .010374 .571337
5 1 .005493 .604047 .519515
6 1 .521045 .473017 .985059
7 1 .491599 .430639 .008856
ITEM: TIMESTEP
1
ITEM: NUMBER OF ATOMS
7
ITEM: BOX BOUNDS ss ss ss
-2.9835 3.2174
-2.8320 3.1421
-1.8254 2.1169
ITEM: ATOMS id type xs ys zs
1 1 .490391 .997342 .439948
2 1 .994445 .633250 .440048
3 1 .821116 .006357 .502723
4 1 .212446 .003056 .564742
5 1 .010446 .604528 .516940
6 1 .520910 .477401 .998834
7 1 .496073 .426922 .007330
ITEM: TIMESTEP
50
ITEM: NUMBER OF ATOMS
7
ITEM: BOX BOUNDS ss ss ss
-2.9835 3.2174
-2.8448 3.1596
-1.8254 2.1452
ITEM: ATOMS id type xs ys zs
1 1 .489904 .994217 .437585
2 1 .994707 .631242 .434833
3 1 .821268 .008813 .500479
4 1 .212356 .003954 .562634
5 1 .009999 .603052 .512019
6 1 .521470 .475976 .990629
7 1 .495648 .426824 .005317
ITEM: TIMESTEP
100
ITEM: NUMBER OF ATOMS
7
ITEM: BOX BOUNDS ss ss ss
-2.9835 3.2187
-2.8562 3.1718
-1.8377 2.1588
ITEM: ATOMS id type xs ys zs
1 1 .490594 .992658 .437161
2 1 .995605 .629117 .436241
3 1 .821171 .010643 .499405
4 1 .211285 .008506 .559793
5 1 .009296 .602809 .512786
6 1 .522640 .476073 .988441
7 1 .496017 .427833 .009225
ITEM: TIMESTEP
150
ITEM: NUMBER OF ATOMS
7
ITEM: BOX BOUNDS ss ss ss
-2.9835 3.2253
-2.8643 3.1777
-1.8495 2.1611
ITEM: ATOMS id type xs ys zs
1 1 .488487 .992027 .439810
2 1 .996124 .628235 .436184
3 1 .820335 .012291 .498670
4 1 .207194 .011519 .561498
5 1 .008967 .604929 .513547
6 1 .522253 .475603 .988741
7 1 .492834 .429409 .012763
ITEM: TIMESTEP
200
ITEM: NUMBER OF ATOMS
7
ITEM: BOX BOUNDS ss ss ss
-2.9835 3.2388
-2.8585 3.1860
-1.8405 2.1671
ITEM: ATOMS id type xs ys zs
1 1 .489290 .990059 .437856
2 1 .994662 .627389 .436661
3 1 .820701 .012442 .496412
4 1 .213737 .005832 .564178
5 1 .009996 .600982 .510483
6 1 .524395 .476120 .983635
7 1 .494556 .427310 .013296
ITEM: TIMESTEP
250
ITEM: NUMBER OF ATOMS
7
ITEM: BOX BOUNDS ss ss ss
-2.9835 3.2404
-2.8605 3.1869
-1.8376 2.1643
ITEM: ATOMS id type xs ys zs
1 1 .491632 .989126 .438817
2 1 .995561 .628086 .436187
3 1 .821146 .014178 .495763
4 1 .211820 .008556 .563412
5 1 .010311 .601400 .509333
6 1 .526336 .476311 .984375
7 1 .492756 .427214 .012852
ITEM: TIMESTEP
300
ITEM: NUMBER OF ATOMS
7
ITEM: BOX BOUNDS ss ss ss
-2.9835 3.2416
-2.8582 3.1979
-1.8331 2.1550
ITEM: ATOMS id type xs ys zs
1 1 .488663 .987290 .436834
2 1 .994644 .626896 .437710
3 1 .818713 .013150 .499858
4 1 .212686 .008427 .565157
5 1 .010361 .597713 .509924
6 1 .524052 .474071 .985369
7 1 .493791 .426714 .005178
ITEM: TIMESTEP
350
ITEM: NUMBER OF ATOMS
7
ITEM: BOX BOUNDS ss ss ss
-2.9835 3.2452
-2.8642 3.1973
-1.8395 2.1474
ITEM: ATOMS id type xs ys zs
1 1 .488186 .985824 .438524
2 1 .994905 .629121 .437698
3 1 .818336 .014899 .506453
4 1 .212765 .009763 .568890
5 1 .008780 .598527 .513639
6 1 .523239 .473346 .987620
7 1 .492942 .428376 .008750
ITEM: TIMESTEP
400
ITEM: NUMBER OF ATOMS
7
ITEM: BOX BOUNDS ss ss ss
-2.9835 3.2592
-2.8634 3.1897
-1.8518 2.1521
ITEM: ATOMS id type xs ys zs
1 1 .488167 .987320 .438971
2 1 .993538 .629845 .439068
3 1 .817350 .016652 .509771
4 1 .213241 .011164 .569263
5 1 .008513 .599433 .516266
6 1 .521454 .471988 .986340
7 1 .492543 .427761 .012730
ITEM: TIMESTEP
1
ITEM: NUMBER OF ATOMS
7
ITEM: BOX BOUNDS ss ss ss
-2.9515 3.2351
-2.8297 3.1427
-1.8443 2.1203
ITEM: ATOMS id type xs ys zs
1 1 .486331 .997201 .442239
2 1 .991573 .633029 .442330
3 1 .817845 .005981 .504770
4 1 .207758 .002700 .566329
5 1 .005339 .604311 .518805
6 1 .516970 .477153 .997979
7 1 .492056 .426672 .012031
ITEM: TIMESTEP
50
ITEM: NUMBER OF ATOMS
7
ITEM: BOX BOUNDS ss ss ss
-2.9515 3.2351
-2.8448 3.1552
-1.8443 2.1490
ITEM: ATOMS id type xs ys zs
1 1 .487541 .997563 .440452
2 1 .993578 .631408 .439140
3 1 .818334 .009100 .503643
4 1 .207385 .007972 .561935
5 1 .005495 .603843 .514337
6 1 .517502 .476129 .990021
7 1 .491273 .427393 .011682
ITEM: TIMESTEP
100
ITEM: NUMBER OF ATOMS
7
ITEM: BOX BOUNDS ss ss ss
-2.9578 3.2351
-2.8508 3.1690
-1.8443 2.1568
ITEM: ATOMS id type xs ys zs
1 1 .489660 .994890 .441766
2 1 .994048 .629096 .438208
3 1 .821444 .009987 .500808
4 1 .208426 .010469 .562757
5 1 .007449 .601519 .510788
6 1 .518990 .473196 .988731
7 1 .492333 .426423 .008833
ITEM: TIMESTEP
150
ITEM: NUMBER OF ATOMS
7
ITEM: BOX BOUNDS ss ss ss
-2.9665 3.2351
-2.8616 3.1840
-1.8443 2.1680
ITEM: ATOMS id type xs ys zs
1 1 .491221 .990913 .440259
2 1 .994685 .627996 .437115
3 1 .819245 .013182 .501906
4 1 .209625 .011695 .561986
5 1 .006843 .601645 .508311
6 1 .519860 .472025 .984799
7 1 .493156 .425647 .009124
ITEM: TIMESTEP
200
ITEM: NUMBER OF ATOMS
7
ITEM: BOX BOUNDS ss ss ss
-2.9734 3.2351
-2.8569 3.1781
-1.8443 2.1590
ITEM: ATOMS id type xs ys zs
1 1 .492241 .990882 .440806
2 1 .996454 .628105 .439873
3 1 .819451 .013366 .504155
4 1 .212540 .009635 .560229
5 1 .008880 .600175 .508778
6 1 .521709 .474019 .989345
7 1 .492797 .427910 .009870
ITEM: TIMESTEP
250
ITEM: NUMBER OF ATOMS
7
ITEM: BOX BOUNDS ss ss ss
-2.9776 3.2365
-2.8560 3.1902
-1.8457 2.1643
ITEM: ATOMS id type xs ys zs
1 1 .492322 .988552 .444740
2 1 .995273 .624919 .441426
3 1 .819778 .009853 .503660
4 1 .211292 .009757 .563131
5 1 .008097 .600322 .507483
6 1 .520416 .471094 .983739
7 1 .493736 .425034 .010949
ITEM: TIMESTEP
300
ITEM: NUMBER OF ATOMS
7
ITEM: BOX BOUNDS ss ss ss
-2.9943 3.2351
-2.8474 3.1830
-1.8519 2.1557
ITEM: ATOMS id type xs ys zs
1 1 .493171 .989844 .439488
2 1 .995876 .625676 .443312
3 1 .821758 .011254 .503939
4 1 .214425 .006560 .563613
5 1 .011315 .602710 .510630
6 1 .523095 .473636 .984634
7 1 .495383 .424777 .010681
ITEM: TIMESTEP
350
ITEM: NUMBER OF ATOMS
7
ITEM: BOX BOUNDS ss ss ss
-2.9994 3.2421
-2.8602 3.1764
-1.8516 2.1540
ITEM: ATOMS id type xs ys zs
1 1 .492761 .988209 .438545