ITEM: TIMESTEP
1
ITEM: NUMBER OF ATOMS
7
ITEM: BOX BOUNDS ss ss ss
-2.9216 3.1870
-2.8174 3.1302
-1.7999 2.1170
ITEM: ATOMS id type xs ys zs
1 1 .487639 .999360 .436289
2 1 .999259 .633715 .436330
3 1 .823326 .003773 .499357
4 1 .205562 .000626 .561854
5 1 .000625 .604756 .513806
6 1 .518581 .477260 .998987
7 1 .493542 .426339 .000989
ITEM: TIMESTEP
50
ITEM: NUMBER OF ATOMS
7
ITEM: BOX BOUNDS ss ss ss
-2.9434 3.2079
-2.8394 3.1528
-1.8226 2.1446
ITEM: ATOMS id type xs ys zs
1 1 .487696 .995947 .436425
2 1 .995863 .632716 .436768
3 1 .821114 .007205 .498636
4 1 .207674 .004259 .560543
5 1 .004127 .603891 .512881
6 1 .518686 .477342 .992249
7 1 .493604 .426772 .006634
ITEM: TIMESTEP
100
ITEM: NUMBER OF ATOMS
7
ITEM: BOX BOUNDS ss ss ss
-2.9532 3.2158
-2.8482 3.1671
-1.8338 2.1447
ITEM: ATOMS id type xs ys zs
1 1 .487655 .994151 .437480
2 1 .994916 .631534 .439288
3 1 .820534 .009338 .500532
4 1 .208357 .005785 .562591
5 1 .005219 .603022 .514148
6 1 .519530 .476154 .991045
7 1 .493114 .426836 .009050
ITEM: TIMESTEP
150
ITEM: NUMBER OF ATOMS
7
ITEM: BOX BOUNDS ss ss ss
-2.9611 3.2266
-2.8571 3.1788
-1.8400 2.1395
ITEM: ATOMS id type xs ys zs
1 1 .486798 .993217 .437832
2 1 .993266 .630860 .441335
3 1 .819298 .011745 .503635
4 1 .208700 .007069 .565154
5 1 .005902 .602516 .515746
6 1 .519850 .475135 .990702
7 1 .492166 .427009 .010653
ITEM: TIMESTEP
200
ITEM: NUMBER OF ATOMS
7
ITEM: BOX BOUNDS ss ss ss
-2.9706 3.2320
-2.8600 3.1860
-1.8470 2.1395
ITEM: ATOMS id type xs ys zs
1 1 .486711 .992145 .438767
2 1 .992517 .630187 .443167
3 1 .818804 .013417 .506180
4 1 .209119 .007226 .566293
5 1 .006711 .602801 .517790
6 1 .520351 .473650 .989467
7 1 .491351 .427357 .012298
ITEM: TIMESTEP
250
ITEM: NUMBER OF ATOMS
7
ITEM: BOX BOUNDS ss ss ss
-2.9771 3.2366
-2.8600 3.1835
-1.8475 2.1357
ITEM: ATOMS id type xs ys zs
1 1 .486871 .991709 .439120
2 1 .992076 .630054 .444621
3 1 .818389 .014492 .507979
4 1 .209318 .006634 .566774
5 1 .007311 .603520 .519413
6 1 .520373 .472746 .989474
7 1 .490922 .427515 .012063
ITEM: TIMESTEP
300
ITEM: NUMBER OF ATOMS
7
ITEM: BOX BOUNDS ss ss ss
-2.9855 3.2367
-2.8677 3.1896
-1.8466 2.1355
ITEM: ATOMS id type xs ys zs
1 1 .487854 .989848 .438080
2 1 .992473 .629464 .445415
3 1 .819013 .016691 .508716
4 1 .210160 .007664 .566950
5 1 .008191 .603151 .519613
6 1 .521037 .471892 .988575
7 1 .491317 .427561 .011146
ITEM: TIMESTEP
350
ITEM: NUMBER OF ATOMS
7
ITEM: BOX BOUNDS ss ss ss
-2.9850 3.2421
-2.8644 3.1844
-1.8577 2.1290
ITEM: ATOMS id type xs ys zs
1 1 .487408 .990287 .439814
2 1 .992066 .629599 .447610
3 1 .818731 .017264 .511629
4 1 .209630 .007057 .569511
5 1 .007525 .603465 .522311
6 1 .520730 .471609 .989010
7 1 .490260 .427702 .013914
ITEM: TIMESTEP
400
ITEM: NUMBER OF ATOMS
7
ITEM: BOX BOUNDS ss ss ss
-2.9949 3.2466
-2.8642 3.1749
-1.8773 2.1332
ITEM: ATOMS id type xs ys zs
1 1 .487721 .991498 .441771
2 1 .991805 .630447 .449539
3 1 .818953 .018257 .513858
4 1 .210474 .006998 .571511
5 1 .008406 .604613 .524774
6 1 .521099 .472248 .987114
7 1 .490132 .428453 .018655
ITEM: TIMESTEP
1
ITEM: NUMBER OF ATOMS
7
ITEM: BOX BOUNDS ss ss ss
-2.9778 3.2409
-2.8507 3.1441
-1.8455 2.1170
ITEM: ATOMS id type xs ys zs
1 1 .488040 .997031 .442780
2 1 .990601 .634273 .442815
3 1 .817782 .009291 .505117
4 1 .210954 .006172 .566891
5 1 .009650 .605540 .519401
6 1 .518432 .479052 .998997
7 1 .493841 .428532 .012494
ITEM: TIMESTEP
50
ITEM: NUMBER OF ATOMS
7
ITEM: BOX BOUNDS ss ss ss
-2.9778 3.2409
-2.8507 3.1565
-1.8455 2.1411
ITEM: ATOMS id type xs ys zs
1 1 .487925 .995284 .440071
2 1 .990537 .633020 .440266
3 1 .817690 .008867 .501725
4 1 .211002 .006163 .563513
5 1 .009705 .604265 .516142
6 1 .518566 .478169 .993352
7 1 .493852 .427517 .012358
ITEM: TIMESTEP
100
ITEM: NUMBER OF ATOMS
7
ITEM: BOX BOUNDS ss ss ss
-2.9778 3.2409
-2.8507 3.1641
-1.8455 2.1476
ITEM: ATOMS id type xs ys zs
1 1 .487859 .994294 .439161
2 1 .990920 .631712 .440388
3 1 .817878 .009370 .501246
4 1 .210744 .006282 .563360
5 1 .009409 .603518 .515082
6 1 .519578 .476944 .991208
7 1 .493557 .427086 .011387
ITEM: TIMESTEP
150
ITEM: NUMBER OF ATOMS
7
ITEM: BOX BOUNDS ss ss ss
-2.9778 3.2409
-2.8533 3.1671
-1.8455 2.1474
ITEM: ATOMS id type xs ys zs
1 1 .487999 .993588 .438892
2 1 .992175 .630799 .441170
3 1 .818047 .011557 .501223
4 1 .210884 .006794 .564834
5 1 .009591 .603280 .515248
6 1 .521293 .475989 .990734
7 1 .493335 .428201 .009863
ITEM: TIMESTEP
200
ITEM: NUMBER OF ATOMS
7
ITEM: BOX BOUNDS ss ss ss
-2.9778 3.2409
-2.8615 3.1669
-1.8455 2.1446
ITEM: ATOMS id type xs ys zs
1 1 .488491 .993650 .438608
2 1 .993205 .630745 .442223
3 1 .818303 .013768 .502542
4 1 .210922 .008096 .566132
5 1 .009101 .603627 .516244
6 1 .521961 .476191 .989556
7 1 .493002 .429513 .009704
ITEM: TIMESTEP
250
ITEM: NUMBER OF ATOMS
7
ITEM: BOX BOUNDS ss ss ss
-2.9778 3.2480
-2.8663 3.1740
-1.8497 2.1515
ITEM: ATOMS id type xs ys zs
1 1 .487871 .992561 .437895
2 1 .992754 .629711 .443452
3 1 .817455 .015303 .503876
4 1 .210478 .008621 .566059
5 1 .008319 .603050 .516293
6 1 .521119 .475363 .985726
7 1 .492264 .429487 .010578
ITEM: TIMESTEP
300
ITEM: NUMBER OF ATOMS
7
ITEM: BOX BOUNDS ss ss ss
-2.9802 3.2593
-2.8687 3.1772
-1.8508 2.1336
ITEM: ATOMS id type xs ys zs
1 1 .486767 .991654 .439950
2 1 .991446 .629342 .446985
3 1 .816284 .017029 .506718
4 1 .210149 .008983 .569092
5 1 .008218 .602992 .519301
6 1 .520431 .474483 .988787
7 1 .491234 .430053 .010526
ITEM: TIMESTEP
350
ITEM: NUMBER OF ATOMS
7
ITEM: BOX BOUNDS ss ss ss
-2.9883 3.2503
-2.8553 3.1734
-1.8557 2.1333
ITEM: ATOMS id type xs ys zs
1 1 .488339 .991658 .441298
2 1 .993510 .628258 .448760
3 1 .818425 .016172 .508746
4 1 .210923 .006893 .570740
5 1 .008558 .602598 .520843
6 1 .521464 .473355 .987782
7 1 .491979 .428948 .012170
ITEM: TIMESTEP
400
ITEM: NUMBER OF ATOMS
7
ITEM: BOX BOUNDS ss ss ss
-2.9929 3.2588
-2.8566 3.1617
-1.8607 2.1301
ITEM: ATOMS id type xs ys zs
1 1 .488652 .992965 .443211
2 1 .992694 .629306 .449876
3 1 .817843 .017408 .511796
4 1 .210875 .007266 .572262
5 1 .008609 .603913 .521594
6 1 .520807 .474306 .988517
7 1 .491357 .429716 .013843
ITEM: TIMESTEP
1
ITEM: NUMBER OF ATOMS
7
ITEM: BOX BOUNDS ss ss ss
-2.9909 3.2419
-2.8403 3.1389
-1.8383 2.1169
ITEM: ATOMS id type xs ys zs
1 1 .489036 .997902 .441783
2 1 .990460 .634191 .441819
3 1 .818034 .007569 .504235
4 1 .212585 .004452 .566129
5 1 .011731 .605383 .518546
6 1 .519357 .478565 .999037
7 1 .494825 .427910 .010702
ITEM: TIMESTEP
50
ITEM: NUMBER OF ATOMS
7
ITEM: BOX BOUNDS ss ss ss
-2.9909 3.2419
-2.8403 3.1546
-1.8383 2.1403
ITEM: ATOMS id type xs ys zs
1 1 .488890 .995644 .439052
2 1 .990313 .632684 .439323
3 1 .817901 .007008 .500866
4 1 .212641 .004410 .562797
5 1 .011808 .603742 .515364
6 1 .519490 .477499 .993708
7 1 .494913 .426664 .010663
ITEM: TIMESTEP
100
ITEM: NUMBER OF ATOMS
7
ITEM: BOX BOUNDS ss ss ss
-2.9909 3.2419
-2.8487 3.1663
-1.8383 2.1507
ITEM: ATOMS id type xs ys zs
1 1 .488503 .994347 .437658
2 1 .990487 .631914 .439249
3 1 .818075 .008808 .500066
4 1 .212603 .005897 .562010
5 1 .011210 .603295 .513913
6 1 .520299 .476484 .990649
7 1 .494581 .426505 .010234
ITEM: TIMESTEP
150
ITEM: NUMBER OF ATOMS
7
ITEM: BOX BOUNDS ss ss ss
-2.9909 3.2419
-2.8525 3.1702
-1.8389 2.1558
ITEM: ATOMS id type xs ys zs
1 1 .488019 .993885 .438573
2 1 .990682 .631557 .438830
3 1 .818124 .009546 .501501
4 1 .212919 .007287 .563081
5 1 .009984 .603303 .512831
6 1 .521208 .474668 .986060
7 1 .494566 .426255 .008858
ITEM: TIMESTEP
200
ITEM: NUMBER OF ATOMS
7
ITEM: BOX BOUNDS ss ss ss
-2.9909 3.2419
-2.8535 3.1780
-1.8419 2.1412
ITEM: ATOMS id type xs ys zs
1 1 .488017 .992271 .441642
2 1 .991024 .630304 .440474
3 1 .818726 .009817 .505130
4 1 .212293 .008019 .566416
5 1 .009619 .602987 .514390
6 1 .522004 .472583 .986526
7 1 .494288 .425803 .008296
ITEM: TIMESTEP
250
ITEM: NUMBER OF ATOMS
7
ITEM: BOX BOUNDS ss ss ss
-2.9909 3.2419
-2.8520 3.1714
-1.8582 2.1415
ITEM: ATOMS id type xs ys zs
1 1 .489380 .993632 .443197
2 1 .991536 .630072 .442991
3 1 .819464 .011552 .507302
4 1 .212021 .007613 .568044
5 1 .010203 .604338 .515608
6 1 .522072 .472523 .985924
7 1 .493444 .426463 .010714
ITEM: TIMESTEP
300
ITEM: NUMBER OF ATOMS
7
ITEM: BOX BOUNDS ss ss ss
-2.9909 3.2428
-2.8597 3.1715
-1.8545 2.1324
ITEM: ATOMS id type xs ys zs
1 1 .490050 .993320 .443096
2 1 .991717 .629850 .443796
3 1 .819175 .014539 .508222
4 1 .211555 .008652 .568209
5 1 .010158 .605146 .516338
6 1 .521642 .472897 .987942
7 1 .492690 .427722 .008879
ITEM: TIMESTEP
350
ITEM: NUMBER OF ATOMS
7
ITEM: BOX BOUNDS ss ss ss
-2.9909 3.2419
-2.8606 3.1725
-1.8715 2.1293
ITEM: ATOMS id type xs ys zs
1 1 .490579 .992607 .445918
2 1 .992329 .629105 .446603
3 1 .819071 .015840 .511567
4 1 .210915 .008673 .570180
5 1 .009903 .605499 .518376
6 1 .521367 .472645 .988199
7 1 .492330 .428108 .012418
ITEM: TIMESTEP
400
ITEM: NUMBER OF ATOMS
7
ITEM: BOX BOUNDS ss ss ss
-2.9909 3.2419
-2.8550 3.1763
-1.8705 2.1247
ITEM: ATOMS id type xs ys zs
1 1 .490851 .991218 .446602
2 1 .992847 .627894 .446944
3 1 .818922 .015916 .512848
4 1 .210145 .007624 .570631
5 1 .009458 .604942 .518143
6 1 .521063 .471530 .988644
7 1 .491908 .427421 .011974
ITEM: TIMESTEP
1
ITEM: NUMBER OF ATOMS
7
ITEM: BOX BOUNDS ss ss ss
-2.9909 3.2419
-2.8403 3.1428
-1.8518 2.1170
ITEM: ATOMS id type xs ys zs
1 1 .489037 .997256 .443666
2 1 .990458 .633782 .443702
3 1 .818033 .007562 .505902
4 1 .212586 .004442 .567583
5 1 .011735 .604993 .520170
6 1 .519356 .478258 .999006
7 1 .494827 .427629 .014069
ITEM: TIMESTEP
50
ITEM: NUMBER OF ATOMS
7
ITEM: BOX BOUNDS ss ss ss
-2.9909 3.2419
-2.8403 3.1549
-1.8518 2.1465
ITEM: ATOMS id type xs ys zs
1 1 .488911 .995615 .440292
2 1 .990329 .632749 .440485
3 1 .817928 .006967 .501728
4 1 .212691 .004408 .563328
5 1 .011866 .603711 .516179
6 1 .519399 .477515 .992220
7 1 .494998 .426607 .014004
ITEM: TIMESTEP
100
ITEM: NUMBER OF ATOMS
7
ITEM: BOX BOUNDS ss ss ss
-2.9909 3.2419
-2.8485 3.1687
-1.8518 2.1535
ITEM: ATOMS id type xs ys zs
1 1 .488521 .993876 .439326
2 1 .990874 .631522 .440482
3 1 .818072 .009172 .501118
4 1 .212435 .005865 .562622
5 1 .011446 .602528 .515051
6 1 .520220 .476521 .989420
7 1 .494855 .426417 .013505
ITEM: TIMESTEP
150
ITEM: NUMBER OF ATOMS
7
ITEM: BOX BOUNDS ss ss ss
-2.9909 3.2419
-2.8542 3.1705
-1.8518 2.1475
ITEM: ATOMS id type xs ys zs
1 1 .487539 .993917 .439354
2 1 .991356 .631548 .441344
3 1 .817985 .011895 .502538
4 1 .212008 .007139 .563724
5 1 .010280 .601490 .516151
6 1 .521218 .476270 .989329
7 1 .494559 .427809 .012839
ITEM: TIMESTEP
200
ITEM: NUMBER OF ATOMS
7
ITEM: BOX BOUNDS ss ss ss
-2.9909 3.2419
-2.8505 3.1770
-1.8518 2.1447
ITEM: ATOMS id type xs ys zs
1 1 .487057 .993085 .439517
2 1 .992084 .630407 .442664
3 1 .818260 .013267 .503154
4 1 .211915 .006294 .564045
5 1 .009995 .600491 .516818
6 1 .521685 .474674 .988123
7 1 .494081 .427702 .012405
ITEM: TIMESTEP
250
ITEM: NUMBER OF ATOMS
7
ITEM: BOX BOUNDS ss ss ss
-2.9909 3.2419
-2.8634 3.1810
-1.8518 2.1406
ITEM: ATOMS id type xs ys zs
1 1 .487520 .992242 .440911
2 1 .992795 .630231 .444464
3 1 .818970 .017417 .503905
4 1 .212169 .007715 .564318
5 1 .010191 .601513 .517855
6 1 .521599 .474471 .988462
7 1 .493475 .429489 .011685
ITEM: TIMESTEP
300
ITEM: NUMBER OF ATOMS
7
ITEM: BOX BOUNDS ss ss ss
-2.9916 3.2419
-2.8678 3.1853
-1.8479 2.1392
ITEM: ATOMS id type xs ys zs
1 1 .488425 .990862 .441650
2 1 .993077 .629527 .444818
3 1 .819270 .019050 .504712
4 1 .212482 .008943 .566782
5 1 .009557 .601707 .517717
6 1 .521670 .474217 .988985
7 1 .492742 .430407 .009998
ITEM: TIMESTEP
350
ITEM: NUMBER OF ATOMS
7
ITEM: BOX BOUNDS ss ss ss
-2.9909 3.2482
-2.8724 3.1798
-1.8543 2.1454
ITEM: ATOMS id type xs ys zs
1 1 .489244 .990684 .443087
2 1 .991967 .629600 .445805
3 1 .818423 .020794 .505610
4 1 .212422 .011167 .571719
5 1 .008523 .603145 .517174
6 1 .520883 .475280 .988675
7 1 .491162 .431203 .010722
ITEM: TIMESTEP
400
ITEM: NUMBER OF ATOMS
7
ITEM: BOX BOUNDS ss ss ss
-2.9887 3.2526
-2.8633 3.1897
-1.8592 2.1512
ITEM: ATOMS id type xs ys zs
1 1 .489121 .988371 .443629
2 1 .991465 .627574 .446488
3 1 .818067 .020244 .506269
4 1 .211852 .010312 .573984
5 1 .007696 .601759 .516708
6 1 .520533 .473663 .988015
7 1 .489792 .429538 .012009
ITEM: TIMESTEP
1
ITEM: NUMBER OF ATOMS
7
ITEM: BOX BOUNDS ss ss ss
-2.9750 3.2383
-2.8282 3.1458
-1.8378 2.1222
ITEM: ATOMS id type xs ys zs
1 1 .488017 .996745 .441114
2 1 .991011 .632716 .441147
3 1 .818048 .005545 .503483
4 1 .210696 .002423 .565304
5 1 .009216 .603885 .517784
6 1 .518434 .476958 .997690
7 1 .493825 .426256 .010558
ITEM: TIMESTEP
50
ITEM: NUMBER OF ATOMS
7
ITEM: BOX BOUNDS ss ss ss
-2.9750 3.2383
-2.8442 3.1547
-1.8378 2.1413
ITEM: ATOMS id type xs ys zs
1 1 .487873 .995684 .438879
2 1 .990813 .633010 .439009
3 1 .817868 .007458 .500511
4 1 .210819 .005018 .562449
5 1 .009435 .603959 .515119
6 1 .518452 .478020 .993648
7 1 .494015 .427026 .010639
ITEM: TIMESTEP
100
ITEM: NUMBER OF ATOMS
7
ITEM: BOX BOUNDS ss ss ss
-2.9750 3.2383
-2.8495 3.1731
-1.8378 2.1485
ITEM: ATOMS id type xs ys zs
1 1 .487825 .993410 .438096
2 1 .991189 .630973 .439083
3 1 .817977 .008290 .499952
4 1 .210808 .005719 .561315
5 1 .008924 .602624 .513719
6 1 .519509 .476226 .991013
7 1 .493232 .426401 .010434
ITEM: TIMESTEP
150
ITEM: NUMBER OF ATOMS
7
ITEM: BOX BOUNDS ss ss ss
-2.9750 3.2383
-2.8588 3.1798
-1.8400 2.1442
ITEM: ATOMS id type xs ys zs
1 1 .488048 .993108 .439279
2 1 .991299 .629415 .441534
3 1 .817344 .009878 .501557
4 1 .210264 .006497 .561525
5 1 .007800 .602667 .513778
6 1 .521046 .475226 .989631
7 1 .491366 .427584 .011656
ITEM: TIMESTEP
200
ITEM: NUMBER OF ATOMS
7
ITEM: BOX BOUNDS ss ss ss
-2.9750 3.2383
-2.8615 3.1828
-1.8378 2.1427
ITEM: ATOMS id type xs ys zs
1 1 .487553 .992536 .439562
2 1 .991739 .628682 .441172
3 1 .817732 .010466 .501879
4 1 .209745 .006845 .562170
5 1 .007385 .602669 .513618
6 1 .521701 .474154 .988970
7 1 .490922 .427610 .011415
ITEM: TIMESTEP
250
ITEM: NUMBER OF ATOMS
7
ITEM: BOX BOUNDS ss ss ss
-2.9750 3.2383
-2.8623 3.1843
-1.8418 2.1381
ITEM: ATOMS id type xs ys zs
1 1 .487369 .991820 .441110
2 1 .992741 .628071 .441965
3 1 .818060 .011175 .503437
4 1 .209512 .006792 .565498
5 1 .007431 .602807 .514840
6 1 .522144 .472728 .989073
7 1 .491357 .427337 .011826
ITEM: TIMESTEP
300
ITEM: NUMBER OF ATOMS
7
ITEM: BOX BOUNDS ss ss ss
-2.9750 3.2423
-2.8679 3.1756
-1.8392 2.1359
ITEM: ATOMS id type xs ys zs
1 1 .487351 .992865 .441322
2 1 .993126 .628864 .442337
3 1 .817366 .011995 .503151
4 1 .208740 .007439 .567566
5 1 .007365 .603780 .514784
6 1 .521896 .472424 .988133
7 1 .491718 .428465 .010776
ITEM: TIMESTEP
350
ITEM: NUMBER OF ATOMS
7
ITEM: BOX BOUNDS ss ss ss
-2.9750 3.2535
-2.8760 3.1827
-1.8548 2.1374
ITEM: ATOMS id type xs ys zs
1 1 .487122 .991015 .443437
2 1 .992377 .628069 .445215
3 1 .815596 .013029 .504256
4 1 .207072 .008769 .570350
5 1 .007222 .603906 .515911
6 1 .520911 .471004 .985858
7 1 .491211 .428841 .014153
ITEM: TIMESTEP
400
ITEM: NUMBER OF ATOMS
7
ITEM: BOX BOUNDS ss ss ss
-2.9763 3.2671
-2.8683 3.1710
-1.8476 2.1316
ITEM: ATOMS id type xs ys zs
1 1 .486884 .992264 .443335
2 1 .990775 .628604 .445137
3 1 .813873 .012526 .503982
4 1 .206156 .008007 .570655
5 1 .007185 .604947 .515296
6 1 .519870 .470609 .986606
7 1 .489885 .429116 .012042
ITEM: TIMESTEP
1
ITEM: NUMBER OF ATOMS
7
ITEM: BOX BOUNDS ss ss ss
-2.9750 3.2411
-2.8589 3.1458
-1.8378 2.1222
ITEM: ATOMS id type xs ys zs
1 1 .487797 .996763 .441109
2 1 .990559 .634596 .441144
3 1 .817674 .010626 .503485
4 1 .210600 .007524 .565302
5 1 .009211 .605907 .517783
6 1 .518196 .479630 .997689
7 1 .493603 .429186 .010561
ITEM: TIMESTEP
50
ITEM: NUMBER OF ATOMS
7
ITEM: BOX BOUNDS ss ss ss
-2.9750 3.2411
-2.8589 3.1583
-1.8378 2.1442
ITEM: ATOMS id type xs ys zs
1 1 .487681 .995093 .438542
2 1 .990297 .633611 .438652
3 1 .817481 .009756 .500082
4 1 .210757 .007481 .562038
5 1 .009453 .604575 .514814
6 1 .518193 .479058 .993043
7 1 .493839 .428135 .010721
ITEM: TIMESTEP
100
ITEM: NUMBER OF ATOMS
7
ITEM: BOX BOUNDS ss ss ss
-2.9750 3.2411
-2.8589 3.1692
-1.8378 2.1533
ITEM: ATOMS id type xs ys zs
1 1 .487422 .993787 .436824
2 1 .990510 .632157 .438650
3 1 .817631 .009302 .499176
4 1 .210871 .007632 .561167
5 1 .008945 .603649 .513407
6 1 .519168 .477403 .990382
7 1 .493536 .427395 .010283
ITEM: TIMESTEP
150
ITEM: NUMBER OF ATOMS
7
ITEM: BOX BOUNDS ss ss ss
-2.9750 3.2411
-2.8733 3.1763
-1.8451 2.1651
ITEM: ATOMS id type xs ys zs
1 1 .487458 .992855 .436452
2 1 .990588 .631348 .438738
3 1 .817900 .011358 .499423
4 1 .210796 .010496 .561781
5 1 .008895 .604019 .513693
6 1 .520284 .477026 .986202
7 1 .493335 .428227 .011083
ITEM: TIMESTEP
200
ITEM: NUMBER OF ATOMS
7
ITEM: BOX BOUNDS ss ss ss
-2.9750 3.2411
-2.8598 3.1765
-1.8557 2.1503
ITEM: ATOMS id type xs ys zs
1 1 .487736 .993815 .440588
2 1 .990909 .630899 .444286
3 1 .817086 .011109 .503021
4 1 .210925 .008722 .566905
5 1 .010350 .603296 .518319
6 1 .521572 .474923 .988474
7 1 .492767 .428681 .011855
ITEM: TIMESTEP
250
ITEM: NUMBER OF ATOMS
7
ITEM: BOX BOUNDS ss ss ss
-2.9750 3.2411
-2.8589 3.1841
-1.8542 2.1502
ITEM: ATOMS id type xs ys zs
1 1 .487075 .992913 .441357
2 1 .991730 .629818 .447109
3 1 .816417 .013112 .502417
4 1 .210176 .009136 .566393
5 1 .010580 .602833 .519658
6 1 .521808 .473068 .986893
7 1 .492141 .429877 .010368
ITEM: TIMESTEP
300
ITEM: NUMBER OF ATOMS
7
ITEM: BOX BOUNDS ss ss ss
-2.9750 3.2411
-2.8589 3.1905
-1.8646 2.1391
ITEM: ATOMS id type xs ys zs
1 1 .486813 .991983 .443509
2 1 .992015 .628771 .450576
3 1 .816384 .013711 .505385
4 1 .209550 .009229 .569082
5 1 .010031 .602348 .522929
6 1 .522191 .471971 .989160
7 1 .492093 .429788 .012693
ITEM: TIMESTEP
350
ITEM: NUMBER OF ATOMS
7
ITEM: BOX BOUNDS ss ss ss
-2.9750 3.2439
-2.8589 3.1883
-1.8699 2.1336
ITEM: ATOMS id type xs ys zs
1 1 .486756 .992076 .443915
2 1 .992065 .628956 .452560
3 1 .816391 .014227 .506482
4 1 .209328 .009181 .569898
5 1 .009369 .602565 .524418
6 1 .522061 .471612 .989540
7 1 .491871 .430104 .013810
ITEM: TIMESTEP
400
ITEM: NUMBER OF ATOMS
7
ITEM: BOX BOUNDS ss ss ss
-2.9750 3.2481
-2.8589 3.1861
-1.8646 2.1408
ITEM: ATOMS id type xs ys zs
1 1 .486977 .991318 .440790
2 1 .992841 .628326 .451970
3 1 .816036 .014980 .503760
4 1 .209128 .008912 .566690
5 1 .008500 .602561 .524104
6 1 .522005 .471121 .986410
7 1 .491263 .430891 .011878
ITEM: TIMESTEP
1
ITEM: NUMBER OF ATOMS
7
ITEM: BOX BOUNDS ss ss ss
-2.9750 3.2436
-2.8589 3.1616
-1.8502 2.1222
ITEM: ATOMS id type xs ys zs
1 1 .487595 .994143 .442858
2 1 .990155 .632930 .442889
3 1 .817342 .010593 .505036
4 1 .210513 .007501 .566661
5 1 .009210 .604315 .519293
6 1 .517986 .478371 .997701
7 1 .493399 .428060 .013656
ITEM: TIMESTEP
50
ITEM: NUMBER OF ATOMS
7
ITEM: BOX BOUNDS ss ss ss
-2.9750 3.2436
-2.8589 3.1616
-1.8502 2.1432
ITEM: ATOMS id type xs ys zs
1 1 .487499 .994597 .440423
2 1 .989821 .633232 .440457
3 1 .817145 .009672 .501689
4 1 .210663 .007482 .563530
5 1 .009498 .604244 .516394
6 1 .517910 .478874 .993417
7 1 .493663 .427872 .013822
ITEM: TIMESTEP
100
ITEM: NUMBER OF ATOMS
7
ITEM: BOX BOUNDS ss ss ss
-2.9750 3.2436
-2.8589 3.1711
-1.8502 2.1511
ITEM: ATOMS id type xs ys zs
1 1 .487456 .993783 .439460
2 1 .989932 .631980 .440704
3 1 .817364 .009444 .500584
4 1 .210690 .007763 .562352
5 1 .008675 .603378 .514979
6 1 .518303 .477626 .990613
7 1 .493556 .427353 .012944
ITEM: TIMESTEP
150
ITEM: NUMBER OF ATOMS
7
ITEM: BOX BOUNDS ss ss ss
-2.9750 3.2436
-2.8589 3.1783
-1.8502 2.1501
ITEM: ATOMS id type xs ys zs
1 1 .487342 .993050 .439001
2 1 .990945 .630721 .441929
3 1 .818410 .009516 .499921
4 1 .210997 .008497 .561501
5 1 .007299 .602921 .514631
6 1 .518691 .476817 .988586
7 1 .493252 .426887 .012570
ITEM: TIMESTEP
200
ITEM: NUMBER OF ATOMS
7
ITEM: BOX BOUNDS ss ss ss
-2.9750 3.2436
-2.8589 3.1804
-1.8502 2.1510
ITEM: ATOMS id type xs ys zs
1 1 .487024 .992899 .438811
2 1 .992088 .629623 .442233
3 1 .818988 .009746 .499255
4 1 .210761 .008831 .560802
5 1 .006494 .603111 .513989
6 1 .519445 .476320 .987161
7 1 .493201 .426946 .013009
ITEM: TIMESTEP
250
ITEM: NUMBER OF ATOMS
7
ITEM: BOX BOUNDS ss ss ss
-2.9906 3.2436
-2.8589 3.1859
-1.8562 2.1480
ITEM: ATOMS id type xs ys zs
1 1 .488257 .991677 .440498
2 1 .992408 .628538 .444270
3 1 .819602 .010515 .500600
4 1 .212001 .009057 .563225
5 1 .009080 .602920 .513552
6 1 .520613 .474302 .987667
7 1 .494222 .426367 .014739
ITEM: TIMESTEP
300
ITEM: NUMBER OF ATOMS
7
ITEM: BOX BOUNDS ss ss ss
-2.9750 3.2436
-2.8589 3.1828
-1.8502 2.1396
ITEM: ATOMS id type xs ys zs
1 1 .487041 .991688 .440312
2 1 .992070 .628604 .445667
3 1 .819170 .011403 .501165
4 1 .209690 .008859 .564716
5 1 .007228 .603922 .513245
6 1 .519712 .473070 .989327
7 1 .492660 .426400 .012840
ITEM: TIMESTEP
350
ITEM: NUMBER OF ATOMS
7
ITEM: BOX BOUNDS ss ss ss
-2.9885 3.2444
-2.8589 3.1791
-1.8502 2.1383
ITEM: ATOMS id type xs ys zs
1 1 .488319 .992027 .440609
2 1 .991762 .628708 .446703
3 1 .819511 .012176 .503213
4 1 .210848 .008476 .564580
5 1 .009566 .604437 .512764
6 1 .520466 .472569 .987879
7 1 .493346 .427149 .011252
ITEM: TIMESTEP
400
ITEM: NUMBER OF ATOMS
7
ITEM: BOX BOUNDS ss ss ss
-2.9750 3.2458
-2.8590 3.1753
-1.8502 2.1421
ITEM: ATOMS id type xs ys zs
1 1 .487916 .992410 .441388
2 1 .991317 .628586 .445495
3 1 .819013 .012905 .506977
4 1 .207933 .007766 .564332
5 1 .007584 .604510 .511438
6 1 .518817 .472446 .986139
7 1 .492063 .426900 .010676
ITEM: TIMESTEP
1
ITEM: NUMBER OF ATOMS
7
ITEM: BOX BOUNDS ss ss ss
-2.9750 3.2436
-2.8589 3.1616
-1.8502 2.1222
ITEM: ATOMS id type xs ys zs
1 1 .487598 .994141 .442861
2 1 .990155 .632930 .442890
3 1 .817340 .010593 .505037
4 1 .210513 .007498 .566664
5 1 .009211 .604314 .519289
6 1 .517984 .478373 .997702
7 1 .493404 .428057 .013660
ITEM: TIMESTEP
50
ITEM: NUMBER OF ATOMS
7
ITEM: BOX BOUNDS ss ss ss
-2.9750 3.2436
-2.8589 3.1616
-1.8502 2.1466
ITEM: ATOMS id type xs ys zs
1 1 .487514 .994570 .440092
2 1 .989830 .633289 .440053
3 1 .817086 .009625 .501143
4 1 .210678 .007444 .563053
5 1 .009573 .604224 .515942
6 1 .517857 .478932 .992595
7 1 .493753 .427852 .013844
ITEM: TIMESTEP
100
ITEM: NUMBER OF ATOMS
7
ITEM: BOX BOUNDS ss ss ss
-2.9750 3.2436
-2.8589 3.1693
-1.8502 2.1666
ITEM: ATOMS id type xs ys zs
1 1 .487197 .993806 .437499
2 1 .990133 .632139 .438835
3 1 .817421 .009267 .498542
4 1 .210762 .007662 .560397
5 1 .009342 .603368 .513119
6 1 .518532 .477997 .987681
7 1 .493559 .427257 .013426
ITEM: TIMESTEP
150
ITEM: NUMBER OF ATOMS
7
ITEM: BOX BOUNDS ss ss ss
-2.9750 3.2436
-2.8589 3.1727
-1.8502 2.1529
ITEM: ATOMS id type xs ys zs
1 1 .486668 .993426 .438334
2 1 .990313 .629925 .442104
3 1 .817942 .009484 .501461
4 1 .210688 .007785 .563859
5 1 .008649 .603870 .515415
6 1 .518721 .476664 .990499
7 1 .492576 .427025 .012658
ITEM: TIMESTEP
200
ITEM: NUMBER OF ATOMS
7
ITEM: BOX BOUNDS ss ss ss
-2.9750 3.2436
-2.8589 3.1775
-1.8502 2.1494
ITEM: ATOMS id type xs ys zs
1 1 .484688 .992289 .439139
2 1 .989866 .627106 .444772
3 1 .817572 .010824 .503262
4 1 .209360 .007350 .566249
5 1 .006030 .602887 .518562
6 1 .518002 .476789 .990040
7 1 .490493 .426548 .013118
ITEM: TIMESTEP
250
ITEM: NUMBER OF ATOMS
7
ITEM: BOX BOUNDS ss ss ss
-2.9817 3.2436
-2.8589 3.1759
-1.8502 2.1490
ITEM: ATOMS id type xs ys zs
1 1 .485034 .992577 .439082
2 1 .989659 .626910 .445596
3 1 .817868 .011455 .502665
4 1 .209954 .007645 .567879
5 1 .006439 .602773 .519193
6 1 .518288 .476187 .988888
7 1 .490503 .426803 .013202
ITEM: TIMESTEP
300
ITEM: NUMBER OF ATOMS
7
ITEM: BOX BOUNDS ss ss ss
-2.9870 3.2436
-2.8648 3.1782
-1.8502 2.1469
ITEM: ATOMS id type xs ys zs
1 1 .485177 .992227 .437841
2 1 .989921 .627419 .446972
3 1 .818028 .013131 .503011
4 1 .210060 .008778 .570481
5 1 .006947 .602627 .520263
6 1 .519055 .475560 .988163
7 1 .490597 .427115 .013503
ITEM: TIMESTEP
350
ITEM: NUMBER OF ATOMS
7
ITEM: BOX BOUNDS ss ss ss
-2.9902 3.2411
-2.8819 3.1867
-1.8451 2.1461
ITEM: ATOMS id type xs ys zs
1 1 .485019 .990417 .435104
2 1 .990750 .628533 .446912
3 1 .818232 .016905 .503083
4 1 .209844 .012059 .571294
5 1 .006693 .602623 .520641
6 1 .520219 .475833 .987442
7 1 .490747 .428347 .012281
ITEM: TIMESTEP
400
ITEM: NUMBER OF ATOMS
7
ITEM: BOX BOUNDS ss ss ss
-2.9962 3.2350
-2.8692 3.1689
-1.8372 2.1554
ITEM: ATOMS id type xs ys zs
1 1 .485319 .992267 .431366
2 1 .992555 .631672 .445550
3 1 .818198 .016611 .502839
4 1 .210094 .010730 .568909
5 1 .006704 .603718 .519818
6 1 .522135 .475333 .984167
7 1 .491789 .429145 .010774
ITEM: TIMESTEP
1
ITEM: NUMBER OF ATOMS
7
ITEM: BOX BOUNDS ss ss ss
-2.9835 3.2174
-2.8320 3.1421
-1.8254 2.1169
ITEM: ATOMS id type xs ys zs
1 1 .490359 .997366 .439957
2 1 .994366 .633346 .439980
3 1 .821052 .006169 .502603
4 1 .212477 .003053 .564701
5 1 .010594 .604509 .516969
6 1 .520833 .477589 .999036
7 1 .496180 .426883 .007472
ITEM: TIMESTEP
50
ITEM: NUMBER OF ATOMS
7
ITEM: BOX BOUNDS ss ss ss
-2.9835 3.2174
-2.8448 3.1596
-1.8254 2.1452
ITEM: ATOMS id type xs ys zs
1 1 .490218 .994951 .436687
2 1 .993993 .632677 .436669
3 1 .820767 .007248 .498182
4 1 .212683 .005108 .560462
5 1 .010968 .603526 .513188
6 1 .520676 .477952 .993003
7 1 .496573 .426633 .007739
ITEM: TIMESTEP
100
ITEM: NUMBER OF ATOMS
7
ITEM: BOX BOUNDS ss ss ss
-2.9835 3.2187
-2.8562 3.1718
-1.8377 2.1588
ITEM: ATOMS id type xs ys zs
1 1 .489828 .993667 .436522
2 1 .993966 .631985 .437206
3 1 .820569 .008896 .497692
4 1 .212602 .006927 .560334
5 1 .010694 .602977 .512611
6 1 .521217 .477617 .989839
7 1 .496332 .426848 .010312
ITEM: TIMESTEP
150
ITEM: NUMBER OF ATOMS
7
ITEM: BOX BOUNDS ss ss ss
-2.9835 3.2253
-2.8643 3.1777
-1.8495 2.1611
ITEM: ATOMS id type xs ys zs
1 1 .488837 .993920 .436937
2 1 .994149 .630661 .438342
3 1 .819505 .010082 .498809
4 1 .211784 .008413 .562773
5 1 .009986 .602199 .512942
6 1 .522696 .477471 .988633
7 1 .495656 .428498 .014182
ITEM: TIMESTEP
200
ITEM: NUMBER OF ATOMS
7
ITEM: BOX BOUNDS ss ss ss
-2.9835 3.2388
-2.8585 3.1860
-1.8405 2.1671
ITEM: ATOMS id type xs ys zs
1 1 .488195 .993219 .433984
2 1 .993505 .627930 .435879
3 1 .817741 .009157 .496986
4 1 .211259 .007285 .562984
5 1 .010217 .600692 .510995
6 1 .523675 .476655 .986529
7 1 .494508 .427776 .013292
ITEM: TIMESTEP
250
ITEM: NUMBER OF ATOMS
7
ITEM: BOX BOUNDS ss ss ss
-2.9835 3.2404
-2.8605 3.1869
-1.8376 2.1643
ITEM: ATOMS id type xs ys zs
1 1 .488296 .992481 .433983
2 1 .993633 .627616 .436551
3 1 .818044 .010074 .496361
4 1 .211855 .007725 .564044
5 1 .010714 .600700 .511246
6 1 .524300 .476801 .986195
7 1 .494692 .427565 .012417
ITEM: TIMESTEP
300
ITEM: NUMBER OF ATOMS
7
ITEM: BOX BOUNDS ss ss ss
-2.9835 3.2416
-2.8582 3.1979
-1.8331 2.1550
ITEM: ATOMS id type xs ys zs
1 1 .488354 .990534 .434029
2 1 .993797 .626509 .437829
3 1 .818280 .010101 .496976
4 1 .211938 .007404 .566046
5 1 .011075 .599362 .511349
6 1 .524765 .475707 .987704
7 1 .494643 .426448 .010755
ITEM: TIMESTEP
350
ITEM: NUMBER OF ATOMS
7
ITEM: BOX BOUNDS ss ss ss
-2.9835 3.2452
-2.8642 3.1973
-1.8395 2.1474
ITEM: ATOMS id type xs ys zs
1 1 .488207 .990296 .435324
2 1 .993423 .627594 .440425
3 1 .817547 .011762 .500223
4 1 .211945 .009000 .569199
5 1 .011416 .599358 .512366
6 1 .524807 .475991 .988875
7 1 .494721 .426955 .010728
ITEM: TIMESTEP
400
ITEM: NUMBER OF ATOMS
7
ITEM: BOX BOUNDS ss ss ss
-2.9835 3.2592
-2.8634 3.1897
-1.8518 2.1521
ITEM: ATOMS id type xs ys zs
1 1 .487230 .989468 .439345
2 1 .991448 .628737 .441109
3 1 .816147 .012899 .502399
4 1 .212282 .009565 .568763
5 1 .011020 .599218 .511862
6 1 .523668 .475350 .987251
7 1 .493291 .427828 .011182
ITEM: TIMESTEP
1
ITEM: NUMBER OF ATOMS
7
ITEM: BOX BOUNDS ss ss ss
-2.9515 3.2351
-2.8297 3.1427
-1.8443 2.1203
ITEM: ATOMS id type xs ys zs
1 1 .486315 .997257 .442240
2 1 .991478 .633141 .442270
3 1 .817767 .005799 .504536
4 1 .207797 .002684 .566288
5 1 .005452 .604298 .518820
6 1 .516858 .477345 .998196
7 1 .492151 .426625 .012177
ITEM: TIMESTEP
50
ITEM: NUMBER OF ATOMS
7
ITEM: BOX BOUNDS ss ss ss
-2.9515 3.2351
-2.8448 3.1552
-1.8443 2.1490
ITEM: ATOMS id type xs ys zs
1 1 .486172 .995655 .438896
2 1 .991105 .633171 .438832
3 1 .817472 .007168 .500078
4 1 .208014 .005068 .561920
5 1 .005847 .603901 .514956
6 1 .516687 .478324 .992145
7 1 .492537 .426977 .012492
ITEM: TIMESTEP
100
ITEM: NUMBER OF ATOMS
7
ITEM: BOX BOUNDS ss ss ss
-2.9578 3.2351
-2.8508 3.1690
-1.8443 2.1568
ITEM: ATOMS id type xs ys zs
1 1 .486452 .994309 .437503
2 1 .991193 .631926 .438573
3 1 .817630 .007722 .499069
4 1 .208701 .006046 .560887
5 1 .006583 .602759 .513816
6 1 .517771 .477599 .990404
7 1 .492866 .426680 .012266
ITEM: TIMESTEP
150
ITEM: NUMBER OF ATOMS
7
ITEM: BOX BOUNDS ss ss ss
-2.9665 3.2351
-2.8616 3.1840
-1.8443 2.1680
ITEM: ATOMS id type xs ys zs
1 1 .486501 .992167 .435506
2 1 .990874 .630033 .438773
3 1 .818781 .009748 .496383
4 1 .209727 .008361 .560138
5 1 .007087 .602210 .510721
6 1 .518647 .476695 .987147
7 1 .493045 .427064 .012072
ITEM: TIMESTEP
200
ITEM: NUMBER OF ATOMS
7
ITEM: BOX BOUNDS ss ss ss
-2.9734 3.2351
-2.8569 3.1781
-1.8443 2.1590
ITEM: ATOMS id type xs ys zs
1 1 .487763 .993471 .436073
2 1 .990973 .629169 .441206
3 1 .819798 .009202 .497012
4 1 .211289 .008677 .562923
5 1 .007907 .603259 .509916
6 1 .518955 .475830 .988832
7 1 .493032 .426720 .011201
ITEM: TIMESTEP
250
ITEM: NUMBER OF ATOMS
7
ITEM: BOX BOUNDS ss ss ss
-2.9776 3.2365
-2.8560 3.1902
-1.8457 2.1643
ITEM: ATOMS id type xs ys zs
1 1 .489135 .991248 .436415
2 1 .991679 .627671 .440542
3 1 .819208 .009231 .499382
4 1 .210994 .009310 .562181
5 1 .008113 .601296 .509220
6 1 .519559 .473627 .987222
7 1 .493387 .425785 .011550
ITEM: TIMESTEP
300
ITEM: NUMBER OF ATOMS
7
ITEM: BOX BOUNDS ss ss ss
-2.9943 3.2351
-2.8474 3.1830
-1.8519 2.1557
ITEM: ATOMS id type xs ys zs
1 1 .490832 .991560 .438755
2 1 .992683 .627972 .442360
3 1 .819621 .008051 .502961
4 1 .212884 .007679 .564023
5 1 .010538 .601669 .511905
6 1 .521577 .472653 .988879
7 1 .494924 .425652 .013638
ITEM: TIMESTEP
350
ITEM: NUMBER OF ATOMS
7
ITEM: BOX BOUNDS ss ss ss
-2.9994 3.2421
-2.8602 3.1764
-1.8516 2.1540
ITEM: ATOMS id type xs ys zs
1 1 .490566 .991922 .439573