ITEM: TIMESTEP
1
ITEM: NUMBER OF ATOMS
7
ITEM: BOX BOUNDS ss ss ss
-3.1234 3.1276
-2.6006 3.2801
-1.8439 2.0267
ITEM: ATOMS id type xs ys zs
1 1 .492400 .999282 .593662
2 1 .999247 .636088 .435160
3 1 .818688 .013728 .391103
4 1 .209493 .000683 .505441
5 1 .000794 .603772 .568306
6 1 .543080 .425832 .998911
7 1 .475920 .477778 .001024
ITEM: TIMESTEP
50
ITEM: NUMBER OF ATOMS
7
ITEM: BOX BOUNDS ss ss ss
-3.1456 3.1487
-2.6212 3.3011
-1.8660 2.0523
ITEM: ATOMS id type xs ys zs
1 1 .491891 .996324 .592556
2 1 .993939 .636152 .438499
3 1 .817922 .018153 .391121
4 1 .211929 .002224 .504754
5 1 .006660 .603068 .569038
6 1 .541582 .424800 .991848
7 1 .476767 .478992 .008360
ITEM: TIMESTEP
100
ITEM: NUMBER OF ATOMS
7
ITEM: BOX BOUNDS ss ss ss
-3.1559 3.1578
-2.6320 3.3105
-1.8725 2.0603
ITEM: ATOMS id type xs ys zs
1 1 .493164 .994107 .589908
2 1 .993979 .635363 .435761
3 1 .816858 .020009 .392435
4 1 .212895 .004179 .504254
5 1 .008645 .603948 .569041
6 1 .539837 .424480 .990849
7 1 .477326 .478840 .008757
ITEM: TIMESTEP
150
ITEM: NUMBER OF ATOMS
7
ITEM: BOX BOUNDS ss ss ss
-3.1648 3.1630
-2.6447 3.3148
-1.8773 2.0652
ITEM: ATOMS id type xs ys zs
1 1 .492951 .992978 .588203
2 1 .992029 .636458 .434273
3 1 .815687 .021097 .392650
4 1 .213204 .005946 .503215
5 1 .011459 .604808 .570389
6 1 .539954 .425373 .989784
7 1 .477861 .480398 .009210
ITEM: TIMESTEP
200
ITEM: NUMBER OF ATOMS
7
ITEM: BOX BOUNDS ss ss ss
-3.1547 3.1700
-2.6473 3.3207
-1.8839 2.0683
ITEM: ATOMS id type xs ys zs
1 1 .491174 .993602 .586843
2 1 .990101 .637172 .437733
3 1 .816119 .021533 .391194
4 1 .212572 .006638 .500910
5 1 .009905 .602129 .574468
6 1 .538027 .427574 .986238
7 1 .478387 .480456 .010651
ITEM: TIMESTEP
250
ITEM: NUMBER OF ATOMS
7
ITEM: BOX BOUNDS ss ss ss
-3.1568 3.1665
-2.6538 3.3231
-1.8824 2.0818
ITEM: ATOMS id type xs ys zs
1 1 .493962 .992531 .581057
2 1 .989554 .632873 .437600
3 1 .814429 .022640 .388670
4 1 .214607 .009250 .504988
5 1 .011690 .606609 .573704
6 1 .540459 .427479 .988892
7 1 .475492 .481236 .012606
ITEM: TIMESTEP
300
ITEM: NUMBER OF ATOMS
7
ITEM: BOX BOUNDS ss ss ss
-3.1527 3.1604
-2.6543 3.3191
-1.8816 2.0764
ITEM: ATOMS id type xs ys zs
1 1 .496938 .992515 .583816
2 1 .993877 .634623 .439323
3 1 .817244 .023842 .395627
4 1 .215752 .004325 .495894
5 1 .010323 .603362 .569548
6 1 .537806 .426414 .987561
7 1 .478168 .479855 .014110
ITEM: TIMESTEP
350
ITEM: NUMBER OF ATOMS
7
ITEM: BOX BOUNDS ss ss ss
-3.1401 3.1547
-2.6693 3.3248
-1.8925 2.0740
ITEM: ATOMS id type xs ys zs
1 1 .494434 .991467 .582929
2 1 .994700 .633804 .441611
3 1 .817566 .025305 .395447
4 1 .213917 .005662 .499788
5 1 .008834 .603563 .575279
6 1 .537333 .427283 .988130
7 1 .476949 .480528 .018836
ITEM: TIMESTEP
400
ITEM: NUMBER OF ATOMS
7
ITEM: BOX BOUNDS ss ss ss
-3.1461 3.1652
-2.6637 3.3319
-1.8871 2.0772
ITEM: ATOMS id type xs ys zs
1 1 .488437 .990464 .582943
2 1 .985695 .639341 .437522
3 1 .815183 .026508 .398160
4 1 .214351 .007844 .494233
5 1 .009961 .603838 .576006
6 1 .535202 .427105 .988017
7 1 .476385 .478392 .010029
ITEM: TIMESTEP
1
ITEM: NUMBER OF ATOMS
7
ITEM: BOX BOUNDS ss ss ss
-3.1288 3.1449
-2.6675 3.3249
-1.8840 2.0662
ITEM: ATOMS id type xs ys zs
1 1 .491479 .991832 .591840
2 1 .996487 .635397 .436545
3 1 .816580 .024664 .393376
4 1 .209607 .011848 .505406
5 1 .001666 .603703 .566989
6 1 .541979 .429073 .988931
7 1 .475073 .480045 .011144
ITEM: TIMESTEP
50
ITEM: NUMBER OF ATOMS
7
ITEM: BOX BOUNDS ss ss ss
-3.1486 3.1522
-2.6675 3.3249
-1.8840 2.0636
ITEM: ATOMS id type xs ys zs
1 1 .493262 .992215 .590658
2 1 .994223 .634960 .440639
3 1 .814690 .025186 .396774
4 1 .211907 .010840 .504540
5 1 .007006 .605156 .568182
6 1 .542088 .429237 .990924
7 1 .477402 .479698 .009928
ITEM: TIMESTEP
100
ITEM: NUMBER OF ATOMS
7
ITEM: BOX BOUNDS ss ss ss
-3.1578 3.1584
-2.6675 3.3249
-1.8799 2.0636
ITEM: ATOMS id type xs ys zs
1 1 .492049 .991542 .592531
2 1 .993121 .635105 .432720
3 1 .815567 .022362 .392711
4 1 .212337 .010193 .502354
5 1 .009924 .605249 .570255
6 1 .541293 .425574 .989299
7 1 .475975 .481193 .010611
ITEM: TIMESTEP
150
ITEM: NUMBER OF ATOMS
7
ITEM: BOX BOUNDS ss ss ss
-3.1572 3.1610
-2.6675 3.3249
-1.8799 2.0657
ITEM: ATOMS id type xs ys zs
1 1 .492085 .990536 .592350
2 1 .991415 .634293 .433931
3 1 .815401 .021379 .394729
4 1 .213227 .010679 .500449
5 1 .011534 .606016 .570318
6 1 .541784 .425852 .988111
7 1 .476796 .480512 .008619
ITEM: TIMESTEP
200
ITEM: NUMBER OF ATOMS
7
ITEM: BOX BOUNDS ss ss ss
-3.1564 3.1651
-2.6675 3.3133
-1.8886 2.0753
ITEM: ATOMS id type xs ys zs
1 1 .491464 .993015 .592214
2 1 .990076 .633910 .434919
3 1 .815480 .022217 .397225
4 1 .212761 .009491 .499778
5 1 .011967 .606059 .572515
6 1 .539353 .428333 .985802
7 1 .477776 .481878 .009548
ITEM: TIMESTEP
250
ITEM: NUMBER OF ATOMS
7
ITEM: BOX BOUNDS ss ss ss
-3.1632 3.1628
-2.6675 3.3195
-1.8862 2.0748
ITEM: ATOMS id type xs ys zs
1 1 .492643 .991603 .590304
2 1 .992040 .634252 .436092
3 1 .816359 .023218 .396357
4 1 .213668 .009657 .500119
5 1 .012506 .606094 .573506
6 1 .539658 .427083 .985815
7 1 .479106 .481568 .008863
ITEM: TIMESTEP
300
ITEM: NUMBER OF ATOMS
7
ITEM: BOX BOUNDS ss ss ss
-3.1584 3.1672
-2.6675 3.3172
-1.8895 2.0772
ITEM: ATOMS id type xs ys zs
1 1 .492304 .991422 .589164
2 1 .993145 .635743 .437880
3 1 .814272 .023512 .396495
4 1 .213525 .008278 .498050
5 1 .012631 .606006 .575613
6 1 .539209 .427400 .985149
7 1 .479019 .481916 .010334
ITEM: TIMESTEP
350
ITEM: NUMBER OF ATOMS
7
ITEM: BOX BOUNDS ss ss ss
-3.1610 3.1583
-2.6675 3.3236
-1.8914 2.0802
ITEM: ATOMS id type xs ys zs
1 1 .492780 .992190 .586715
2 1 .991180 .634198 .434549
3 1 .815048 .023257 .393238
4 1 .213525 .009064 .496733
5 1 .013070 .607166 .572934
6 1 .539474 .426321 .984145
7 1 .477892 .480934 .006464
ITEM: TIMESTEP
400
ITEM: NUMBER OF ATOMS
7
ITEM: BOX BOUNDS ss ss ss
-3.1438 3.1583
-2.6675 3.3230
-1.8929 2.0831
ITEM: ATOMS id type xs ys zs
1 1 .493928 .991894 .588193
2 1 .990943 .634801 .433237
3 1 .814667 .024093 .392064
4 1 .211919 .009394 .497141
5 1 .010234 .606024 .575518
6 1 .537540 .426274 .986739
7 1 .474460 .482534 .011631
ITEM: TIMESTEP
1
ITEM: NUMBER OF ATOMS
7
ITEM: BOX BOUNDS ss ss ss
-3.1351 3.1575
-2.6474 3.3167
-1.8934 2.0687
ITEM: ATOMS id type xs ys zs
1 1 .491006 .993163 .592429
2 1 .994485 .635041 .437617
3 1 .815127 .021394 .394580
4 1 .209986 .008523 .506263
5 1 .002652 .603196 .567676
6 1 .541354 .427735 .988349
7 1 .474642 .478943 .013500
ITEM: TIMESTEP
50
ITEM: NUMBER OF ATOMS
7
ITEM: BOX BOUNDS ss ss ss
-3.1477 3.1575
-2.6474 3.3167
-1.8934 2.0687
ITEM: ATOMS id type xs ys zs
1 1 .491818 .993704 .588996
2 1 .992957 .635402 .436734
3 1 .814516 .021262 .394935
4 1 .211186 .007431 .504743
5 1 .004828 .602354 .570960
6 1 .541786 .427700 .989707
7 1 .475112 .479504 .014960
ITEM: TIMESTEP
100
ITEM: NUMBER OF ATOMS
7
ITEM: BOX BOUNDS ss ss ss
-3.1594 3.1618
-2.6474 3.3146
-1.8934 2.0662
ITEM: ATOMS id type xs ys zs
1 1 .490882 .993863 .588709
2 1 .990322 .636549 .438273
3 1 .813781 .023541 .396446
4 1 .212457 .005025 .505891
5 1 .006303 .602325 .573602
6 1 .541605 .426368 .991938
7 1 .475657 .481270 .013980
ITEM: TIMESTEP
150
ITEM: NUMBER OF ATOMS
7
ITEM: BOX BOUNDS ss ss ss
-3.1591 3.1689
-2.6474 3.3146
-1.8934 2.0718
ITEM: ATOMS id type xs ys zs
1 1 .492493 .993185 .588201
2 1 .989571 .636444 .435594
3 1 .810931 .022231 .395287
4 1 .212937 .005932 .507300
5 1 .009104 .605729 .571602
6 1 .537992 .427849 .989409
7 1 .476337 .483197 .013346
ITEM: TIMESTEP
200
ITEM: NUMBER OF ATOMS
7
ITEM: BOX BOUNDS ss ss ss
-3.1668 3.1663
-2.6474 3.3238
-1.8934 2.0720
ITEM: ATOMS id type xs ys zs
1 1 .492608 .991045 .588415
2 1 .990662 .634119 .437347
3 1 .813239 .021406 .392599
4 1 .214982 .005694 .508815
5 1 .011256 .603483 .573937
6 1 .539338 .425182 .989649
7 1 .476334 .479233 .012511
ITEM: TIMESTEP
250
ITEM: NUMBER OF ATOMS
7
ITEM: BOX BOUNDS ss ss ss
-3.1560 3.1677
-2.6508 3.3165
-1.8934 2.0732
ITEM: ATOMS id type xs ys zs
1 1 .491812 .993453 .587416
2 1 .991898 .635788 .437008
3 1 .812264 .023999 .395094
4 1 .214557 .005380 .504758
5 1 .011201 .605024 .574090
6 1 .537069 .426175 .990468
7 1 .476502 .481334 .013631
ITEM: TIMESTEP
300
ITEM: NUMBER OF ATOMS
7
ITEM: BOX BOUNDS ss ss ss
-3.1476 3.1696
-2.6564 3.3163
-1.8934 2.0744
ITEM: ATOMS id type xs ys zs
1 1 .494903 .994000 .590296
2 1 .993301 .635275 .437304
3 1 .813292 .024298 .396799
4 1 .212602 .003343 .499977
5 1 .012311 .607611 .576112
6 1 .535768 .425647 .986574
7 1 .476815 .482295 .011733
ITEM: TIMESTEP
350
ITEM: NUMBER OF ATOMS
7
ITEM: BOX BOUNDS ss ss ss
-3.1474 3.1607
-2.6566 3.3296
-1.8934 2.0803
ITEM: ATOMS id type xs ys zs
1 1 .496333 .991510 .585451
2 1 .994444 .633090 .436444
3 1 .814009 .023649 .392972
4 1 .212067 .004017 .496820
5 1 .014831 .607968 .578583
6 1 .536076 .424790 .984242
7 1 .477500 .479937 .012500
ITEM: TIMESTEP
400
ITEM: NUMBER OF ATOMS
7
ITEM: BOX BOUNDS ss ss ss
-3.1483 3.1563
-2.6751 3.3232
-1.8907 2.0877
ITEM: ATOMS id type xs ys zs
1 1 .497001 .993029 .582250
2 1 .995010 .636314 .436718
3 1 .814766 .026272 .395591
4 1 .211823 .007039 .496604
5 1 .014056 .607915 .576142
6 1 .536584 .426874 .983263
7 1 .476657 .482825 .012679
ITEM: TIMESTEP
1
ITEM: NUMBER OF ATOMS
7
ITEM: BOX BOUNDS ss ss ss
-3.1383 3.1538
-2.6685 3.3146
-1.8869 2.0676
ITEM: ATOMS id type xs ys zs
1 1 .491554 .993529 .591930
2 1 .995075 .636556 .436826
3 1 .815703 .024865 .393688
4 1 .210516 .012030 .505581
5 1 .003162 .604812 .567125
6 1 .541896 .429900 .988604
7 1 .475189 .480951 .011888
ITEM: TIMESTEP
50
ITEM: NUMBER OF ATOMS
7
ITEM: BOX BOUNDS ss ss ss
-3.1496 3.1538
-2.6685 3.3146
-1.8869 2.0676
ITEM: ATOMS id type xs ys zs
1 1 .492469 .994002 .590129
2 1 .994268 .636454 .435315
3 1 .816131 .024305 .392603
4 1 .212307 .012247 .502870
5 1 .007245 .605097 .567819
6 1 .541318 .429585 .989546
7 1 .476272 .483189 .011543
ITEM: TIMESTEP
100
ITEM: NUMBER OF ATOMS
7
ITEM: BOX BOUNDS ss ss ss
-3.1631 3.1600
-2.6685 3.3149
-1.8869 2.0666
ITEM: ATOMS id type xs ys zs
1 1 .492265 .993158 .591278
2 1 .992436 .636765 .437712
3 1 .815523 .026170 .394547
4 1 .215913 .010813 .503424
5 1 .010833 .604564 .567363
6 1 .541134 .429529 .987968
7 1 .477154 .483042 .010425
ITEM: TIMESTEP
150
ITEM: NUMBER OF ATOMS
7
ITEM: BOX BOUNDS ss ss ss
-3.1560 3.1653
-2.6632 3.3146
-1.8869 2.0668
ITEM: ATOMS id type xs ys zs
1 1 .492093 .993488 .586546
2 1 .993566 .637584 .436517
3 1 .815121 .024677 .393202
4 1 .214088 .008048 .508135
5 1 .009501 .607430 .568537
6 1 .539298 .428335 .989133
7 1 .477855 .482891 .012463
ITEM: TIMESTEP
200
ITEM: NUMBER OF ATOMS
7
ITEM: BOX BOUNDS ss ss ss
-3.1646 3.1697
-2.6582 3.3146
-1.8869 2.0774
ITEM: ATOMS id type xs ys zs
1 1 .491893 .993581 .589080
2 1 .991476 .636491 .436253
3 1 .814000 .022370 .392346
4 1 .214542 .006672 .502345
5 1 .011412 .604567 .567560
6 1 .539078 .426430 .985411
7 1 .476930 .481954 .010697
ITEM: TIMESTEP
250
ITEM: NUMBER OF ATOMS
7
ITEM: BOX BOUNDS ss ss ss
-3.1512 3.1652
-2.6582 3.3151
-1.9036 2.0807
ITEM: ATOMS id type xs ys zs
1 1 .489447 .993289 .586680
2 1 .991141 .638127 .437594
3 1 .814652 .024998 .394674
4 1 .212503 .007699 .505505
5 1 .009877 .604154 .568923
6 1 .538342 .427424 .985887
7 1 .475841 .482285 .014425
ITEM: TIMESTEP
300
ITEM: NUMBER OF ATOMS
7
ITEM: BOX BOUNDS ss ss ss
-3.1535 3.1705
-2.6489 3.3158
-1.8954 2.0744
ITEM: ATOMS id type xs ys zs
1 1 .486755 .992279 .588163
2 1 .989216 .639898 .443348
3 1 .814411 .023224 .390918
4 1 .211712 .004510 .504936
5 1 .010035 .600766 .573117
6 1 .536258 .426811 .989700
7 1 .474964 .480043 .010112
ITEM: TIMESTEP
350
ITEM: NUMBER OF ATOMS
7
ITEM: BOX BOUNDS ss ss ss
-3.1513 3.1687
-2.6527 3.3210
-1.9014 2.0794
ITEM: ATOMS id type xs ys zs
1 1 .491719 .992772 .585599
2 1 .988417 .636006 .438850
3 1 .813159 .021289 .392391
4 1 .213355 .005765 .506577
5 1 .008965 .603261 .572079
6 1 .538016 .426085 .983873
7 1 .474752 .481933 .010332
ITEM: TIMESTEP
400
ITEM: NUMBER OF ATOMS
7
ITEM: BOX BOUNDS ss ss ss
-3.1481 3.1753
-2.6614 3.3248
-1.8957 2.0816
ITEM: ATOMS id type xs ys zs
1 1 .489837 .992818 .584551
2 1 .989021 .636820 .434017
3 1 .812166 .024838 .391188
4 1 .209372 .006275 .509323
5 1 .010668 .604041 .574721
6 1 .539455 .426790 .984466
7 1 .473192 .481245 .014307
ITEM: TIMESTEP
1
ITEM: NUMBER OF ATOMS
7
ITEM: BOX BOUNDS ss ss ss
-3.1323 3.1603
-2.6607 3.3193
-1.8923 2.0684
ITEM: ATOMS id type xs ys zs
1 1 .490565 .992752 .592362
2 1 .994051 .635573 .437469
3 1 .814689 .023571 .394436
4 1 .209527 .010728 .506161
5 1 .002199 .603809 .567583
6 1 .540921 .428820 .988397
7 1 .474199 .479898 .013197
ITEM: TIMESTEP
50
ITEM: NUMBER OF ATOMS
7
ITEM: BOX BOUNDS ss ss ss
-3.1548 3.1603
-2.6607 3.3193
-1.8923 2.0684
ITEM: ATOMS id type xs ys zs
1 1 .490691 .993771 .587861
2 1 .993641 .635306 .438766
3 1 .814762 .023622 .393354
4 1 .212222 .011985 .504993
5 1 .007523 .606130 .572133
6 1 .544037 .428679 .987954
7 1 .477923 .480488 .010557
ITEM: TIMESTEP
100
ITEM: NUMBER OF ATOMS
7
ITEM: BOX BOUNDS ss ss ss
-3.1630 3.1608
-2.6607 3.3193
-1.8923 2.0684
ITEM: ATOMS id type xs ys zs
1 1 .492642 .992304 .585971
2 1 .993664 .635366 .437874
3 1 .816802 .024521 .393441
4 1 .215674 .011083 .504873
5 1 .009360 .606957 .573480
6 1 .544610 .429695 .989953
7 1 .480150 .480435 .012103
ITEM: TIMESTEP
150
ITEM: NUMBER OF ATOMS
7
ITEM: BOX BOUNDS ss ss ss
-3.1688 3.1675
-2.6607 3.3193
-1.8923 2.0684
ITEM: ATOMS id type xs ys zs
1 1 .491888 .990609 .583349
2 1 .991671 .634941 .435413
3 1 .815933 .023237 .397792
4 1 .216740 .008053 .499371
5 1 .008380 .602510 .567101
6 1 .540760 .426231 .985602
7 1 .474712 .481048 .009496
ITEM: TIMESTEP
200
ITEM: NUMBER OF ATOMS
7
ITEM: BOX BOUNDS ss ss ss
-3.1625 3.1729
-2.6607 3.3193
-1.8923 2.0690
ITEM: ATOMS id type xs ys zs
1 1 .492093 .991928 .583809
2 1 .989645 .637373 .440205
3 1 .814119 .023892 .395710
4 1 .216755 .008274 .498084
5 1 .007344 .601778 .565836
6 1 .539748 .426294 .984665
7 1 .476704 .479800 .011946
ITEM: TIMESTEP
250
ITEM: NUMBER OF ATOMS
7
ITEM: BOX BOUNDS ss ss ss
-3.1754 3.1665
-2.6607 3.3237
-1.8923 2.0766
ITEM: ATOMS id type xs ys zs
1 1 .493120 .990311 .585601
2 1 .990710 .638874 .435981
3 1 .814992 .023041 .393776
4 1 .216530 .009497 .499676
5 1 .011263 .604718 .567195
6 1 .540167 .428066 .982041
7 1 .478662 .481375 .011754
ITEM: TIMESTEP
300
ITEM: NUMBER OF ATOMS
7
ITEM: BOX BOUNDS ss ss ss
-3.1611 3.1666
-2.6607 3.3286
-1.8923 2.0865
ITEM: ATOMS id type xs ys zs
1 1 .491744 .990555 .581254
2 1 .990805 .640732 .437159
3 1 .813989 .022644 .392079
4 1 .213589 .009699 .496984
5 1 .009357 .604859 .566541
6 1 .539303 .425797 .977227
7 1 .479882 .481174 .013118
ITEM: TIMESTEP
350
ITEM: NUMBER OF ATOMS
7
ITEM: BOX BOUNDS ss ss ss
-3.1622 3.1665
-2.6566 3.3367
-1.8923 2.0825
ITEM: ATOMS id type xs ys zs
1 1 .490793 .991493 .586168
2 1 .990909 .636565 .438537
3 1 .814298 .022418 .395545
4 1 .214990 .008015 .499263
5 1 .010228 .604683 .566915
6 1 .539139 .426435 .981678
7 1 .479914 .481232 .011536
ITEM: TIMESTEP
400
ITEM: NUMBER OF ATOMS
7
ITEM: BOX BOUNDS ss ss ss
-3.1542 3.1693
-2.6589 3.3425
-1.8923 2.0934
ITEM: ATOMS id type xs ys zs
1 1 .491729 .989714 .583432
2 1 .990665 .637761 .436000
3 1 .814385 .022154 .391909
4 1 .214350 .007488 .492428
5 1 .008708 .605382 .561687
6 1 .536316 .423726 .977893
7 1 .476418 .479451 .009156
ITEM: TIMESTEP
1
ITEM: NUMBER OF ATOMS
7
ITEM: BOX BOUNDS ss ss ss
-3.1551 3.1627
-2.6577 3.3373
-1.8839 2.0834
ITEM: ATOMS id type xs ys zs
1 1 .492215 .989771 .589251
2 1 .993684 .633484 .434653
3 1 .815054 .023014 .391645
4 1 .212318 .010199 .503191
5 1 .005822 .601818 .564533
6 1 .542363 .427256 .984636
7 1 .475920 .478206 .011095
ITEM: TIMESTEP
50
ITEM: NUMBER OF ATOMS
7
ITEM: BOX BOUNDS ss ss ss
-3.1551 3.1627
-2.6577 3.3373
-1.8803 2.0834
ITEM: ATOMS id type xs ys zs
1 1 .492552 .989706 .587927
2 1 .993746 .633495 .435918
3 1 .815641 .024610 .392770
4 1 .214159 .009095 .504635
5 1 .009291 .602104 .564941
6 1 .540592 .426686 .984237
7 1 .476505 .476189 .008131
ITEM: TIMESTEP
100
ITEM: NUMBER OF ATOMS
7
ITEM: BOX BOUNDS ss ss ss
-3.1694 3.1627
-2.6548 3.3373
-1.8803 2.0834
ITEM: ATOMS id type xs ys zs
1 1 .494472 .988982 .586429
2 1 .992292 .633669 .432315
3 1 .816827 .023278 .391384
4 1 .215915 .008660 .504935
5 1 .011067 .604162 .566034
6 1 .543492 .424848 .983999
7 1 .475959 .477889 .009532
ITEM: TIMESTEP
150
ITEM: NUMBER OF ATOMS
7
ITEM: BOX BOUNDS ss ss ss
-3.1727 3.1655
-2.6548 3.3373
-1.8803 2.0834
ITEM: ATOMS id type xs ys zs
1 1 .495319 .992317 .585598
2 1 .991493 .631885 .435650
3 1 .812177 .024173 .387676
4 1 .213691 .006336 .504442
5 1 .010528 .601129 .565680
6 1 .539860 .427837 .984034
7 1 .476000 .478354 .011209
ITEM: TIMESTEP
200
ITEM: NUMBER OF ATOMS
7
ITEM: BOX BOUNDS ss ss ss
-3.1666 3.1692
-2.6548 3.3373
-1.8904 2.0834
ITEM: ATOMS id type xs ys zs
1 1 .494042 .988686 .586882
2 1 .990825 .635009 .435091
3 1 .815996 .022692 .390316
4 1 .212117 .007796 .505246
5 1 .010550 .603339 .568770
6 1 .540931 .423511 .983228
7 1 .476223 .478063 .013095
ITEM: TIMESTEP
250
ITEM: NUMBER OF ATOMS
7
ITEM: BOX BOUNDS ss ss ss
-3.1620 3.1647
-2.6548 3.3373
-1.8839 2.0781
ITEM: ATOMS id type xs ys zs
1 1 .494116 .989879 .586608
2 1 .992506 .633769 .433065
3 1 .814674 .022279 .389710
4 1 .211847 .004671 .503327
5 1 .012384 .601543 .568443
6 1 .540765 .424998 .983194
7 1 .476441 .479263 .011703
ITEM: TIMESTEP
300
ITEM: NUMBER OF ATOMS
7
ITEM: BOX BOUNDS ss ss ss
-3.1612 3.1708
-2.6548 3.3373
-1.8889 2.0781
ITEM: ATOMS id type xs ys zs
1 1 .494065 .990153 .589353
2 1 .991177 .634016 .432407
3 1 .814433 .023004 .390553
4 1 .211696 .005460 .502910
5 1 .013105 .601273 .570745
6 1 .540309 .424504 .983123
7 1 .475371 .477706 .014074
ITEM: TIMESTEP
350
ITEM: NUMBER OF ATOMS
7
ITEM: BOX BOUNDS ss ss ss
-3.1689 3.1627
-2.6550 3.3373
-1.8970 2.0781
ITEM: ATOMS id type xs ys zs
1 1 .494666 .989197 .589393
2 1 .991686 .633294 .435359
3 1 .815417 .021414 .389691
4 1 .215104 .004623 .508500
5 1 .015150 .601171 .573823
6 1 .540613 .423152 .983769
7 1 .476329 .477966 .014136
ITEM: TIMESTEP
400
ITEM: NUMBER OF ATOMS
7
ITEM: BOX BOUNDS ss ss ss
-3.1630 3.1690
-2.6649 3.3337
-1.8889 2.0775
ITEM: ATOMS id type xs ys zs
1 1 .493975 .989586 .588266
2 1 .991296 .633641 .433748
3 1 .815286 .024852 .388811
4 1 .214041 .006269 .507328
5 1 .014019 .603139 .573976
6 1 .539718 .424789 .983238
7 1 .476728 .477457 .011126
ITEM: TIMESTEP
1
ITEM: NUMBER OF ATOMS
7
ITEM: BOX BOUNDS ss ss ss
-3.1386 3.1487
-2.6651 3.3196
-1.8848 2.0775
ITEM: ATOMS id type xs ys zs
1 1 .491981 .992694 .590221
2 1 .995876 .635803 .435413
3 1 .816362 .024279 .392391
4 1 .210712 .011432 .504058
5 1 .003241 .604058 .565460
6 1 .542348 .429196 .986123
7 1 .475624 .480256 .011348
ITEM: TIMESTEP
50
ITEM: NUMBER OF ATOMS
7
ITEM: BOX BOUNDS ss ss ss
-3.1522 3.1523
-2.6611 3.3196
-1.8848 2.0775
ITEM: ATOMS id type xs ys zs
1 1 .492560 .992417 .589058
2 1 .995538 .634455 .435123
3 1 .815733 .023069 .392141
4 1 .212569 .009579 .503488
5 1 .006881 .604580 .566867
6 1 .542503 .429468 .984368
7 1 .476399 .479772 .011989
ITEM: TIMESTEP
100
ITEM: NUMBER OF ATOMS
7
ITEM: BOX BOUNDS ss ss ss
-3.1561 3.1643
-2.6611 3.3196
-1.8787 2.0775
ITEM: ATOMS id type xs ys zs
1 1 .492650 .992789 .587349
2 1 .993579 .634593 .433420
3 1 .813954 .023018 .392123
4 1 .212648 .008438 .503028
5 1 .008311 .604356 .566864
6 1 .541525 .428325 .985815
7 1 .475477 .479025 .010300
ITEM: TIMESTEP
150
ITEM: NUMBER OF ATOMS
7
ITEM: BOX BOUNDS ss ss ss
-3.1641 3.1664
-2.6611 3.3196
-1.8787 2.0775
ITEM: ATOMS id type xs ys zs
1 1 .493576 .991351 .586739
2 1 .992882 .635218 .435584
3 1 .816387 .023508 .392616
4 1 .215039 .011377 .504384
5 1 .010630 .604726 .564963
6 1 .540524 .427171 .988158
7 1 .479045 .481527 .010935
ITEM: TIMESTEP
200
ITEM: NUMBER OF ATOMS
7
ITEM: BOX BOUNDS ss ss ss
-3.1646 3.1707
-2.6548 3.3197
-1.8781 2.0780
ITEM: ATOMS id type xs ys zs
1 1 .492098 .990547 .586535
2 1 .991742 .635212 .436113
3 1 .814090 .022939 .395394
4 1 .212723 .009299 .502363
5 1 .010792 .605285 .564361
6 1 .538736 .426618 .988242
7 1 .478422 .481963 .011505
ITEM: TIMESTEP
250
ITEM: NUMBER OF ATOMS
7
ITEM: BOX BOUNDS ss ss ss
-3.1615 3.1835
-2.6598 3.3196
-1.8829 2.0816
ITEM: ATOMS id type xs ys zs
1 1 .492339 .989269 .585369
2 1 .990984 .634906 .435453
3 1 .812187 .023224 .395369
4 1 .211712 .008674 .504707
5 1 .011608 .604451 .568681
6 1 .538684 .425329 .987249
7 1 .478568 .482913 .011736
ITEM: TIMESTEP
300
ITEM: NUMBER OF ATOMS
7
ITEM: BOX BOUNDS ss ss ss
-3.1641 3.1691
-2.6609 3.3196
-1.8914 2.0801
ITEM: ATOMS id type xs ys zs
1 1 .494035 .989574 .583437
2 1 .992167 .638430 .437074
3 1 .814239 .022996 .399047
4 1 .210531 .008917 .505330
5 1 .011714 .606043 .568835
6 1 .539757 .424983 .990516
7 1 .480234 .479721 .016079
ITEM: TIMESTEP
350
ITEM: NUMBER OF ATOMS
7
ITEM: BOX BOUNDS ss ss ss
-3.1579 3.1741
-2.6766 3.3196
-1.8878 2.0921
ITEM: ATOMS id type xs ys zs
1 1 .491696 .989150 .582353
2 1 .990871 .635989 .434189
3 1 .812749 .024028 .396052
4 1 .210400 .010962 .505144
5 1 .012444 .603535 .568551
6 1 .538660 .425866 .985005
7 1 .478906 .479764 .011096
ITEM: TIMESTEP
400
ITEM: NUMBER OF ATOMS
7
ITEM: BOX BOUNDS ss ss ss
-3.1582 3.1703
-2.6739 3.3194
-1.8824 2.0914
ITEM: ATOMS id type xs ys zs
1 1 .492355 .987951 .581985
2 1 .991326 .638129 .434160
3 1 .812920 .024026 .392899
4 1 .211899 .010153 .502074
5 1 .012622 .604316 .567044
6 1 .537387 .424462 .987441
7 1 .478810 .481007 .010212
ITEM: TIMESTEP
1
ITEM: NUMBER OF ATOMS
7
ITEM: BOX BOUNDS ss ss ss
-3.1386 3.1683
-2.6548 3.3194
-1.8812 2.1033
ITEM: ATOMS id type xs ys zs
1 1 .490463 .992729 .586035
2 1 .992792 .635205 .432096
3 1 .813852 .022603 .389282
4 1 .210077 .009742 .500371
5 1 .003226 .603413 .561419
6 1 .540674 .428237 .979724
7 1 .474132 .479377 .010342
ITEM: TIMESTEP
50
ITEM: NUMBER OF ATOMS
7
ITEM: BOX BOUNDS ss ss ss
-3.1535 3.1683
-2.6548 3.3194
-1.8812 2.1033
ITEM: ATOMS id type xs ys zs
1 1 .492728 .991637 .587511
2 1 .993860 .637506 .432395
3 1 .815019 .023257 .389657
4 1 .211790 .009470 .500602
5 1 .007781 .604140 .567147
6 1 .541043 .425721 .979798
7 1 .474998 .482200 .010028
ITEM: TIMESTEP
100
ITEM: NUMBER OF ATOMS
7
ITEM: BOX BOUNDS ss ss ss
-3.1637 3.1683
-2.6548 3.3194
-1.8828 2.1033
ITEM: ATOMS id type xs ys zs
1 1 .494883 .991793 .587392
2 1 .992851 .637140 .430874
3 1 .814102 .021541 .388527
4 1 .212303 .009794 .498250
5 1 .009306 .605231 .567064
6 1 .539698 .424898 .979046
7 1 .478018 .481331 .011147
ITEM: TIMESTEP
150
ITEM: NUMBER OF ATOMS
7
ITEM: BOX BOUNDS ss ss ss
-3.1658 3.1756
-2.6548 3.3194
-1.8852 2.1033
ITEM: ATOMS id type xs ys zs
1 1 .494483 .992798 .586211
2 1 .991424 .637041 .430808
3 1 .813966 .021730 .391121
4 1 .212101 .010932 .496801
5 1 .008914 .605718 .566031
6 1 .539259 .426868 .976348
7 1 .479065 .482478 .011563
ITEM: TIMESTEP
200
ITEM: NUMBER OF ATOMS
7
ITEM: BOX BOUNDS ss ss ss
-3.1648 3.1754
-2.6548 3.3194
-1.8953 2.1033
ITEM: ATOMS id type xs ys zs
1 1 .495458 .991442 .585894
2 1 .993306 .636388 .433850
3 1 .811330 .023730 .388788
4 1 .212527 .011289 .502669
5 1 .010189 .606535 .571540
6 1 .538059 .426502 .981282
7 1 .479072 .484275 .018114
ITEM: TIMESTEP
250
ITEM: NUMBER OF ATOMS
7
ITEM: BOX BOUNDS ss ss ss
-3.1624 3.1746
-2.6549 3.3194
-1.8878 2.1033
ITEM: ATOMS id type xs ys zs
1 1 .492143 .991912 .584337
2 1 .991533 .638108 .430147
3 1 .814108 .022825 .387388
4 1 .214106 .008080 .496318
5 1 .008510 .603851 .567040
6 1 .539233 .423199 .975006
7 1 .477198 .482016 .010876
ITEM: TIMESTEP
300
ITEM: NUMBER OF ATOMS
7
ITEM: BOX BOUNDS ss ss ss
-3.1560 3.1784
-2.6599 3.3194
-1.8889 2.1033
ITEM: ATOMS id type xs ys zs
1 1 .490073 .991830 .585646
2 1 .988011 .634767 .431031
3 1 .812988 .019779 .388625
4 1 .211559 .006948 .501291
5 1 .011597 .604700 .565795
6 1 .537369 .425953 .979053
7 1 .475711 .477443 .009648
ITEM: TIMESTEP
350
ITEM: NUMBER OF ATOMS
7
ITEM: BOX BOUNDS ss ss ss
-3.1557 3.1765
-2.6639 3.3194
-1.8941 2.0775
ITEM: ATOMS id type xs ys zs
1 1 .490565 .994495 .589487
2 1 .985900 .641351 .431935
3 1 .814734 .022953 .391766
4 1 .213460 .004864 .510107
5 1 .011358 .605656 .569886
6 1 .539361 .426334 .981127
7 1 .475452 .478216 .013657
ITEM: TIMESTEP
400
ITEM: NUMBER OF ATOMS
7
ITEM: BOX BOUNDS ss ss ss
-3.1510 3.1702
-2.6631 3.3194
-1.9018 2.0779
ITEM: ATOMS id type xs ys zs
1 1 .490321 .990491 .587573
2 1 .991276 .640468 .433150
3 1 .814758 .021590 .390514
4 1 .213424 .005173 .509018
5 1 .012209 .606202 .573517
6 1 .540701 .424761 .983037
7 1 .477109 .476763 .010849
ITEM: TIMESTEP
1
ITEM: NUMBER OF ATOMS
7
ITEM: BOX BOUNDS ss ss ss
-3.1460 3.1568
-2.6700 3.3194
-1.8864 2.0775
ITEM: ATOMS id type xs ys zs
1 1 .491944 .992745 .590409
2 1 .994595 .636130 .435655
3 1 .815544 .025076 .392631
4 1 .211367 .012267 .504265
5 1 .004389 .604434 .565658
6 1 .542197 .429692 .986119
7 1 .475606 .480709 .011731
ITEM: TIMESTEP
50
ITEM: NUMBER OF ATOMS
7
ITEM: BOX BOUNDS ss ss ss
-3.1523 3.1568
-2.6700 3.3194
-1.8864 2.0775
ITEM: ATOMS id type xs ys zs
1 1 .490839 .991967 .591391
2 1 .992422 .637083 .433148
3 1 .816213 .024562 .392910
4 1 .212242 .010546 .503683
5 1 .006517 .604934 .567415
6 1 .540760 .429606 .986164
7 1 .477609 .480120 .013497
ITEM: TIMESTEP
100
ITEM: NUMBER OF ATOMS
7
ITEM: BOX BOUNDS ss ss ss
-3.1670 3.1628
-2.6700 3.3194
-1.8864 2.0775
ITEM: ATOMS id type xs ys zs
1 1 .492361 .992792 .585791
2 1 .993161 .638360 .437354
3 1 .815710 .024736 .394811
4 1 .215717 .011450 .503594
5 1 .009676 .605858 .563886
6 1 .541202 .429698 .987257
7 1 .477362 .480922 .017088
ITEM: TIMESTEP
150
ITEM: NUMBER OF ATOMS
7
ITEM: BOX BOUNDS ss ss ss
-3.1694 3.1660
-2.6700 3.3194
-1.8888 2.0775
ITEM: ATOMS id type xs ys zs
1 1 .492724 .993887 .584774
2 1 .994021 .635262 .435642
3 1 .813984 .024202 .394483
4 1 .212918 .010252 .504607
5 1 .009276 .605596 .565581
6 1 .541077 .429204 .985116
7 1 .477978 .483218 .016927
ITEM: TIMESTEP
200
ITEM: NUMBER OF ATOMS
7
ITEM: BOX BOUNDS ss ss ss
-3.1700 3.1729
-2.6700 3.3194
-1.8887 2.0775
ITEM: ATOMS id type xs ys zs
1 1 .493645 .992476 .585658
2 1 .993840 .634255 .435099
3 1 .813821 .024365 .397031
4 1 .211908 .011958 .502693
5 1 .009675 .608268 .569375
6 1 .539957 .428564 .981318
7 1 .477258 .482679 .021674
ITEM: TIMESTEP
250
ITEM: NUMBER OF ATOMS
7
ITEM: BOX BOUNDS ss ss ss
-3.1783 3.1814
-2.6700 3.3194
-1.8900 2.0803
ITEM: ATOMS id type xs ys zs
1 1 .491195 .992952 .581106
2 1 .991114 .638329 .436144
3 1 .811814 .025664 .394496
4 1 .215336 .011023 .507625
5 1 .010427 .603032 .565348
6 1 .538476 .430386 .987074
7 1 .477269 .484450 .017437
ITEM: TIMESTEP
300
ITEM: NUMBER OF ATOMS
7
ITEM: BOX BOUNDS ss ss ss
-3.1803 3.1725
-2.6700 3.3194
-1.8871 2.0929
ITEM: ATOMS id type xs ys zs
1 1 .491976 .990277 .585033
2 1 .991242 .635019 .436970
3 1 .811831 .023446 .390668
4 1 .213836 .009107 .502308
5 1 .010163 .603559 .561651
6 1 .537168 .423865 .984456
7 1 .476926 .481590 .012664
ITEM: TIMESTEP
350
ITEM: NUMBER OF ATOMS
7
ITEM: BOX BOUNDS ss ss ss
-3.1829 3.1695
-2.6572 3.3260
-1.8881 2.0813
ITEM: ATOMS id type xs ys zs
1 1 .493578 .988690 .585277
2 1 .990250 .632415 .439142
3 1 .811812 .021712 .386126
4 1 .214401 .006518 .505477
5 1 .010195 .601758 .564582
6 1 .536863 .422905 .987959
7 1 .477855 .481030 .013426
ITEM: TIMESTEP
400
ITEM: NUMBER OF ATOMS
7
ITEM: BOX BOUNDS ss ss ss
-3.1825 3.1803
-2.6603 3.3363
-1.8818 2.0856
ITEM: ATOMS id type xs ys zs
1 1 .494719 .989081 .584375
2 1 .990022 .631372 .435756
3 1 .808838 .022057 .390305
4 1 .212960 .006820 .502119
5 1 .013812 .599902 .562939
6 1 .537438 .424639 .984959
7 1 .475177 .478245 .012000
ITEM: TIMESTEP
450
ITEM: NUMBER OF ATOMS
7
ITEM: BOX BOUNDS ss ss ss
-3.1783 3.1673
-2.6613 3.3360
-1.8797 2.0848
ITEM: ATOMS id type xs ys zs
1 1 .494782 .988714 .584083
2 1 .989389 .635312 .438610
3 1 .811752 .024827 .383138
4 1 .212050 .005564 .504603
5 1 .010085 .602550 .561577
6 1 .534406 .423551 .985742
7 1 .476893 .480116 .009006
ITEM: TIMESTEP
1
ITEM: NUMBER OF ATOMS
7
ITEM: BOX BOUNDS ss ss ss
-3.1625 3.1499
-2.6574 3.3075
-1.8693 2.0821
ITEM: ATOMS id type xs ys zs
1 1 .493804 .994707 .587944
2 1 .995701 .636647 .432677
3 1 .816902 .023073 .389545
4 1 .213640 .010187 .501529
5 1 .006993 .604800 .563163
6 1 .543972 .429359 .984930
7 1 .477496 .480556 .007407
ITEM: TIMESTEP
50
ITEM: NUMBER OF ATOMS
7
ITEM: BOX BOUNDS ss ss ss
-3.1625 3.1550
-2.6574 3.3075
-1.8697 2.0821
ITEM: ATOMS id type xs ys zs
1 1 .492053 .994139 .588114
2 1 .994646 .637109 .430926
3 1 .816365 .022848 .389389
4 1 .212483 .009529 .500633
5 1 .008316 .604687 .565758
6 1 .543008 .428942 .983976
7 1 .477779 .480913 .007483
ITEM: TIMESTEP
100
ITEM: NUMBER OF ATOMS
7
ITEM: BOX BOUNDS ss ss ss
-3.1636 3.1686
-2.6574 3.3114
-1.8762 2.0661
ITEM: ATOMS id type xs ys zs
1 1 .491950 .992906 .588623
2 1 .991752 .636332 .436269
3 1 .814078 .024415 .390931
4 1 .213997 .008879 .503862
5 1 .006977 .605208 .567284
6 1 .541864 .428560 .988461
7 1 .477402 .480732 .009137
ITEM: TIMESTEP
150
ITEM: NUMBER OF ATOMS
7
ITEM: BOX BOUNDS ss ss ss
-3.1672 3.1719
-2.6574 3.3174
-1.8857 2.0766
ITEM: ATOMS id type xs ys zs
1 1 .490457 .992842 .586419
2 1 .991498 .635235 .439142
3 1 .812567 .023952 .393733
4 1 .214353 .008964 .506200
5 1 .008122 .604106 .564870
6 1 .540750 .429252 .985117
7 1 .478180 .481616 .010374
ITEM: TIMESTEP
200
ITEM: NUMBER OF ATOMS
7
ITEM: BOX BOUNDS ss ss ss
-3.1792 3.1828
-2.6574 3.3187
-1.8827 2.0812
ITEM: ATOMS id type xs ys zs
1 1 .491250 .994030 .585650
2 1 .988471 .636385 .434912
3 1 .810639 .023566 .393435
4 1 .214057 .008198 .505467
5 1 .009743 .603061 .566890
6 1 .541504 .429161 .986371
7 1 .476379 .481831 .010255
ITEM: TIMESTEP
250
ITEM: NUMBER OF ATOMS
7
ITEM: BOX BOUNDS ss ss ss
-3.1862 3.1747
-2.6574 3.3293
-1.8787 2.0767
ITEM: ATOMS id type xs ys zs
1 1 .492579 .994967 .587208
2 1 .988941 .638853 .432831
3 1 .813134 .021048 .396825
4 1 .213681 .007037 .501662
5 1 .010606 .600953 .569086
6 1 .542803 .428772 .987033
7 1 .476350 .480561 .013015
ITEM: TIMESTEP
300
ITEM: NUMBER OF ATOMS
7
ITEM: BOX BOUNDS ss ss ss
-3.1749 3.1715
-2.6562 3.3214
-1.8820 2.0832
ITEM: ATOMS id type xs ys zs
1 1 .491324 .993144 .589056