ITEM: TIMESTEP
1
ITEM: NUMBER OF ATOMS
7
ITEM: BOX BOUNDS ss ss ss
-3.1234 3.1276
-2.6006 3.2801
-1.8439 2.0267
ITEM: ATOMS id type xs ys zs
1 1 .492401 .999289 .593825
2 1 .999308 .636069 .435140
3 1 .818692 .013734 .391106
4 1 .209468 .000746 .505495
5 1 .000671 .603730 .568132
6 1 .543190 .425886 .998919
7 1 .475902 .477729 .001001
ITEM: TIMESTEP
50
ITEM: NUMBER OF ATOMS
7
ITEM: BOX BOUNDS ss ss ss
-3.1456 3.1487
-2.6212 3.3011
-1.8660 2.0523
ITEM: ATOMS id type xs ys zs
1 1 .492410 .995623 .592488
2 1 .996012 .635056 .435145
3 1 .816555 .017113 .391944
4 1 .211595 .004290 .505347
5 1 .004070 .603024 .566329
6 1 .543093 .426301 .992373
7 1 .476252 .478038 .006854
ITEM: TIMESTEP
100
ITEM: NUMBER OF ATOMS
7
ITEM: BOX BOUNDS ss ss ss
-3.1559 3.1578
-2.6320 3.3105
-1.8725 2.0603
ITEM: ATOMS id type xs ys zs
1 1 .492238 .993812 .591652
2 1 .994296 .634834 .434731
3 1 .815671 .018887 .392067
4 1 .212793 .005783 .505700
5 1 .006202 .603262 .565694
6 1 .542654 .426181 .990490
7 1 .476784 .478851 .008972
ITEM: TIMESTEP
150
ITEM: NUMBER OF ATOMS
7
ITEM: BOX BOUNDS ss ss ss
-3.1648 3.1630
-2.6447 3.3148
-1.8773 2.0652
ITEM: ATOMS id type xs ys zs
1 1 .492375 .993141 .591015
2 1 .993056 .635403 .434813
3 1 .815471 .021063 .392012
4 1 .213941 .007308 .506008
5 1 .008419 .604117 .565840
6 1 .542198 .426498 .989393
7 1 .477505 .480113 .010401
ITEM: TIMESTEP
200
ITEM: NUMBER OF ATOMS
7
ITEM: BOX BOUNDS ss ss ss
-3.1547 3.1700
-2.6473 3.3207
-1.8839 2.0683
ITEM: ATOMS id type xs ys zs
1 1 .490968 .992319 .590911
2 1 .991490 .635153 .435378
3 1 .814223 .021505 .392283
4 1 .212625 .007122 .506426
5 1 .007801 .604182 .566679
6 1 .540070 .425846 .988662
7 1 .476439 .480214 .012193
ITEM: TIMESTEP
250
ITEM: NUMBER OF ATOMS
7
ITEM: BOX BOUNDS ss ss ss
-3.1568 3.1665
-2.6538 3.3231
-1.8824 2.0818
ITEM: ATOMS id type xs ys zs
1 1 .491418 .992058 .588238
2 1 .991352 .635741 .433728
3 1 .814758 .022465 .391075
4 1 .213126 .007787 .503908
5 1 .009179 .604564 .565710
6 1 .539780 .426089 .985864
7 1 .477160 .480677 .011675
ITEM: TIMESTEP
300
ITEM: NUMBER OF ATOMS
7
ITEM: BOX BOUNDS ss ss ss
-3.1527 3.1604
-2.6543 3.3191
-1.8816 2.0764
ITEM: ATOMS id type xs ys zs
1 1 .491561 .992755 .588408
2 1 .991810 .636659 .433871
3 1 .815446 .022487 .392344
4 1 .212905 .007558 .504142
5 1 .009503 .604986 .567311
6 1 .539600 .426244 .987444
7 1 .477534 .480946 .011155
ITEM: TIMESTEP
350
ITEM: NUMBER OF ATOMS
7
ITEM: BOX BOUNDS ss ss ss
-3.1401 3.1547
-2.6693 3.3248
-1.8925 2.0740
ITEM: ATOMS id type xs ys zs
1 1 .491228 .991811 .589301
2 1 .992329 .637124 .435391
3 1 .815790 .024837 .394887
4 1 .211566 .009385 .505578
5 1 .008171 .605407 .569338
6 1 .538720 .427049 .988033
7 1 .477001 .481380 .013642
ITEM: TIMESTEP
400
ITEM: NUMBER OF ATOMS
7
ITEM: BOX BOUNDS ss ss ss
-3.1461 3.1652
-2.6637 3.3319
-1.8871 2.0772
ITEM: ATOMS id type xs ys zs
1 1 .491171 .990724 .587671
2 1 .990296 .635998 .434937
3 1 .814692 .023887 .394104
4 1 .212224 .007793 .504423
5 1 .009541 .604163 .568823
6 1 .537743 .425963 .987248
7 1 .476712 .479751 .011950
ITEM: TIMESTEP
1
ITEM: NUMBER OF ATOMS
7
ITEM: BOX BOUNDS ss ss ss
-3.1288 3.1449
-2.6675 3.3249
-1.8840 2.0662
ITEM: ATOMS id type xs ys zs
1 1 .491481 .991824 .592010
2 1 .996548 .635380 .436526
3 1 .816590 .024655 .393374
4 1 .209580 .011914 .505464
5 1 .001540 .603648 .566830
6 1 .542091 .429121 .988936
7 1 .475040 .479998 .011140
ITEM: TIMESTEP
50
ITEM: NUMBER OF ATOMS
7
ITEM: BOX BOUNDS ss ss ss
-3.1486 3.1522
-2.6675 3.3249
-1.8840 2.0636
ITEM: ATOMS id type xs ys zs
1 1 .492416 .991702 .592821
2 1 .995557 .635333 .436520
3 1 .816225 .024635 .393561
4 1 .211833 .012023 .506209
5 1 .004436 .603672 .566573
6 1 .543076 .429085 .989569
7 1 .476236 .480120 .011412
ITEM: TIMESTEP
100
ITEM: NUMBER OF ATOMS
7
ITEM: BOX BOUNDS ss ss ss
-3.1578 3.1584
-2.6675 3.3249
-1.8799 2.0636
ITEM: ATOMS id type xs ys zs
1 1 .492410 .991433 .592223
2 1 .994375 .635346 .435333
3 1 .815747 .024465 .392876
4 1 .212970 .011891 .506323
5 1 .006160 .604078 .565858
6 1 .542867 .428584 .989771
7 1 .476907 .480792 .010989
ITEM: TIMESTEP
150
ITEM: NUMBER OF ATOMS
7
ITEM: BOX BOUNDS ss ss ss
-3.1572 3.1610
-2.6675 3.3249
-1.8799 2.0657
ITEM: ATOMS id type xs ys zs
1 1 .491990 .991138 .591681
2 1 .993555 .635370 .434465
3 1 .815386 .024215 .392489
4 1 .213060 .011588 .506489
5 1 .006629 .604598 .565650
6 1 .542040 .427927 .989736
7 1 .477032 .481444 .011498
ITEM: TIMESTEP
200
ITEM: NUMBER OF ATOMS
7
ITEM: BOX BOUNDS ss ss ss
-3.1564 3.1651
-2.6675 3.3133
-1.8886 2.0753
ITEM: ATOMS id type xs ys zs
1 1 .491594 .992940 .591023
2 1 .992240 .636651 .433789
3 1 .814594 .023985 .392754
4 1 .212852 .011283 .506393
5 1 .007541 .606364 .565719
6 1 .540944 .428159 .987691
7 1 .476691 .482732 .013555
ITEM: TIMESTEP
250
ITEM: NUMBER OF ATOMS
7
ITEM: BOX BOUNDS ss ss ss
-3.1632 3.1628
-2.6675 3.3195
-1.8862 2.0748
ITEM: ATOMS id type xs ys zs
1 1 .492370 .992021 .590967
2 1 .991977 .636120 .432824
3 1 .814892 .023817 .392539
4 1 .213732 .011078 .505793
5 1 .009419 .606410 .565931
6 1 .541073 .427409 .987925
7 1 .477487 .482278 .012573
ITEM: TIMESTEP
300
ITEM: NUMBER OF ATOMS
7
ITEM: BOX BOUNDS ss ss ss
-3.1584 3.1672
-2.6675 3.3172
-1.8895 2.0772
ITEM: ATOMS id type xs ys zs
1 1 .491689 .992527 .590977
2 1 .990686 .636376 .432715
3 1 .814054 .023623 .393047
4 1 .212915 .010855 .505557
5 1 .009284 .607016 .566570
6 1 .539952 .427408 .987117
7 1 .476765 .482274 .012644
ITEM: TIMESTEP
350
ITEM: NUMBER OF ATOMS
7
ITEM: BOX BOUNDS ss ss ss
-3.1610 3.1583
-2.6675 3.3236
-1.8914 2.0802
ITEM: ATOMS id type xs ys zs
1 1 .492847 .991582 .590440
2 1 .991584 .635595 .432026
3 1 .815109 .023457 .393410
4 1 .213576 .010669 .504952
5 1 .010474 .606542 .567672
6 1 .540552 .426842 .985949
7 1 .477480 .481557 .012365
ITEM: TIMESTEP
400
ITEM: NUMBER OF ATOMS
7
ITEM: BOX BOUNDS ss ss ss
-3.1438 3.1583
-2.6675 3.3230
-1.8929 2.0831
ITEM: ATOMS id type xs ys zs
1 1 .491965 .992077 .589877
2 1 .991093 .635771 .431302
3 1 .814359 .023542 .393367
4 1 .211377 .010501 .503624
5 1 .008485 .606840 .569149
6 1 .538840 .426886 .984851
7 1 .475702 .481680 .012232
ITEM: TIMESTEP
1
ITEM: NUMBER OF ATOMS
7
ITEM: BOX BOUNDS ss ss ss
-3.1351 3.1575
-2.6474 3.3167
-1.8934 2.0687
ITEM: ATOMS id type xs ys zs
1 1 .491006 .993171 .592608
2 1 .994561 .635029 .437594
3 1 .815137 .021397 .394569
4 1 .209948 .008598 .506324
5 1 .002528 .603142 .567507
6 1 .541465 .427787 .988344
7 1 .474612 .478906 .013480
ITEM: TIMESTEP
50
ITEM: NUMBER OF ATOMS
7
ITEM: BOX BOUNDS ss ss ss
-3.1477 3.1575
-2.6474 3.3167
-1.8934 2.0687
ITEM: ATOMS id type xs ys zs
1 1 .491901 .993010 .593105
2 1 .994744 .635004 .437319
3 1 .815483 .021372 .394486
4 1 .211561 .008776 .506759
5 1 .004225 .603108 .566752
6 1 .542665 .427794 .988334
7 1 .475703 .479032 .013692
ITEM: TIMESTEP
100
ITEM: NUMBER OF ATOMS
7
ITEM: BOX BOUNDS ss ss ss
-3.1594 3.1618
-2.6474 3.3146
-1.8934 2.0662
ITEM: ATOMS id type xs ys zs
1 1 .492093 .993058 .593221
2 1 .993993 .635288 .436895
3 1 .815244 .021314 .394605
4 1 .213034 .008553 .507771
5 1 .006322 .603761 .566676
6 1 .542813 .427498 .988965
7 1 .476744 .479833 .014333
ITEM: TIMESTEP
150
ITEM: NUMBER OF ATOMS
7
ITEM: BOX BOUNDS ss ss ss
-3.1591 3.1689
-2.6474 3.3146
-1.8934 2.0718
ITEM: ATOMS id type xs ys zs
1 1 .491056 .992837 .592086
2 1 .992532 .635609 .435511
3 1 .814237 .021228 .393686
4 1 .212928 .008081 .507841
5 1 .006908 .604361 .565664
6 1 .541560 .426933 .987739
7 1 .476681 .480294 .014648
ITEM: TIMESTEP
200
ITEM: NUMBER OF ATOMS
7
ITEM: BOX BOUNDS ss ss ss
-3.1668 3.1663
-2.6474 3.3238
-1.8934 2.0720
ITEM: ATOMS id type xs ys zs
1 1 .491763 .991127 .592107
2 1 .992049 .635393 .435370
3 1 .814158 .021382 .392953
4 1 .213895 .007246 .508391
5 1 .009129 .603987 .567064
6 1 .541445 .425687 .988236
7 1 .477473 .480000 .014668
ITEM: TIMESTEP
250
ITEM: NUMBER OF ATOMS
7
ITEM: BOX BOUNDS ss ss ss
-3.1560 3.1677
-2.6508 3.3165
-1.8934 2.0732
ITEM: ATOMS id type xs ys zs
1 1 .491245 .992380 .591637
2 1 .990938 .636469 .435270
3 1 .812660 .022086 .392426
4 1 .212652 .007192 .508552
5 1 .008292 .605086 .568527
6 1 .539597 .426360 .988620
7 1 .476171 .481384 .014124
ITEM: TIMESTEP
300
ITEM: NUMBER OF ATOMS
7
ITEM: BOX BOUNDS ss ss ss
-3.1476 3.1696
-2.6564 3.3163
-1.8934 2.0744
ITEM: ATOMS id type xs ys zs
1 1 .490694 .992646 .590836
2 1 .990110 .636560 .435115
3 1 .811687 .023166 .392625
4 1 .211752 .007866 .508364
5 1 .007540 .605457 .569221
6 1 .538012 .427062 .988839
7 1 .475100 .482085 .013614
ITEM: TIMESTEP
350
ITEM: NUMBER OF ATOMS
7
ITEM: BOX BOUNDS ss ss ss
-3.1474 3.1607
-2.6566 3.3296
-1.8934 2.0803
ITEM: ATOMS id type xs ys zs
1 1 .491565 .990820 .589602
2 1 .991390 .634967 .434601
3 1 .812764 .023249 .392359
4 1 .212157 .007573 .507460
5 1 .008157 .604302 .569017
6 1 .538294 .426271 .987579
7 1 .475747 .480966 .013408
ITEM: TIMESTEP
400
ITEM: NUMBER OF ATOMS
7
ITEM: BOX BOUNDS ss ss ss
-3.1483 3.1563
-2.6751 3.3232
-1.8907 2.0877
ITEM: ATOMS id type xs ys zs
1 1 .492912 .992265 .588007
2 1 .992396 .636482 .433717
3 1 .813686 .026503 .391466
4 1 .212446 .009944 .504795
5 1 .009670 .606842 .569159
6 1 .538212 .428183 .985374
7 1 .476294 .482782 .012448
ITEM: TIMESTEP
1
ITEM: NUMBER OF ATOMS
7
ITEM: BOX BOUNDS ss ss ss
-3.1383 3.1538
-2.6685 3.3146
-1.8869 2.0676
ITEM: ATOMS id type xs ys zs
1 1 .491553 .993533 .592107
2 1 .995148 .636536 .436784
3 1 .815709 .024863 .393680
4 1 .210471 .012101 .505647
5 1 .003033 .604751 .566942
6 1 .542014 .429955 .988595
7 1 .475159 .480913 .011857
ITEM: TIMESTEP
50
ITEM: NUMBER OF ATOMS
7
ITEM: BOX BOUNDS ss ss ss
-3.1496 3.1538
-2.6685 3.3146
-1.8869 2.0676
ITEM: ATOMS id type xs ys zs
1 1 .492375 .993376 .592711
2 1 .995364 .636467 .436485
3 1 .816010 .024804 .393604
4 1 .211860 .012313 .506134
5 1 .004423 .604682 .566062
6 1 .543153 .429983 .988585
7 1 .476123 .480979 .012060
ITEM: TIMESTEP
100
ITEM: NUMBER OF ATOMS
7
ITEM: BOX BOUNDS ss ss ss
-3.1631 3.1600
-2.6685 3.3149
-1.8869 2.0666
ITEM: ATOMS id type xs ys zs
1 1 .492647 .992944 .592999
2 1 .994276 .636330 .435807
3 1 .815432 .024638 .393556
4 1 .213609 .012156 .507203
5 1 .006709 .605028 .565622
6 1 .543272 .429544 .989014
7 1 .477102 .481582 .012608
ITEM: TIMESTEP
150
ITEM: NUMBER OF ATOMS
7
ITEM: BOX BOUNDS ss ss ss
-3.1560 3.1653
-2.6632 3.3146
-1.8869 2.0668
ITEM: ATOMS id type xs ys zs
1 1 .491332 .992871 .592921
2 1 .992877 .635752 .434819
3 1 .814367 .023640 .393234
4 1 .212830 .010834 .508051
5 1 .006277 .605360 .564995
6 1 .541680 .428452 .989450
7 1 .476505 .481825 .012862
ITEM: TIMESTEP
200
ITEM: NUMBER OF ATOMS
7
ITEM: BOX BOUNDS ss ss ss
-3.1646 3.1697
-2.6582 3.3146
-1.8869 2.0774
ITEM: ATOMS id type xs ys zs
1 1 .491846 .992875 .590623
2 1 .992030 .635217 .433193
3 1 .813924 .022839 .391816
4 1 .214135 .009289 .507159
5 1 .008468 .605653 .563514
6 1 .541116 .427541 .987215
7 1 .477344 .481883 .012600
ITEM: TIMESTEP
250
ITEM: NUMBER OF ATOMS
7
ITEM: BOX BOUNDS ss ss ss
-3.1512 3.1652
-2.6582 3.3151
-1.9036 2.0807
ITEM: ATOMS id type xs ys zs
1 1 .491244 .992884 .591050
2 1 .992734 .635224 .435272
3 1 .814073 .022934 .393795
4 1 .212933 .008618 .508536
5 1 .007386 .605699 .564798
6 1 .539901 .427229 .986404
7 1 .476950 .482108 .016221
ITEM: TIMESTEP
300
ITEM: NUMBER OF ATOMS
7
ITEM: BOX BOUNDS ss ss ss
-3.1535 3.1705
-2.6489 3.3158
-1.8954 2.0744
ITEM: ATOMS id type xs ys zs
1 1 .490882 .992915 .590752
2 1 .991515 .634919 .435252
3 1 .813487 .021485 .393176
4 1 .213068 .006545 .507810
5 1 .008784 .605061 .564783
6 1 .539141 .426052 .987522
7 1 .477010 .481219 .013610
ITEM: TIMESTEP
350
ITEM: NUMBER OF ATOMS
7
ITEM: BOX BOUNDS ss ss ss
-3.1513 3.1687
-2.6527 3.3210
-1.9014 2.0794
ITEM: ATOMS id type xs ys zs
1 1 .490588 .992252 .590681
2 1 .991167 .635297 .435629
3 1 .813687 .022073 .393224
4 1 .212550 .006978 .507823
5 1 .009035 .604980 .565271
6 1 .538922 .425846 .985904
7 1 .476916 .480996 .014605
ITEM: TIMESTEP
400
ITEM: NUMBER OF ATOMS
7
ITEM: BOX BOUNDS ss ss ss
-3.1481 3.1753
-2.6614 3.3248
-1.8957 2.0816
ITEM: ATOMS id type xs ys zs
1 1 .489632 .991741 .590043
2 1 .989472 .636166 .434641
3 1 .812594 .023859 .391369
4 1 .211642 .008431 .507455
5 1 .008778 .605328 .564848
6 1 .538033 .426282 .985309
7 1 .476019 .481411 .012719
ITEM: TIMESTEP
1
ITEM: NUMBER OF ATOMS
7
ITEM: BOX BOUNDS ss ss ss
-3.1323 3.1603
-2.6607 3.3193
-1.8923 2.0684
ITEM: ATOMS id type xs ys zs
1 1 .490565 .992751 .592534
2 1 .994119 .635561 .437451
3 1 .814694 .023565 .394420
4 1 .209502 .010794 .506208
5 1 .002077 .603757 .567410
6 1 .541021 .428869 .988406
7 1 .474170 .479854 .013186
ITEM: TIMESTEP
50
ITEM: NUMBER OF ATOMS
7
ITEM: BOX BOUNDS ss ss ss
-3.1548 3.1603
-2.6607 3.3193
-1.8923 2.0684
ITEM: ATOMS id type xs ys zs
1 1 .492296 .992634 .593266
2 1 .994397 .635527 .437113
3 1 .815353 .023511 .394304
4 1 .212307 .011054 .506695
5 1 .005172 .603674 .566423
6 1 .543042 .428921 .988364
7 1 .476064 .479920 .013380
ITEM: TIMESTEP
100
ITEM: NUMBER OF ATOMS
7
ITEM: BOX BOUNDS ss ss ss
-3.1630 3.1608
-2.6607 3.3193
-1.8923 2.0684
ITEM: ATOMS id type xs ys zs
1 1 .492627 .992272 .593222
2 1 .994379 .635688 .436491
3 1 .815440 .023389 .394252
4 1 .213619 .010984 .507483
5 1 .006606 .604162 .565554
6 1 .543401 .428523 .988429
7 1 .477035 .480585 .014016
ITEM: TIMESTEP
150
ITEM: NUMBER OF ATOMS
7
ITEM: BOX BOUNDS ss ss ss
-3.1688 3.1675
-2.6607 3.3193
-1.8923 2.0684
ITEM: ATOMS id type xs ys zs
1 1 .492181 .992110 .592752
2 1 .993079 .635710 .435728
3 1 .814691 .023253 .393954
4 1 .214330 .010905 .508139
5 1 .007985 .604765 .564969
6 1 .542828 .427937 .988469
7 1 .477486 .481216 .014380
ITEM: TIMESTEP
200
ITEM: NUMBER OF ATOMS
7
ITEM: BOX BOUNDS ss ss ss
-3.1625 3.1729
-2.6607 3.3193
-1.8923 2.0690
ITEM: ATOMS id type xs ys zs
1 1 .490740 .992098 .592784
2 1 .991845 .635633 .434660
3 1 .813597 .023230 .393512
4 1 .213629 .010738 .507920
5 1 .007553 .605012 .565252
6 1 .541602 .427645 .988481
7 1 .476780 .481785 .014255
ITEM: TIMESTEP
250
ITEM: NUMBER OF ATOMS
7
ITEM: BOX BOUNDS ss ss ss
-3.1754 3.1665
-2.6607 3.3237
-1.8923 2.0766
ITEM: ATOMS id type xs ys zs
1 1 .491934 .991618 .591926
2 1 .992635 .635043 .432774
3 1 .814601 .023216 .392358
4 1 .215934 .010587 .507056
5 1 .010123 .604979 .564785
6 1 .542986 .427325 .986921
7 1 .478391 .481955 .014314
ITEM: TIMESTEP
300
ITEM: NUMBER OF ATOMS
7
ITEM: BOX BOUNDS ss ss ss
-3.1611 3.1666
-2.6607 3.3286
-1.8923 2.0865
ITEM: ATOMS id type xs ys zs
1 1 .490792 .991197 .590268
2 1 .992266 .634460 .430839
3 1 .814218 .023044 .390779
4 1 .214380 .010419 .506323
5 1 .008641 .604983 .563868
6 1 .541960 .427000 .984272
7 1 .477226 .481730 .014137
ITEM: TIMESTEP
350
ITEM: NUMBER OF ATOMS
7
ITEM: BOX BOUNDS ss ss ss
-3.1622 3.1665
-2.6566 3.3367
-1.8923 2.0825
ITEM: ATOMS id type xs ys zs
1 1 .491224 .990252 .590416
2 1 .991768 .633572 .430600
3 1 .814429 .022280 .390292
4 1 .214491 .009468 .507341
5 1 .009699 .604495 .564716
6 1 .542027 .426016 .984830
7 1 .477313 .480677 .013714
ITEM: TIMESTEP
400
ITEM: NUMBER OF ATOMS
7
ITEM: BOX BOUNDS ss ss ss
-3.1542 3.1693
-2.6589 3.3425
-1.8923 2.0934
ITEM: ATOMS id type xs ys zs
1 1 .490910 .989549 .588487
2 1 .991061 .633452 .428593
3 1 .813853 .022792 .388427
4 1 .213319 .009714 .506132
5 1 .009143 .604562 .563537
6 1 .541089 .425821 .981966
7 1 .476391 .480433 .013373
ITEM: TIMESTEP
1
ITEM: NUMBER OF ATOMS
7
ITEM: BOX BOUNDS ss ss ss
-3.1551 3.1627
-2.6577 3.3373
-1.8839 2.0834
ITEM: ATOMS id type xs ys zs
1 1 .492220 .989775 .589436
2 1 .993764 .633475 .434609
3 1 .815059 .023007 .391641
4 1 .212280 .010270 .503256
5 1 .005683 .601755 .564347
6 1 .542479 .427303 .984640
7 1 .475894 .478157 .011058
ITEM: TIMESTEP
50
ITEM: NUMBER OF ATOMS
7
ITEM: BOX BOUNDS ss ss ss
-3.1551 3.1627
-2.6577 3.3373
-1.8803 2.0834
ITEM: ATOMS id type xs ys zs
1 1 .492120 .989613 .589847
2 1 .994017 .633408 .433799
3 1 .815053 .022940 .390983
4 1 .212219 .010550 .503297
5 1 .005143 .601659 .562941
6 1 .542932 .427367 .984562
7 1 .475901 .478184 .010317
ITEM: TIMESTEP
100
ITEM: NUMBER OF ATOMS
7
ITEM: BOX BOUNDS ss ss ss
-3.1694 3.1627
-2.6548 3.3373
-1.8803 2.0834
ITEM: ATOMS id type xs ys zs
1 1 .492939 .989146 .589836
2 1 .993932 .633257 .433110
3 1 .815420 .022299 .390887
4 1 .214162 .009951 .504083
5 1 .007502 .601865 .562369
6 1 .543723 .426678 .984591
7 1 .477406 .478511 .010810
ITEM: TIMESTEP
150
ITEM: NUMBER OF ATOMS
7
ITEM: BOX BOUNDS ss ss ss
-3.1727 3.1655
-2.6548 3.3373
-1.8803 2.0834
ITEM: ATOMS id type xs ys zs
1 1 .492689 .988908 .589734
2 1 .993092 .633348 .432415
3 1 .815161 .022182 .390473
4 1 .214815 .009650 .504744
5 1 .008487 .602358 .561881
6 1 .543361 .426124 .984709
7 1 .477762 .479123 .011087
ITEM: TIMESTEP
200
ITEM: NUMBER OF ATOMS
7
ITEM: BOX BOUNDS ss ss ss
-3.1666 3.1692
-2.6548 3.3373
-1.8904 2.0834
ITEM: ATOMS id type xs ys zs
1 1 .492067 .988801 .590896
2 1 .992172 .633580 .433316
3 1 .814509 .022229 .391260
4 1 .214294 .009199 .506255
5 1 .008204 .603018 .562469
6 1 .542178 .425440 .984503
7 1 .477095 .479686 .013286
ITEM: TIMESTEP
250
ITEM: NUMBER OF ATOMS
7
ITEM: BOX BOUNDS ss ss ss
-3.1620 3.1647
-2.6548 3.3373
-1.8839 2.0781
ITEM: ATOMS id type xs ys zs
1 1 .492227 .988937 .590458
2 1 .992624 .634017 .432661
3 1 .815066 .022451 .390534
4 1 .213619 .008617 .506792
5 1 .007952 .603701 .562588
6 1 .541821 .424998 .985104
7 1 .477209 .479672 .011705
ITEM: TIMESTEP
300
ITEM: NUMBER OF ATOMS
7
ITEM: BOX BOUNDS ss ss ss
-3.1612 3.1708
-2.6548 3.3373
-1.8889 2.0781
ITEM: ATOMS id type xs ys zs
1 1 .491841 .989217 .590464
2 1 .991412 .634317 .433327
3 1 .814353 .022689 .391276
4 1 .212873 .008224 .508419
5 1 .008291 .604056 .563682
6 1 .540701 .424899 .984941
7 1 .476599 .479393 .013326
ITEM: TIMESTEP
350
ITEM: NUMBER OF ATOMS
7
ITEM: BOX BOUNDS ss ss ss
-3.1689 3.1627
-2.6550 3.3373
-1.8970 2.0781
ITEM: ATOMS id type xs ys zs
1 1 .493156 .989376 .591367
2 1 .992357 .634546 .434658
3 1 .815645 .022906 .392234
4 1 .213880 .008021 .510089
5 1 .010091 .604428 .564931
6 1 .541507 .424912 .985380
7 1 .477750 .479151 .015388
ITEM: TIMESTEP
400
ITEM: NUMBER OF ATOMS
7
ITEM: BOX BOUNDS ss ss ss
-3.1630 3.1690
-2.6649 3.3337
-1.8889 2.0775
ITEM: ATOMS id type xs ys zs
1 1 .492680 .989937 .590882
2 1 .991193 .635806 .432932
3 1 .814750 .024384 .390235
4 1 .212820 .009153 .509076
5 1 .010026 .605441 .565062
6 1 .540502 .425809 .985289
7 1 .476609 .479924 .013369
ITEM: TIMESTEP
1
ITEM: NUMBER OF ATOMS
7
ITEM: BOX BOUNDS ss ss ss
-3.1386 3.1487
-2.6651 3.3196
-1.8848 2.0775
ITEM: ATOMS id type xs ys zs
1 1 .491976 .992703 .590414
2 1 .995951 .635791 .435399
3 1 .816377 .024277 .392381
4 1 .210684 .011520 .504127
5 1 .003087 .604015 .565291
6 1 .542481 .429268 .986121
7 1 .475571 .480204 .011309
ITEM: TIMESTEP
50
ITEM: NUMBER OF ATOMS
7
ITEM: BOX BOUNDS ss ss ss
-3.1522 3.1523
-2.6611 3.3196
-1.8848 2.0775
ITEM: ATOMS id type xs ys zs
1 1 .492688 .992575 .591302
2 1 .995690 .635448 .435041
3 1 .816292 .023595 .392321
4 1 .212222 .011194 .504661
5 1 .004643 .603591 .564186
6 1 .543646 .428976 .986068
7 1 .476434 .479862 .011469
ITEM: TIMESTEP
100
ITEM: NUMBER OF ATOMS
7
ITEM: BOX BOUNDS ss ss ss
-3.1561 3.1643
-2.6611 3.3196
-1.8787 2.0775
ITEM: ATOMS id type xs ys zs
1 1 .491809 .992277 .590939
2 1 .993738 .635307 .433371
3 1 .814773 .023392 .391367
4 1 .212558 .011050 .504656
5 1 .005342 .603921 .562642
6 1 .542726 .428613 .986241
7 1 .476271 .480504 .010536
ITEM: TIMESTEP
150
ITEM: NUMBER OF ATOMS
7
ITEM: BOX BOUNDS ss ss ss
-3.1641 3.1664
-2.6611 3.3196
-1.8787 2.0775
ITEM: ATOMS id type xs ys zs
1 1 .492165 .992017 .591062
2 1 .993095 .635197 .432402
3 1 .814920 .023303 .391651
4 1 .213891 .010843 .505525
5 1 .007023 .604282 .561855
6 1 .542517 .428161 .986607
7 1 .477411 .481126 .010882
ITEM: TIMESTEP
200
ITEM: NUMBER OF ATOMS
7
ITEM: BOX BOUNDS ss ss ss
-3.1646 3.1707
-2.6548 3.3197
-1.8781 2.0780
ITEM: ATOMS id type xs ys zs
1 1 .491711 .991626 .590182
2 1 .992319 .634803 .431522
3 1 .814470 .022398 .392046
4 1 .214062 .009451 .505504
5 1 .007896 .603961 .561038
6 1 .541287 .426870 .987280
7 1 .477667 .481121 .011070
ITEM: TIMESTEP
250
ITEM: NUMBER OF ATOMS
7
ITEM: BOX BOUNDS ss ss ss
-3.1615 3.1835
-2.6598 3.3196
-1.8829 2.0816
ITEM: ATOMS id type xs ys zs
1 1 .490415 .991013 .588813
2 1 .990356 .635263 .431974
3 1 .812656 .023138 .392948
4 1 .213123 .009749 .505475
5 1 .008122 .604109 .559940
6 1 .539125 .426678 .987432
7 1 .477275 .481498 .012549
ITEM: TIMESTEP
300
ITEM: NUMBER OF ATOMS
7
ITEM: BOX BOUNDS ss ss ss
-3.1641 3.1691
-2.6609 3.3196
-1.8914 2.0801
ITEM: ATOMS id type xs ys zs
1 1 .491799 .990560 .589241
2 1 .992452 .635479 .433872
3 1 .814656 .023382 .394763
4 1 .213850 .009514 .507544
5 1 .009109 .604431 .560805
6 1 .540293 .426348 .988458
7 1 .479049 .481067 .014800
ITEM: TIMESTEP
350
ITEM: NUMBER OF ATOMS
7
ITEM: BOX BOUNDS ss ss ss
-3.1579 3.1741
-2.6766 3.3196
-1.8878 2.0921
ITEM: ATOMS id type xs ys zs
1 1 .491136 .990356 .586835
2 1 .991561 .636621 .432498
3 1 .813852 .025841 .393637
4 1 .212679 .012080 .506395
5 1 .008795 .605834 .559382
6 1 .539525 .427565 .986013
7 1 .478419 .481767 .013779
ITEM: TIMESTEP
400
ITEM: NUMBER OF ATOMS
7
ITEM: BOX BOUNDS ss ss ss
-3.1582 3.1703
-2.6739 3.3194
-1.8824 2.0914
ITEM: ATOMS id type xs ys zs
1 1 .491417 .990009 .585854
2 1 .991930 .636911 .432214
3 1 .814539 .025142 .392817
4 1 .212320 .011904 .506117
5 1 .009505 .606292 .559358
6 1 .540178 .426982 .986749
7 1 .478921 .480765 .012036
ITEM: TIMESTEP
1
ITEM: NUMBER OF ATOMS
7
ITEM: BOX BOUNDS ss ss ss
-3.1386 3.1683
-2.6548 3.3194
-1.8812 2.1033
ITEM: ATOMS id type xs ys zs
1 1 .490456 .992727 .586217
2 1 .992870 .635189 .432058
3 1 .813852 .022598 .389274
4 1 .210030 .009820 .500404
5 1 .003077 .603360 .561232
6 1 .540803 .428302 .979722
7 1 .474098 .479327 .010327
ITEM: TIMESTEP
50
ITEM: NUMBER OF ATOMS
7
ITEM: BOX BOUNDS ss ss ss
-3.1535 3.1683
-2.6548 3.3194
-1.8812 2.1033
ITEM: ATOMS id type xs ys zs
1 1 .491562 .992596 .587175
2 1 .993238 .635093 .431738
3 1 .814289 .022554 .389208
4 1 .211798 .010175 .500992
5 1 .004814 .603180 .560097
6 1 .542406 .428402 .979693
7 1 .475301 .479326 .010509
ITEM: TIMESTEP
100
ITEM: NUMBER OF ATOMS
7
ITEM: BOX BOUNDS ss ss ss
-3.1637 3.1683
-2.6548 3.3194
-1.8828 2.1033
ITEM: ATOMS id type xs ys zs
1 1 .492131 .992177 .587649
2 1 .993343 .635280 .431324
3 1 .814494 .022413 .389276
4 1 .213207 .010291 .501858
5 1 .006342 .603573 .559512
6 1 .542993 .427869 .979897
7 1 .476604 .479935 .011549
ITEM: TIMESTEP
150
ITEM: NUMBER OF ATOMS
7
ITEM: BOX BOUNDS ss ss ss
-3.1658 3.1756
-2.6548 3.3194
-1.8852 2.1033
ITEM: ATOMS id type xs ys zs
1 1 .491836 .991296 .588240
2 1 .992291 .636053 .431183
3 1 .813238 .022348 .388714
4 1 .213432 .010195 .502807
5 1 .007053 .604003 .560692
6 1 .541645 .426801 .980585
7 1 .477106 .481090 .012869
ITEM: TIMESTEP
200
ITEM: NUMBER OF ATOMS
7
ITEM: BOX BOUNDS ss ss ss
-3.1648 3.1754
-2.6548 3.3194
-1.8953 2.1033
ITEM: ATOMS id type xs ys zs
1 1 .492030 .990865 .589697
2 1 .992329 .636615 .432916
3 1 .812824 .022509 .389751
4 1 .213159 .009945 .504791
5 1 .007401 .604386 .562327
6 1 .541006 .426136 .980896
7 1 .477656 .481685 .015575
ITEM: TIMESTEP
250
ITEM: NUMBER OF ATOMS
7
ITEM: BOX BOUNDS ss ss ss
-3.1624 3.1746
-2.6549 3.3194
-1.8878 2.1033
ITEM: ATOMS id type xs ys zs
1 1 .491676 .990856 .589576
2 1 .991688 .636489 .432291
3 1 .812691 .021916 .387977
4 1 .212648 .008655 .504950
5 1 .008116 .604672 .559976
6 1 .540422 .425388 .980195
7 1 .477519 .480872 .012779
ITEM: TIMESTEP
300
ITEM: NUMBER OF ATOMS
7
ITEM: BOX BOUNDS ss ss ss
-3.1560 3.1784
-2.6599 3.3194
-1.8889 2.1033
ITEM: ATOMS id type xs ys zs
1 1 .490067 .990924 .589525
2 1 .989749 .636343 .432793
3 1 .811951 .021875 .386807
4 1 .211520 .008245 .506177
5 1 .008103 .605366 .558472
6 1 .539031 .425310 .979740
7 1 .476390 .480077 .012293
ITEM: TIMESTEP
350
ITEM: NUMBER OF ATOMS
7
ITEM: BOX BOUNDS ss ss ss
-3.1557 3.1765
-2.6639 3.3194
-1.8941 2.0775
ITEM: ATOMS id type xs ys zs
1 1 .489444 .990984 .593136
2 1 .988406 .636549 .434448
3 1 .812433 .021480 .389245
4 1 .211890 .008071 .510975
5 1 .009104 .606220 .562917
6 1 .539065 .425330 .986047
7 1 .475949 .478997 .013076
ITEM: TIMESTEP
400
ITEM: NUMBER OF ATOMS
7
ITEM: BOX BOUNDS ss ss ss
-3.1510 3.1702
-2.6631 3.3194
-1.9018 2.0779
ITEM: ATOMS id type xs ys zs
1 1 .488947 .991154 .593240
2 1 .987899 .637279 .433548
3 1 .813337 .020899 .389958
4 1 .211808 .007420 .512665
5 1 .009287 .606350 .564332
6 1 .539491 .424986 .985856
7 1 .475723 .478013 .014325
ITEM: TIMESTEP
1
ITEM: NUMBER OF ATOMS
7
ITEM: BOX BOUNDS ss ss ss
-3.1460 3.1568
-2.6700 3.3194
-1.8864 2.0775
ITEM: ATOMS id type xs ys zs
1 1 .491938 .992748 .590587
2 1 .994677 .636113 .435631
3 1 .815545 .025077 .392627
4 1 .211332 .012329 .504331
5 1 .004247 .604360 .565468
6 1 .542319 .429751 .986123
7 1 .475572 .480646 .011715
ITEM: TIMESTEP
50
ITEM: NUMBER OF ATOMS
7
ITEM: BOX BOUNDS ss ss ss
-3.1523 3.1568
-2.6700 3.3194
-1.8864 2.0775
ITEM: ATOMS id type xs ys zs
1 1 .492336 .992609 .591597
2 1 .995049 .636010 .435283
3 1 .815699 .025028 .392542
4 1 .212048 .012704 .504925
5 1 .004553 .604197 .564198
6 1 .543351 .429855 .986077
7 1 .476034 .480617 .011883
ITEM: TIMESTEP
100
ITEM: NUMBER OF ATOMS
7
ITEM: BOX BOUNDS ss ss ss
-3.1670 3.1628
-2.6700 3.3194
-1.8864 2.0775
ITEM: ATOMS id type xs ys zs
1 1 .492618 .992181 .591888
2 1 .994063 .635904 .434559
3 1 .815250 .024874 .392366
4 1 .213869 .012772 .506167
5 1 .006683 .604558 .563059
6 1 .543750 .429370 .986108
7 1 .477147 .481286 .012704
ITEM: TIMESTEP
150
ITEM: NUMBER OF ATOMS
7
ITEM: BOX BOUNDS ss ss ss
-3.1694 3.1660
-2.6700 3.3194
-1.8888 2.0775
ITEM: ATOMS id type xs ys zs
1 1 .491977 .991772 .592428
2 1 .993473 .635837 .434509
3 1 .814787 .024540 .392439
4 1 .214106 .012616 .508076
5 1 .006985 .605077 .561962
6 1 .543373 .428852 .986667
7 1 .477755 .482042 .014040
ITEM: TIMESTEP
200
ITEM: NUMBER OF ATOMS
7
ITEM: BOX BOUNDS ss ss ss
-3.1700 3.1729
-2.6700 3.3194
-1.8887 2.0775
ITEM: ATOMS id type xs ys zs
1 1 .491256 .991459 .592796
2 1 .992324 .635791 .434059
3 1 .813642 .024126 .392332
4 1 .214093 .012339 .509014
5 1 .007134 .605467 .560920
6 1 .542592 .428463 .987232
7 1 .477672 .482381 .014160
ITEM: TIMESTEP
250
ITEM: NUMBER OF ATOMS
7
ITEM: BOX BOUNDS ss ss ss
-3.1783 3.1814
-2.6700 3.3194
-1.8900 2.0803
ITEM: ATOMS id type xs ys zs
1 1 .490945 .991142 .592611
2 1 .990915 .635780 .433451
3 1 .812813 .023836 .392083
4 1 .214849 .012046 .508933
5 1 .008607 .605704 .560093
6 1 .542226 .427980 .986662
7 1 .477785 .482522 .014613
ITEM: TIMESTEP
300
ITEM: NUMBER OF ATOMS
7
ITEM: BOX BOUNDS ss ss ss
-3.1803 3.1725
-2.6700 3.3194
-1.8871 2.0929
ITEM: ATOMS id type xs ys zs
1 1 .491370 .991040 .590514
2 1 .991995 .636256 .431908
3 1 .814052 .023870 .390074
4 1 .214957 .011794 .506704
5 1 .009179 .605820 .557207
6 1 .542398 .427380 .983423
7 1 .478736 .482315 .014285
ITEM: TIMESTEP
350
ITEM: NUMBER OF ATOMS
7
ITEM: BOX BOUNDS ss ss ss
-3.1829 3.1695
-2.6572 3.3260
-1.8881 2.0813
ITEM: ATOMS id type xs ys zs
1 1 .491370 .989734 .592316
2 1 .992177 .635151 .434002
3 1 .814326 .021811 .391025
4 1 .214802 .009145 .508371
5 1 .009721 .604250 .558243
6 1 .541922 .425104 .986445
7 1 .479454 .480563 .014909
ITEM: TIMESTEP
400
ITEM: NUMBER OF ATOMS
7
ITEM: BOX BOUNDS ss ss ss
-3.1825 3.1803
-2.6603 3.3363
-1.8818 2.0856
ITEM: ATOMS id type xs ys zs
1 1 .490227 .987659 .590275
2 1 .990290 .633973 .432997
3 1 .812445 .022121 .389078
4 1 .213584 .008742 .506515
5 1 .009610 .602944 .556888
6 1 .539647 .423936 .985365
7 1 .478515 .479513 .013111
ITEM: TIMESTEP
450
ITEM: NUMBER OF ATOMS
7
ITEM: BOX BOUNDS ss ss ss
-3.1783 3.1673
-2.6613 3.3360
-1.8797 2.0848
ITEM: ATOMS id type xs ys zs
1 1 .491030 .987181 .588570
2 1 .991963 .633410 .433452
3 1 .813411 .022017 .388014
4 1 .212842 .007769 .506031
5 1 .008831 .602143 .556901
6 1 .538990 .423521 .985179
7 1 .478729 .479010 .012316
ITEM: TIMESTEP
1
ITEM: NUMBER OF ATOMS
7
ITEM: BOX BOUNDS ss ss ss
-3.1625 3.1499
-2.6574 3.3075
-1.8693 2.0821
ITEM: ATOMS id type xs ys zs
1 1 .493805 .994715 .588132
2 1 .995788 .636614 .432675
3 1 .816924 .023063 .389539
4 1 .213621 .010268 .501596
5 1 .006847 .604733 .562933
6 1 .544109 .429407 .984918
7 1 .477464 .480510 .007416
ITEM: TIMESTEP
50
ITEM: NUMBER OF ATOMS
7
ITEM: BOX BOUNDS ss ss ss
-3.1625 3.1550
-2.6574 3.3075
-1.8697 2.0821
ITEM: ATOMS id type xs ys zs
1 1 .493308 .994613 .589225
2 1 .995340 .636508 .432360
3 1 .816246 .023014 .389492
4 1 .213341 .010676 .502207
5 1 .006080 .604522 .561648
6 1 .544279 .429623 .984857
7 1 .477025 .480435 .007661
ITEM: TIMESTEP
100
ITEM: NUMBER OF ATOMS
7
ITEM: BOX BOUNDS ss ss ss
-3.1636 3.1686
-2.6574 3.3114
-1.8762 2.0661
ITEM: ATOMS id type xs ys zs
1 1 .491988 .993661 .592698
2 1 .993222 .635969 .434233
3 1 .814456 .022799 .391932
4 1 .213205 .010824 .505911
5 1 .006066 .604492 .563448
6 1 .543292 .428958 .988876
7 1 .476511 .480691 .010019
ITEM: TIMESTEP
150
ITEM: NUMBER OF ATOMS
7
ITEM: BOX BOUNDS ss ss ss
-3.1672 3.1719
-2.6574 3.3174
-1.8857 2.0766
ITEM: ATOMS id type xs ys zs
1 1 .491370 .992437 .592239
2 1 .992401 .635320 .433139
3 1 .814000 .022502 .392075
4 1 .213526 .010827 .506535
5 1 .006713 .604655 .561802
6 1 .542950 .428004 .986602
7 1 .476924 .480713 .013378
ITEM: TIMESTEP
200
ITEM: NUMBER OF ATOMS
7
ITEM: BOX BOUNDS ss ss ss
-3.1792 3.1828
-2.6574 3.3187
-1.8827 2.0812
ITEM: ATOMS id type xs ys zs
1 1 .491092 .992331 .591296
2 1 .990365 .635166 .431734
3 1 .812703 .022240 .390834
4 1 .214549 .010614 .506946
5 1 .008586 .605395 .560216
6 1 .542783 .427570 .986166
7 1 .477119 .481220 .013571
ITEM: TIMESTEP
250
ITEM: NUMBER OF ATOMS
7
ITEM: BOX BOUNDS ss ss ss
-3.1862 3.1747
-2.6574 3.3293
-1.8787 2.0767
ITEM: ATOMS id type xs ys zs
1 1 .492191 .990908 .591895
2 1 .991278 .633672 .431614
3 1 .813345 .021827 .390477
4 1 .215677 .010386 .508598
5 1 .009952 .605242 .560604
6 1 .544024 .426523 .988128
7 1 .477985 .481034 .013608
ITEM: TIMESTEP
300
ITEM: NUMBER OF ATOMS
7
ITEM: BOX BOUNDS ss ss ss
-3.1749 3.1715
-2.6562 3.3214
-1.8820 2.0832
ITEM: ATOMS id type xs ys zs
1 1 .491563 .992363 .592172