ITEM: TIMESTEP
1
ITEM: NUMBER OF ATOMS
7
ITEM: BOX BOUNDS ss ss ss
-3.1234 3.1276
-2.6006 3.2801
-1.8439 2.0267
ITEM: ATOMS id type xs ys zs
1 1 .492213 .999265 .593801
2 1 .999725 .636052 .434745
3 1 .818672 .013866 .391119
4 1 .209445 .000618 .505357
5 1 .000698 .603807 .568194
6 1 .543304 .425518 .998907
7 1 .475930 .477518 .001480
ITEM: TIMESTEP
50
ITEM: NUMBER OF ATOMS
7
ITEM: BOX BOUNDS ss ss ss
-3.1456 3.1487
-2.6212 3.3011
-1.8660 2.0523
ITEM: ATOMS id type xs ys zs
1 1 .492917 .996137 .591514
2 1 .996718 .635807 .435716
3 1 .816905 .017021 .392573
4 1 .211598 .003338 .503497
5 1 .002617 .605596 .565378
6 1 .544479 .425730 .995058
7 1 .475550 .476556 .007656
ITEM: TIMESTEP
100
ITEM: NUMBER OF ATOMS
7
ITEM: BOX BOUNDS ss ss ss
-3.1559 3.1578
-2.6320 3.3105
-1.8725 2.0603
ITEM: ATOMS id type xs ys zs
1 1 .489866 .992950 .593930
2 1 .994101 .636325 .437392
3 1 .814491 .019681 .388536
4 1 .211843 .002036 .506287
5 1 .008312 .601829 .566178
6 1 .541478 .425045 .991810
7 1 .477938 .479089 .012238
ITEM: TIMESTEP
150
ITEM: NUMBER OF ATOMS
7
ITEM: BOX BOUNDS ss ss ss
-3.1648 3.1630
-2.6447 3.3148
-1.8773 2.0652
ITEM: ATOMS id type xs ys zs
1 1 .487642 .992067 .593413
2 1 .993098 .636166 .437589
3 1 .812641 .022508 .387354
4 1 .213501 .005325 .509132
5 1 .009753 .602378 .562079
6 1 .542627 .423697 .987967
7 1 .479955 .480225 .016206
ITEM: TIMESTEP
200
ITEM: NUMBER OF ATOMS
7
ITEM: BOX BOUNDS ss ss ss
-3.1547 3.1700
-2.6473 3.3207
-1.8839 2.0683
ITEM: ATOMS id type xs ys zs
1 1 .492347 .989422 .590073
2 1 .991171 .635678 .432719
3 1 .814505 .017044 .392203
4 1 .212970 .007425 .502130
5 1 .008617 .605355 .558405
6 1 .540294 .424067 .986991
7 1 .475609 .475329 .016524
ITEM: TIMESTEP
250
ITEM: NUMBER OF ATOMS
7
ITEM: BOX BOUNDS ss ss ss
-3.1568 3.1665
-2.6538 3.3231
-1.8824 2.0818
ITEM: ATOMS id type xs ys zs
1 1 .491935 .992863 .592258
2 1 .990792 .632575 .430023
3 1 .814958 .024995 .389655
4 1 .215729 .006543 .506124
5 1 .008611 .604963 .567260
6 1 .541058 .426448 .985343
7 1 .475332 .482404 .011683
ITEM: TIMESTEP
300
ITEM: NUMBER OF ATOMS
7
ITEM: BOX BOUNDS ss ss ss
-3.1527 3.1604
-2.6543 3.3191
-1.8816 2.0764
ITEM: ATOMS id type xs ys zs
1 1 .491517 .991973 .591733
2 1 .994260 .632903 .428996
3 1 .817507 .024134 .390884
4 1 .215560 .006306 .505902
5 1 .008140 .603226 .566357
6 1 .540843 .425610 .989047
7 1 .474497 .481619 .011041
ITEM: TIMESTEP
350
ITEM: NUMBER OF ATOMS
7
ITEM: BOX BOUNDS ss ss ss
-3.1401 3.1547
-2.6693 3.3248
-1.8925 2.0740
ITEM: ATOMS id type xs ys zs
1 1 .491363 .993625 .593251
2 1 .997075 .634663 .433244
3 1 .819150 .024381 .394497
4 1 .214011 .011025 .507519
5 1 .006590 .603871 .566651
6 1 .541194 .425704 .991272
7 1 .475549 .481722 .012882
ITEM: TIMESTEP
400
ITEM: NUMBER OF ATOMS
7
ITEM: BOX BOUNDS ss ss ss
-3.1461 3.1652
-2.6637 3.3319
-1.8871 2.0772
ITEM: ATOMS id type xs ys zs
1 1 .487367 .992869 .589768
2 1 .987627 .640001 .437755
3 1 .811918 .023767 .399542
4 1 .211729 .007514 .502180
5 1 .007371 .608200 .569535
6 1 .538592 .428287 .993318
7 1 .475361 .484438 .012654
ITEM: TIMESTEP
1
ITEM: NUMBER OF ATOMS
7
ITEM: BOX BOUNDS ss ss ss
-3.1288 3.1449
-2.6675 3.3249
-1.8840 2.0662
ITEM: ATOMS id type xs ys zs
1 1 .491300 .991975 .591935
2 1 .996611 .635429 .436769
3 1 .816580 .024780 .392971
4 1 .209503 .012307 .505452
5 1 .001501 .603736 .567294
6 1 .542277 .429227 .989213
7 1 .474826 .480025 .011079
ITEM: TIMESTEP
50
ITEM: NUMBER OF ATOMS
7
ITEM: BOX BOUNDS ss ss ss
-3.1486 3.1522
-2.6675 3.3249
-1.8840 2.0636
ITEM: ATOMS id type xs ys zs
1 1 .490531 .991088 .591734
2 1 .995043 .635590 .435897
3 1 .815802 .024624 .392710
4 1 .213308 .010626 .505967
5 1 .003628 .605002 .566554
6 1 .541979 .428880 .989669
7 1 .475537 .481065 .011070
ITEM: TIMESTEP
100
ITEM: NUMBER OF ATOMS
7
ITEM: BOX BOUNDS ss ss ss
-3.1578 3.1584
-2.6675 3.3249
-1.8799 2.0636
ITEM: ATOMS id type xs ys zs
1 1 .490102 .993363 .588696
2 1 .995560 .635835 .433199
3 1 .813325 .027071 .392789
4 1 .213957 .014458 .507209
5 1 .005092 .606081 .568903
6 1 .544031 .430405 .992068
7 1 .476620 .481545 .012338
ITEM: TIMESTEP
150
ITEM: NUMBER OF ATOMS
7
ITEM: BOX BOUNDS ss ss ss
-3.1572 3.1610
-2.6675 3.3249
-1.8799 2.0657
ITEM: ATOMS id type xs ys zs
1 1 .492860 .991961 .592619
2 1 .994353 .635455 .441576
3 1 .815067 .020992 .396734
4 1 .212538 .010476 .510128
5 1 .006835 .601519 .565318
6 1 .543345 .426051 .991112
7 1 .478228 .480580 .006100
ITEM: TIMESTEP
200
ITEM: NUMBER OF ATOMS
7
ITEM: BOX BOUNDS ss ss ss
-3.1564 3.1651
-2.6675 3.3133
-1.8886 2.0753
ITEM: ATOMS id type xs ys zs
1 1 .490566 .995617 .590096
2 1 .993853 .634033 .433920
3 1 .816057 .021072 .398940
4 1 .210880 .010410 .500144
5 1 .007372 .601777 .568340
6 1 .541669 .428665 .982972
7 1 .476092 .483525 .014618
ITEM: TIMESTEP
250
ITEM: NUMBER OF ATOMS
7
ITEM: BOX BOUNDS ss ss ss
-3.1632 3.1628
-2.6675 3.3195
-1.8862 2.0748
ITEM: ATOMS id type xs ys zs
1 1 .493661 .992699 .587625
2 1 .991271 .639474 .436763
3 1 .817029 .025323 .389186
4 1 .219969 .009981 .514831
5 1 .010772 .603596 .562044
6 1 .543731 .432727 .991479
7 1 .478295 .481635 .012768
ITEM: TIMESTEP
300
ITEM: NUMBER OF ATOMS
7
ITEM: BOX BOUNDS ss ss ss
-3.1584 3.1672
-2.6675 3.3172
-1.8895 2.0772
ITEM: ATOMS id type xs ys zs
1 1 .491167 .991515 .593595
2 1 .992414 .636912 .434193
3 1 .815926 .027000 .383786
4 1 .214903 .011254 .503062
5 1 .006268 .603810 .569091
6 1 .540333 .425124 .984955
7 1 .474710 .483690 .012393
ITEM: TIMESTEP
350
ITEM: NUMBER OF ATOMS
7
ITEM: BOX BOUNDS ss ss ss
-3.1610 3.1583
-2.6675 3.3236
-1.8914 2.0802
ITEM: ATOMS id type xs ys zs
1 1 .491918 .988899 .594912
2 1 .996190 .635363 .434324
3 1 .816605 .024083 .383922
4 1 .214887 .010574 .506920
5 1 .007347 .603240 .565773
6 1 .543008 .424870 .984367
7 1 .475582 .483518 .012291
ITEM: TIMESTEP
400
ITEM: NUMBER OF ATOMS
7
ITEM: BOX BOUNDS ss ss ss
-3.1438 3.1583
-2.6675 3.3230
-1.8929 2.0831
ITEM: ATOMS id type xs ys zs
1 1 .494733 .992510 .589220
2 1 .994542 .637393 .430750
3 1 .816132 .021713 .389979
4 1 .205414 .012477 .495547
5 1 .011211 .606943 .567690
6 1 .543555 .425250 .981744
7 1 .481570 .479949 .008585
ITEM: TIMESTEP
1
ITEM: NUMBER OF ATOMS
7
ITEM: BOX BOUNDS ss ss ss
-3.1351 3.1575
-2.6474 3.3167
-1.8934 2.0687
ITEM: ATOMS id type xs ys zs
1 1 .490983 .993197 .592429
2 1 .994551 .635059 .437947
3 1 .815333 .021328 .395096
4 1 .210114 .008824 .506158
5 1 .002784 .603102 .567980
6 1 .541803 .428062 .988255
7 1 .474671 .479066 .013094
ITEM: TIMESTEP
50
ITEM: NUMBER OF ATOMS
7
ITEM: BOX BOUNDS ss ss ss
-3.1477 3.1575
-2.6474 3.3167
-1.8934 2.0687
ITEM: ATOMS id type xs ys zs
1 1 .492513 .994492 .592601
2 1 .995379 .633931 .438252
3 1 .814797 .018959 .393145
4 1 .211812 .010910 .507338
5 1 .005941 .602643 .564671
6 1 .543783 .428204 .991057
7 1 .477020 .479623 .015132
ITEM: TIMESTEP
100
ITEM: NUMBER OF ATOMS
7
ITEM: BOX BOUNDS ss ss ss
-3.1594 3.1618
-2.6474 3.3146
-1.8934 2.0662
ITEM: ATOMS id type xs ys zs
1 1 .491309 .992804 .590838
2 1 .994591 .635874 .436578
3 1 .815460 .022206 .394434
4 1 .214107 .008834 .509132
5 1 .006054 .601246 .564745
6 1 .541105 .427913 .992499
7 1 .476337 .483053 .014815
ITEM: TIMESTEP
150
ITEM: NUMBER OF ATOMS
7
ITEM: BOX BOUNDS ss ss ss
-3.1591 3.1689
-2.6474 3.3146
-1.8934 2.0718
ITEM: ATOMS id type xs ys zs
1 1 .490823 .992246 .595857
2 1 .994139 .638391 .430628
3 1 .814242 .021897 .391812
4 1 .214391 .008889 .511653
5 1 .007445 .604916 .563113
6 1 .544333 .427583 .986884
7 1 .476782 .481643 .012387
ITEM: TIMESTEP
200
ITEM: NUMBER OF ATOMS
7
ITEM: BOX BOUNDS ss ss ss
-3.1668 3.1663
-2.6474 3.3238
-1.8934 2.0720
ITEM: ATOMS id type xs ys zs
1 1 .493716 .988675 .591613
2 1 .991796 .634745 .432801
3 1 .811111 .019221 .392592
4 1 .214982 .005910 .513725
5 1 .009319 .602447 .573332
6 1 .542047 .426529 .986867
7 1 .477289 .481826 .013655
ITEM: TIMESTEP
250
ITEM: NUMBER OF ATOMS
7
ITEM: BOX BOUNDS ss ss ss
-3.1560 3.1677
-2.6508 3.3165
-1.8934 2.0732
ITEM: ATOMS id type xs ys zs
1 1 .493553 .990168 .590019
2 1 .993241 .637913 .431308
3 1 .811882 .020201 .393441
4 1 .214327 .006362 .514738
5 1 .007685 .602990 .570949
6 1 .542414 .428015 .988228
7 1 .476502 .484289 .014806
ITEM: TIMESTEP
300
ITEM: NUMBER OF ATOMS
7
ITEM: BOX BOUNDS ss ss ss
-3.1476 3.1696
-2.6564 3.3163
-1.8934 2.0744
ITEM: ATOMS id type xs ys zs
1 1 .490765 .993812 .591096
2 1 .987396 .636262 .431164
3 1 .809564 .021766 .391145
4 1 .210387 .009964 .506913
5 1 .007387 .608491 .569520
6 1 .539590 .427848 .987217
7 1 .476195 .483610 .012683
ITEM: TIMESTEP
350
ITEM: NUMBER OF ATOMS
7
ITEM: BOX BOUNDS ss ss ss
-3.1474 3.1607
-2.6566 3.3296
-1.8934 2.0803
ITEM: ATOMS id type xs ys zs
1 1 .490427 .990698 .588946
2 1 .993200 .636453 .431731
3 1 .814499 .024256 .390553
4 1 .213184 .004392 .510958
5 1 .009159 .599633 .564777
6 1 .537116 .424876 .985412
7 1 .479146 .479209 .016689
ITEM: TIMESTEP
400
ITEM: NUMBER OF ATOMS
7
ITEM: BOX BOUNDS ss ss ss
-3.1483 3.1563
-2.6751 3.3232
-1.8907 2.0877
ITEM: ATOMS id type xs ys zs
1 1 .497083 .994283 .591395
2 1 .996124 .633668 .434463
3 1 .816347 .029620 .392244
4 1 .213253 .008862 .496541
5 1 .011658 .608453 .572502
6 1 .538875 .428304 .982909
7 1 .478097 .486992 .012507
ITEM: TIMESTEP
1
ITEM: NUMBER OF ATOMS
7
ITEM: BOX BOUNDS ss ss ss
-3.1383 3.1538
-2.6685 3.3146
-1.8869 2.0676
ITEM: ATOMS id type xs ys zs
1 1 .491604 .993814 .592669
2 1 .994989 .636467 .436336
3 1 .815794 .024809 .393287
4 1 .210263 .012013 .505979
5 1 .002806 .604744 .566597
6 1 .541843 .429903 .988521
7 1 .475286 .480793 .011998
ITEM: TIMESTEP
50
ITEM: NUMBER OF ATOMS
7
ITEM: BOX BOUNDS ss ss ss
-3.1496 3.1538
-2.6685 3.3146
-1.8869 2.0676
ITEM: ATOMS id type xs ys zs
1 1 .492485 .994531 .594729
2 1 .994788 .634456 .434022
3 1 .815393 .024702 .396430
4 1 .211195 .011966 .505557
5 1 .004728 .604476 .567211
6 1 .543479 .428152 .989989
7 1 .475635 .481447 .014371
ITEM: TIMESTEP
100
ITEM: NUMBER OF ATOMS
7
ITEM: BOX BOUNDS ss ss ss
-3.1631 3.1600
-2.6685 3.3149
-1.8869 2.0666
ITEM: ATOMS id type xs ys zs
1 1 .488759 .992823 .595542
2 1 .994448 .636515 .436918
3 1 .815813 .024149 .390214
4 1 .212794 .008956 .507191
5 1 .006097 .605201 .567504
6 1 .541676 .430555 .985867
7 1 .479735 .478144 .013745
ITEM: TIMESTEP
150
ITEM: NUMBER OF ATOMS
7
ITEM: BOX BOUNDS ss ss ss
-3.1560 3.1653
-2.6632 3.3146
-1.8869 2.0668
ITEM: ATOMS id type xs ys zs
1 1 .491146 .995684 .594454
2 1 .993525 .635712 .433886
3 1 .817883 .022508 .393239
4 1 .210185 .010987 .504816
5 1 .007759 .607709 .565429
6 1 .540585 .428006 .988684
7 1 .477332 .484541 .010934
ITEM: TIMESTEP
200
ITEM: NUMBER OF ATOMS
7
ITEM: BOX BOUNDS ss ss ss
-3.1646 3.1697
-2.6582 3.3146
-1.8869 2.0774
ITEM: ATOMS id type xs ys zs
1 1 .488985 .996451 .597856
2 1 .991384 .635319 .430028
3 1 .818856 .023461 .393598
4 1 .214324 .010044 .502930
5 1 .007554 .607287 .563116
6 1 .540936 .424724 .986535
7 1 .477576 .483057 .009690
ITEM: TIMESTEP
250
ITEM: NUMBER OF ATOMS
7
ITEM: BOX BOUNDS ss ss ss
-3.1512 3.1652
-2.6582 3.3151
-1.9036 2.0807
ITEM: ATOMS id type xs ys zs
1 1 .491096 .989381 .589290
2 1 .991240 .635347 .436860
3 1 .816420 .025538 .392607
4 1 .211811 .007667 .509970
5 1 .003822 .609201 .565092
6 1 .539927 .426945 .988928
7 1 .476010 .478576 .013740
ITEM: TIMESTEP
300
ITEM: NUMBER OF ATOMS
7
ITEM: BOX BOUNDS ss ss ss
-3.1535 3.1705
-2.6489 3.3158
-1.8954 2.0744
ITEM: ATOMS id type xs ys zs
1 1 .487742 .992986 .587430
2 1 .989839 .638733 .436426
3 1 .815499 .020836 .396615
4 1 .216539 .004661 .514440
5 1 .010678 .605825 .568944
6 1 .535305 .426329 .986114
7 1 .475797 .483991 .011460
ITEM: TIMESTEP
350
ITEM: NUMBER OF ATOMS
7
ITEM: BOX BOUNDS ss ss ss
-3.1513 3.1687
-2.6527 3.3210
-1.9014 2.0794
ITEM: ATOMS id type xs ys zs
1 1 .487961 .995234 .582839
2 1 .991065 .633664 .440390
3 1 .814231 .022755 .388503
4 1 .212096 .005166 .507284
5 1 .009365 .601585 .562290
6 1 .538339 .425354 .981629
7 1 .478650 .483263 .008956
ITEM: TIMESTEP
400
ITEM: NUMBER OF ATOMS
7
ITEM: BOX BOUNDS ss ss ss
-3.1481 3.1753
-2.6614 3.3248
-1.8957 2.0816
ITEM: ATOMS id type xs ys zs
1 1 .488428 .996700 .582654
2 1 .992851 .634010 .436094
3 1 .812636 .021455 .387387
4 1 .210192 .004137 .509944
5 1 .008678 .602680 .561619
6 1 .537641 .427556 .981475
7 1 .479018 .482438 .008339
ITEM: TIMESTEP
1
ITEM: NUMBER OF ATOMS
7
ITEM: BOX BOUNDS ss ss ss
-3.1323 3.1603
-2.6607 3.3193
-1.8923 2.0684
ITEM: ATOMS id type xs ys zs
1 1 .490266 .992860 .592847
2 1 .993954 .635697 .437446
3 1 .814573 .023642 .394823
4 1 .209409 .011080 .506535
5 1 .002009 .603738 .567739
6 1 .540979 .429114 .988301
7 1 .474404 .479933 .013209
ITEM: TIMESTEP
50
ITEM: NUMBER OF ATOMS
7
ITEM: BOX BOUNDS ss ss ss
-3.1548 3.1603
-2.6607 3.3193
-1.8923 2.0684
ITEM: ATOMS id type xs ys zs
1 1 .493293 .995594 .593316
2 1 .995082 .635355 .436237
3 1 .816105 .022059 .393856
4 1 .210494 .012680 .506227
5 1 .006075 .605258 .567810
6 1 .545215 .426562 .986462
7 1 .476946 .480427 .014456
ITEM: TIMESTEP
100
ITEM: NUMBER OF ATOMS
7
ITEM: BOX BOUNDS ss ss ss
-3.1630 3.1608
-2.6607 3.3193
-1.8923 2.0684
ITEM: ATOMS id type xs ys zs
1 1 .494058 .991457 .587650
2 1 .995342 .635048 .437861
3 1 .814069 .025406 .394866
4 1 .213667 .008783 .500110
5 1 .008250 .606900 .563304
6 1 .541045 .426520 .992087
7 1 .475219 .483071 .018226
ITEM: TIMESTEP
150
ITEM: NUMBER OF ATOMS
7
ITEM: BOX BOUNDS ss ss ss
-3.1688 3.1675
-2.6607 3.3193
-1.8923 2.0684
ITEM: ATOMS id type xs ys zs
1 1 .492070 .994051 .589440
2 1 .994498 .635856 .437653
3 1 .812040 .027369 .393924
4 1 .214443 .008943 .501919
5 1 .010781 .606423 .565742
6 1 .540649 .425590 .993061
7 1 .474020 .482179 .020799
ITEM: TIMESTEP
200
ITEM: NUMBER OF ATOMS
7
ITEM: BOX BOUNDS ss ss ss
-3.1625 3.1729
-2.6607 3.3193
-1.8923 2.0690
ITEM: ATOMS id type xs ys zs
1 1 .491631 .988675 .592014
2 1 .991919 .635334 .428350
3 1 .812811 .022831 .392212
4 1 .214869 .010430 .505522
5 1 .003894 .603338 .568654
6 1 .543120 .426954 .988781
7 1 .474357 .481404 .014224
ITEM: TIMESTEP
250
ITEM: NUMBER OF ATOMS
7
ITEM: BOX BOUNDS ss ss ss
-3.1754 3.1665
-2.6607 3.3237
-1.8923 2.0766
ITEM: ATOMS id type xs ys zs
1 1 .488801 .990247 .587351
2 1 .990115 .634541 .430166
3 1 .815744 .023232 .393658
4 1 .216863 .012538 .504158
5 1 .009686 .602521 .565859
6 1 .542621 .428766 .981909
7 1 .477059 .483199 .016815
ITEM: TIMESTEP
300
ITEM: NUMBER OF ATOMS
7
ITEM: BOX BOUNDS ss ss ss
-3.1611 3.1666
-2.6607 3.3286
-1.8923 2.0865
ITEM: ATOMS id type xs ys zs
1 1 .492285 .995413 .591362
2 1 .990270 .632906 .435271
3 1 .815610 .022715 .386161
4 1 .217896 .013531 .504930
5 1 .008703 .604450 .560120
6 1 .540871 .426629 .979916
7 1 .474595 .483523 .012982
ITEM: TIMESTEP
350
ITEM: NUMBER OF ATOMS
7
ITEM: BOX BOUNDS ss ss ss
-3.1622 3.1665
-2.6566 3.3367
-1.8923 2.0825
ITEM: ATOMS id type xs ys zs
1 1 .495008 .989833 .596120
2 1 .992034 .634877 .436337
3 1 .810302 .022573 .396409
4 1 .215001 .009488 .510694
5 1 .010217 .606368 .567490
6 1 .537750 .427453 .989168
7 1 .477203 .479027 .005985
ITEM: TIMESTEP
400
ITEM: NUMBER OF ATOMS
7
ITEM: BOX BOUNDS ss ss ss
-3.1542 3.1693
-2.6589 3.3425
-1.8923 2.0934
ITEM: ATOMS id type xs ys zs
1 1 .490610 .991072 .594450
2 1 .993172 .636480 .430706
3 1 .814845 .020790 .389244
4 1 .212871 .007468 .506614
5 1 .007145 .605453 .563022
6 1 .537266 .425963 .979245
7 1 .476663 .480121 .014953
ITEM: TIMESTEP
1
ITEM: NUMBER OF ATOMS
7
ITEM: BOX BOUNDS ss ss ss
-3.1551 3.1627
-2.6577 3.3373
-1.8839 2.0834
ITEM: ATOMS id type xs ys zs
1 1 .492318 .989678 .589030
2 1 .993714 .633207 .434820
3 1 .815113 .023050 .391957
4 1 .212373 .010214 .503507
5 1 .005654 .601734 .564134
6 1 .542588 .427268 .984578
7 1 .475819 .478149 .011241
ITEM: TIMESTEP
50
ITEM: NUMBER OF ATOMS
7
ITEM: BOX BOUNDS ss ss ss
-3.1551 3.1627
-2.6577 3.3373
-1.8803 2.0834
ITEM: ATOMS id type xs ys zs
1 1 .492716 .988864 .590832
2 1 .993289 .632336 .436003
3 1 .816821 .021234 .389909
4 1 .211560 .009104 .502922
5 1 .007333 .601663 .565696
6 1 .543217 .426918 .980932
7 1 .476653 .479135 .012375
ITEM: TIMESTEP
100
ITEM: NUMBER OF ATOMS
7
ITEM: BOX BOUNDS ss ss ss
-3.1694 3.1627
-2.6548 3.3373
-1.8803 2.0834
ITEM: ATOMS id type xs ys zs
1 1 .496711 .987569 .587956
2 1 .993197 .632823 .438104
3 1 .815232 .020361 .389142
4 1 .212370 .008713 .503890
5 1 .007210 .603288 .561033
6 1 .543741 .426536 .984264
7 1 .478969 .479307 .005790
ITEM: TIMESTEP
150
ITEM: NUMBER OF ATOMS
7
ITEM: BOX BOUNDS ss ss ss
-3.1727 3.1655
-2.6548 3.3373
-1.8803 2.0834
ITEM: ATOMS id type xs ys zs
1 1 .492810 .988365 .590039
2 1 .992141 .634682 .431713
3 1 .814549 .023347 .391809
4 1 .218068 .010221 .497974
5 1 .008242 .596980 .565377
6 1 .542256 .424457 .985284
7 1 .476685 .480436 .011525
ITEM: TIMESTEP
200
ITEM: NUMBER OF ATOMS
7
ITEM: BOX BOUNDS ss ss ss
-3.1666 3.1692
-2.6548 3.3373
-1.8904 2.0834
ITEM: ATOMS id type xs ys zs
1 1 .492766 .988623 .592916
2 1 .991735 .632546 .430843
3 1 .811723 .023903 .392907
4 1 .217404 .011556 .502167
5 1 .007667 .597698 .563875
6 1 .541342 .423642 .983764
7 1 .476780 .479835 .014703
ITEM: TIMESTEP
250
ITEM: NUMBER OF ATOMS
7
ITEM: BOX BOUNDS ss ss ss
-3.1620 3.1647
-2.6548 3.3373
-1.8839 2.0781
ITEM: ATOMS id type xs ys zs
1 1 .489536 .989343 .596066
2 1 .990292 .632743 .433862
3 1 .817476 .020277 .391463
4 1 .214672 .009165 .503911
5 1 .007564 .602594 .556827
6 1 .543269 .424719 .987793
7 1 .476776 .478426 .013637
ITEM: TIMESTEP
300
ITEM: NUMBER OF ATOMS
7
ITEM: BOX BOUNDS ss ss ss
-3.1612 3.1708
-2.6548 3.3373
-1.8889 2.0781
ITEM: ATOMS id type xs ys zs
1 1 .488912 .988668 .597886
2 1 .990804 .635818 .432233
3 1 .818287 .020030 .390550
4 1 .214075 .009017 .506351
5 1 .005859 .601683 .556605
6 1 .543765 .425167 .988395
7 1 .476880 .478816 .015166
ITEM: TIMESTEP
350
ITEM: NUMBER OF ATOMS
7
ITEM: BOX BOUNDS ss ss ss
-3.1689 3.1627
-2.6550 3.3373
-1.8970 2.0781
ITEM: ATOMS id type xs ys zs
1 1 .488434 .990446 .592549
2 1 .992120 .636569 .435361
3 1 .811974 .022311 .391902
4 1 .214788 .018064 .510018
5 1 .006650 .606875 .566287
6 1 .543823 .427671 .992851
7 1 .478844 .480368 .015323
ITEM: TIMESTEP
400
ITEM: NUMBER OF ATOMS
7
ITEM: BOX BOUNDS ss ss ss
-3.1630 3.1690
-2.6649 3.3337
-1.8889 2.0775
ITEM: ATOMS id type xs ys zs
1 1 .495102 .991533 .586013
2 1 .991426 .635171 .437073
3 1 .816266 .023327 .388352
4 1 .213335 .008651 .510037
5 1 .011186 .608944 .554434
6 1 .542578 .424794 .988122
7 1 .477434 .482496 .008634
ITEM: TIMESTEP
1
ITEM: NUMBER OF ATOMS
7
ITEM: BOX BOUNDS ss ss ss
-3.1386 3.1487
-2.6651 3.3196
-1.8848 2.0775
ITEM: ATOMS id type xs ys zs
1 1 .492021 .992783 .590560
2 1 .995895 .635747 .436172
3 1 .816240 .024163 .392656
4 1 .210571 .011728 .503909
5 1 .003237 .604011 .565538
6 1 .542264 .429253 .986260
7 1 .475647 .480436 .011214
ITEM: TIMESTEP
50
ITEM: NUMBER OF ATOMS
7
ITEM: BOX BOUNDS ss ss ss
-3.1522 3.1523
-2.6611 3.3196
-1.8848 2.0775
ITEM: ATOMS id type xs ys zs
1 1 .491181 .991247 .589786
2 1 .997204 .635659 .434956
3 1 .816386 .023312 .395416
4 1 .213060 .012815 .505327
5 1 .004681 .602701 .563682
6 1 .544866 .428029 .987214
7 1 .476843 .481021 .012502
ITEM: TIMESTEP
100
ITEM: NUMBER OF ATOMS
7
ITEM: BOX BOUNDS ss ss ss
-3.1561 3.1643
-2.6611 3.3196
-1.8787 2.0775
ITEM: ATOMS id type xs ys zs
1 1 .489886 .989522 .590449
2 1 .995626 .634893 .433239
3 1 .814272 .024596 .389390
4 1 .211996 .014753 .504842
5 1 .003833 .602851 .560644
6 1 .545292 .427779 .988850
7 1 .478482 .480628 .012993
ITEM: TIMESTEP
150
ITEM: NUMBER OF ATOMS
7
ITEM: BOX BOUNDS ss ss ss
-3.1641 3.1664
-2.6611 3.3196
-1.8787 2.0775
ITEM: ATOMS id type xs ys zs
1 1 .494448 .990819 .595426
2 1 .991716 .634886 .429337
3 1 .815501 .024040 .389717
4 1 .211459 .012014 .510704
5 1 .007969 .603335 .557649
6 1 .542496 .423831 .988920
7 1 .476963 .480861 .014147
ITEM: TIMESTEP
200
ITEM: NUMBER OF ATOMS
7
ITEM: BOX BOUNDS ss ss ss
-3.1646 3.1707
-2.6548 3.3197
-1.8781 2.0780
ITEM: ATOMS id type xs ys zs
1 1 .493552 .989259 .588460
2 1 .992971 .636376 .432784
3 1 .812459 .021873 .395130
4 1 .211532 .008928 .511712
5 1 .009389 .606081 .563220
6 1 .542692 .427940 .988163
7 1 .476625 .478605 .010353
ITEM: TIMESTEP
250
ITEM: NUMBER OF ATOMS
7
ITEM: BOX BOUNDS ss ss ss
-3.1615 3.1835
-2.6598 3.3196
-1.8829 2.0816
ITEM: ATOMS id type xs ys zs
1 1 .493234 .989412 .591239
2 1 .991892 .637018 .433634
3 1 .811562 .020246 .392471
4 1 .211546 .009932 .515655
5 1 .009170 .606255 .560852
6 1 .542173 .428633 .990064
7 1 .474992 .479151 .012175
ITEM: TIMESTEP
300
ITEM: NUMBER OF ATOMS
7
ITEM: BOX BOUNDS ss ss ss
-3.1641 3.1691
-2.6609 3.3196
-1.8914 2.0801
ITEM: ATOMS id type xs ys zs
1 1 .494516 .990259 .594489
2 1 .993098 .636664 .436082
3 1 .812170 .019272 .393279
4 1 .213150 .009517 .520542
5 1 .008836 .606531 .561511
6 1 .544345 .428632 .990023
7 1 .474407 .476408 .017441
ITEM: TIMESTEP
350
ITEM: NUMBER OF ATOMS
7
ITEM: BOX BOUNDS ss ss ss
-3.1579 3.1741
-2.6766 3.3196
-1.8878 2.0921
ITEM: ATOMS id type xs ys zs
1 1 .488780 .992332 .591610
2 1 .989595 .633529 .423475
3 1 .817315 .025963 .402243
4 1 .217349 .011108 .506667
5 1 .012912 .602872 .566061
6 1 .539640 .425850 .984856
7 1 .479811 .482505 .015920
ITEM: TIMESTEP
400
ITEM: NUMBER OF ATOMS
7
ITEM: BOX BOUNDS ss ss ss
-3.1582 3.1703
-2.6739 3.3194
-1.8824 2.0914
ITEM: ATOMS id type xs ys zs
1 1 .493309 .989986 .579411
2 1 .989380 .635858 .438174
3 1 .815018 .022900 .392097
4 1 .213310 .013626 .506115
5 1 .007146 .614435 .558183
6 1 .543177 .422910 .989581
7 1 .477694 .479121 .008812
ITEM: TIMESTEP
1
ITEM: NUMBER OF ATOMS
7
ITEM: BOX BOUNDS ss ss ss
-3.1386 3.1683
-2.6548 3.3194
-1.8812 2.1033
ITEM: ATOMS id type xs ys zs
1 1 .490171 .992629 .586041
2 1 .992895 .635319 .431762
3 1 .813766 .022353 .389399
4 1 .210063 .009915 .500160
5 1 .002788 .603332 .561460
6 1 .540774 .428384 .979652
7 1 .474319 .479593 .010543
ITEM: TIMESTEP
50
ITEM: NUMBER OF ATOMS
7
ITEM: BOX BOUNDS ss ss ss
-3.1535 3.1683
-2.6548 3.3194
-1.8812 2.1033
ITEM: ATOMS id type xs ys zs
1 1 .491004 .992823 .585512
2 1 .992960 .633317 .433451
3 1 .814586 .022246 .391202
4 1 .212669 .009548 .498638
5 1 .004527 .601829 .560162
6 1 .545457 .427115 .978444
7 1 .474036 .479693 .015363
ITEM: TIMESTEP
100
ITEM: NUMBER OF ATOMS
7
ITEM: BOX BOUNDS ss ss ss
-3.1637 3.1683
-2.6548 3.3194
-1.8828 2.1033
ITEM: ATOMS id type xs ys zs
1 1 .490101 .992949 .591603
2 1 .991997 .635797 .432576
3 1 .814689 .022250 .387697
4 1 .211412 .011572 .501634
5 1 .007008 .603130 .561887
6 1 .542339 .428527 .980531
7 1 .473518 .479947 .012012
ITEM: TIMESTEP
150
ITEM: NUMBER OF ATOMS
7
ITEM: BOX BOUNDS ss ss ss
-3.1658 3.1756
-2.6548 3.3194
-1.8852 2.1033
ITEM: ATOMS id type xs ys zs
1 1 .491306 .988775 .592626
2 1 .991648 .639673 .432013
3 1 .811631 .020486 .391864
4 1 .214374 .008957 .506273
5 1 .005282 .605342 .557158
6 1 .539651 .425722 .981326
7 1 .476515 .484317 .012339
ITEM: TIMESTEP
200
ITEM: NUMBER OF ATOMS
7
ITEM: BOX BOUNDS ss ss ss
-3.1648 3.1754
-2.6548 3.3194
-1.8953 2.1033
ITEM: ATOMS id type xs ys zs
1 1 .493001 .989014 .595191
2 1 .992989 .639630 .432388
3 1 .811930 .019764 .393192
4 1 .214914 .009679 .510060
5 1 .005325 .605047 .557238
6 1 .539408 .427142 .981099
7 1 .476190 .485950 .015047
ITEM: TIMESTEP
250
ITEM: NUMBER OF ATOMS
7
ITEM: BOX BOUNDS ss ss ss
-3.1624 3.1746
-2.6549 3.3194
-1.8878 2.1033
ITEM: ATOMS id type xs ys zs
1 1 .493330 .992885 .593587
2 1 .990047 .638045 .428133
3 1 .814241 .021055 .394243
4 1 .211832 .014139 .502910
5 1 .011099 .608078 .559517
6 1 .539411 .423876 .977576
7 1 .476350 .481488 .014720
ITEM: TIMESTEP
300
ITEM: NUMBER OF ATOMS
7
ITEM: BOX BOUNDS ss ss ss
-3.1560 3.1784
-2.6599 3.3194
-1.8889 2.1033
ITEM: ATOMS id type xs ys zs
1 1 .489512 .989686 .597980
2 1 .990503 .639455 .427123
3 1 .811443 .024087 .390266
4 1 .208496 .014492 .505942
5 1 .007878 .606711 .563356
6 1 .543068 .423577 .981279
7 1 .478227 .482931 .016475
ITEM: TIMESTEP
350
ITEM: NUMBER OF ATOMS
7
ITEM: BOX BOUNDS ss ss ss
-3.1557 3.1765
-2.6639 3.3194
-1.8941 2.0775
ITEM: ATOMS id type xs ys zs
1 1 .491977 .988117 .592393
2 1 .993057 .641732 .442922
3 1 .810184 .023505 .390924
4 1 .211859 .010437 .511863
5 1 .008048 .607212 .561214
6 1 .536994 .424666 .988840
7 1 .479178 .483050 .014580
ITEM: TIMESTEP
400
ITEM: NUMBER OF ATOMS
7
ITEM: BOX BOUNDS ss ss ss
-3.1510 3.1702
-2.6631 3.3194
-1.9018 2.0779
ITEM: ATOMS id type xs ys zs
1 1 .488632 .990051 .594222
2 1 .987352 .634510 .433760
3 1 .814448 .023427 .387064
4 1 .211050 .007176 .515441
5 1 .010014 .605822 .564595
6 1 .539699 .424785 .981961
7 1 .476356 .481663 .010558
ITEM: TIMESTEP
1
ITEM: NUMBER OF ATOMS
7
ITEM: BOX BOUNDS ss ss ss
-3.1460 3.1568
-2.6700 3.3194
-1.8864 2.0775
ITEM: ATOMS id type xs ys zs
1 1 .491720 .993010 .590502
2 1 .994751 .636270 .435573
3 1 .815578 .025106 .392402
4 1 .211170 .012121 .504260
5 1 .004274 .604188 .565366
6 1 .542403 .429754 .986205
7 1 .475318 .480635 .011628
ITEM: TIMESTEP
50
ITEM: NUMBER OF ATOMS
7
ITEM: BOX BOUNDS ss ss ss
-3.1523 3.1568
-2.6700 3.3194
-1.8864 2.0775
ITEM: ATOMS id type xs ys zs
1 1 .491420 .992456 .589537
2 1 .995187 .638188 .438800
3 1 .815629 .024551 .391650
4 1 .212594 .013009 .504313
5 1 .003208 .603484 .565987
6 1 .544611 .430258 .984191
7 1 .474098 .479622 .011265
ITEM: TIMESTEP
100
ITEM: NUMBER OF ATOMS
7
ITEM: BOX BOUNDS ss ss ss
-3.1670 3.1628
-2.6700 3.3194
-1.8864 2.0775
ITEM: ATOMS id type xs ys zs
1 1 .493567 .991841 .589512
2 1 .994892 .634461 .431333
3 1 .816061 .022624 .390301
4 1 .214526 .011042 .509025
5 1 .007394 .608302 .564899
6 1 .542134 .429690 .987580
7 1 .476430 .481178 .015742
ITEM: TIMESTEP
150
ITEM: NUMBER OF ATOMS
7
ITEM: BOX BOUNDS ss ss ss
-3.1694 3.1660
-2.6700 3.3194
-1.8888 2.0775
ITEM: ATOMS id type xs ys zs
1 1 .493863 .989632 .589117
2 1 .995101 .634775 .434230
3 1 .817701 .021467 .389339
4 1 .214795 .012989 .511480
5 1 .007602 .608713 .562968
6 1 .543142 .427244 .988327
7 1 .474645 .483367 .017714
ITEM: TIMESTEP
200
ITEM: NUMBER OF ATOMS
7
ITEM: BOX BOUNDS ss ss ss
-3.1700 3.1729
-2.6700 3.3194
-1.8887 2.0775
ITEM: ATOMS id type xs ys zs
1 1 .491982 .992890 .594780
2 1 .990872 .636060 .432227
3 1 .811504 .022625 .395637
4 1 .215940 .015144 .508697
5 1 .008176 .605716 .563611
6 1 .540382 .430099 .989142
7 1 .478643 .481620 .010465
ITEM: TIMESTEP
250
ITEM: NUMBER OF ATOMS
7
ITEM: BOX BOUNDS ss ss ss
-3.1783 3.1814
-2.6700 3.3194
-1.8900 2.0803
ITEM: ATOMS id type xs ys zs
1 1 .492022 .993657 .595313
2 1 .989742 .635424 .430681
3 1 .810179 .020563 .396280
4 1 .216753 .014499 .507242
5 1 .007283 .605047 .559260
6 1 .540017 .430115 .992059
7 1 .477285 .480976 .009883
ITEM: TIMESTEP
300
ITEM: NUMBER OF ATOMS
7
ITEM: BOX BOUNDS ss ss ss
-3.1803 3.1725
-2.6700 3.3194
-1.8871 2.0929
ITEM: ATOMS id type xs ys zs
1 1 .493429 .996851 .594900
2 1 .990668 .640894 .432959
3 1 .813957 .024609 .390347
4 1 .217676 .010699 .508150
5 1 .006250 .603604 .553922
6 1 .540609 .430162 .981589
7 1 .477777 .482925 .015615
ITEM: TIMESTEP
350
ITEM: NUMBER OF ATOMS
7
ITEM: BOX BOUNDS ss ss ss
-3.1829 3.1695
-2.6572 3.3260
-1.8881 2.0813
ITEM: ATOMS id type xs ys zs
1 1 .492442 .988400 .592848
2 1 .992020 .637031 .435933
3 1 .812644 .020383 .391626
4 1 .211693 .006331 .510579
5 1 .010610 .607519 .554825
6 1 .537272 .426016 .982758
7 1 .482451 .477663 .019390
ITEM: TIMESTEP
400
ITEM: NUMBER OF ATOMS
7
ITEM: BOX BOUNDS ss ss ss
-3.1825 3.1803
-2.6603 3.3363
-1.8818 2.0856
ITEM: ATOMS id type xs ys zs
1 1 .487957 .988002 .595246
2 1 .986567 .633708 .434611
3 1 .815175 .025866 .390147
4 1 .210157 .010998 .500332
5 1 .010128 .602621 .559190
6 1 .537795 .422407 .987612
7 1 .479887 .477637 .009853
ITEM: TIMESTEP
450
ITEM: NUMBER OF ATOMS
7
ITEM: BOX BOUNDS ss ss ss
-3.1783 3.1673
-2.6613 3.3360
-1.8797 2.0848
ITEM: ATOMS id type xs ys zs
1 1 .489773 .988229 .587268
2 1 .992834 .634449 .429755
3 1 .815367 .019241 .389805
4 1 .212429 .008074 .510815
5 1 .008266 .602423 .560639
6 1 .536857 .426586 .978705
7 1 .479259 .475872 .007476
ITEM: TIMESTEP
1
ITEM: NUMBER OF ATOMS
7
ITEM: BOX BOUNDS ss ss ss
-3.1625 3.1499
-2.6574 3.3075
-1.8693 2.0821
ITEM: ATOMS id type xs ys zs
1 1 .493989 .994703 .587881
2 1 .996012 .636974 .432935
3 1 .816719 .022999 .389780
4 1 .213342 .010378 .501517
5 1 .006731 .604497 .562887
6 1 .543883 .429428 .984994
7 1 .477105 .480581 .007999
ITEM: TIMESTEP
50
ITEM: NUMBER OF ATOMS
7
ITEM: BOX BOUNDS ss ss ss
-3.1625 3.1550
-2.6574 3.3075
-1.8697 2.0821
ITEM: ATOMS id type xs ys zs
1 1 .494302 .994098 .588399
2 1 .995476 .636967 .433978
3 1 .816277 .023700 .387749
4 1 .213207 .012212 .506000
5 1 .007757 .603968 .564005
6 1 .544448 .427945 .981485
7 1 .475772 .482463 .008699
ITEM: TIMESTEP
100
ITEM: NUMBER OF ATOMS
7
ITEM: BOX BOUNDS ss ss ss
-3.1636 3.1686
-2.6574 3.3114
-1.8762 2.0661
ITEM: ATOMS id type xs ys zs
1 1 .493559 .995584 .590230
2 1 .995128 .636781 .437627
3 1 .813435 .025750 .392306
4 1 .212034 .011941 .507689
5 1 .008615 .604099 .562980
6 1 .541517 .425652 .986056
7 1 .474720 .481528 .013560
ITEM: TIMESTEP
150
ITEM: NUMBER OF ATOMS
7
ITEM: BOX BOUNDS ss ss ss
-3.1672 3.1719
-2.6574 3.3174
-1.8857 2.0766
ITEM: ATOMS id type xs ys zs
1 1 .492246 .993985 .589199
2 1 .990355 .632634 .429309
3 1 .815508 .023284 .388802
4 1 .215667 .008253 .508422
5 1 .010598 .606892 .563111
6 1 .543592 .430327 .984325
7 1 .475383 .481075 .013497
ITEM: TIMESTEP
200
ITEM: NUMBER OF ATOMS
7
ITEM: BOX BOUNDS ss ss ss
-3.1792 3.1828
-2.6574 3.3187
-1.8827 2.0812
ITEM: ATOMS id type xs ys zs
1 1 .491918 .994413 .591684
2 1 .992604 .635549 .433543
3 1 .813885 .024558 .388347
4 1 .217681 .010877 .501858
5 1 .005051 .602297 .560657
6 1 .542866 .430560 .981981
7 1 .478817 .484643 .016253
ITEM: TIMESTEP
250
ITEM: NUMBER OF ATOMS
7
ITEM: BOX BOUNDS ss ss ss
-3.1862 3.1747
-2.6574 3.3293
-1.8787 2.0767
ITEM: ATOMS id type xs ys zs
1 1 .491443 .992485 .595256
2 1 .988700 .633682 .439979
3 1 .812857 .019531 .385364
4 1 .216390 .012305 .512042
5 1 .012655 .606830 .561584
6 1 .544974 .424964 .991053
7 1 .479071 .482750 .014068
ITEM: TIMESTEP
300
ITEM: NUMBER OF ATOMS
7
ITEM: BOX BOUNDS ss ss ss
-3.1749 3.1715
-2.6562 3.3214
-1.8820 2.0832
ITEM: ATOMS id type xs ys zs
1 1 .489801 .994539 .594842