ITEM: TIMESTEP
1
ITEM: NUMBER OF ATOMS
7
ITEM: BOX BOUNDS ss ss ss
-3.0084 3.1152
-2.7604 3.1950
-2.1865 1.8549
ITEM: ATOMS id type xs ys zs
1 1 .484648 .999219 .496907
2 1 .999130 .645259 .510105
3 1 .841981 .034101 .531367
4 1 .224353 .000588 .506891
5 1 .000222 .601378 .470647
6 1 .496884 .459857 .998764
7 1 .516171 .460084 .000630
ITEM: TIMESTEP
50
ITEM: NUMBER OF ATOMS
7
ITEM: BOX BOUNDS ss ss ss
-3.0297 3.1385
-2.7800 3.2184
-2.2110 1.8802
ITEM: ATOMS id type xs ys zs
1 1 .484085 .994472 .497944
2 1 .996664 .641994 .507073
3 1 .838883 .039226 .527939
4 1 .226550 .003313 .505157
5 1 .006214 .598624 .472176
6 1 .496952 .459706 .992337
7 1 .518190 .459456 .004025
ITEM: TIMESTEP
100
ITEM: NUMBER OF ATOMS
7
ITEM: BOX BOUNDS ss ss ss
-3.0390 3.1456
-2.7862 3.2312
-2.2200 1.8860
ITEM: ATOMS id type xs ys zs
1 1 .483786 .995264 .499720
2 1 .994233 .646586 .513527
3 1 .837832 .037698 .531632
4 1 .229096 .004810 .508015
5 1 .005415 .598061 .470473
6 1 .494697 .462624 .994102
7 1 .515849 .458019 .009887
ITEM: TIMESTEP
150
ITEM: NUMBER OF ATOMS
7
ITEM: BOX BOUNDS ss ss ss
-3.0418 3.1433
-2.7886 3.2435
-2.2238 1.8855
ITEM: ATOMS id type xs ys zs
1 1 .485303 .991447 .493668
2 1 .991421 .642642 .512992
3 1 .836024 .038685 .527622
4 1 .224942 .004407 .508838
5 1 .007503 .594622 .471456
6 1 .499957 .457711 .994134
7 1 .516296 .455694 .010391
ITEM: TIMESTEP
200
ITEM: NUMBER OF ATOMS
7
ITEM: BOX BOUNDS ss ss ss
-3.0448 3.1532
-2.7854 3.2365
-2.2128 1.8872
ITEM: ATOMS id type xs ys zs
1 1 .482019 .994970 .500109
2 1 .991954 .645600 .509281
3 1 .837068 .035889 .527245
4 1 .226059 .004051 .507515
5 1 .006048 .595147 .470231
6 1 .497242 .460590 .985055
7 1 .515282 .453368 .013366
ITEM: TIMESTEP
250
ITEM: NUMBER OF ATOMS
7
ITEM: BOX BOUNDS ss ss ss
-3.0428 3.1581
-2.7959 3.2436
-2.2114 1.8848
ITEM: ATOMS id type xs ys zs
1 1 .481559 .992029 .500603
2 1 .992232 .645082 .505294
3 1 .836701 .037594 .529440
4 1 .224163 .004648 .508733
5 1 .006329 .596094 .470996
6 1 .494975 .461428 .985234
7 1 .513975 .453744 .016420
ITEM: TIMESTEP
300
ITEM: NUMBER OF ATOMS
7
ITEM: BOX BOUNDS ss ss ss
-3.0439 3.1577
-2.7926 3.2489
-2.2002 1.8801
ITEM: ATOMS id type xs ys zs
1 1 .481103 .993481 .501762
2 1 .992361 .648083 .504572
3 1 .833318 .036908 .529575
4 1 .220601 .007629 .508048
5 1 .008283 .596494 .470556
6 1 .500293 .460386 .984362
7 1 .514626 .448396 .011094
ITEM: TIMESTEP
350
ITEM: NUMBER OF ATOMS
7
ITEM: BOX BOUNDS ss ss ss
-3.0501 3.1585
-2.8080 3.2483
-2.2025 1.8733
ITEM: ATOMS id type xs ys zs
1 1 .480445 .994077 .506298
2 1 .990750 .648578 .500600
3 1 .831331 .039914 .531059
4 1 .220786 .010536 .510282
5 1 .007115 .597241 .470453
6 1 .500049 .462417 .981745
7 1 .514727 .451623 .014302
ITEM: TIMESTEP
400
ITEM: NUMBER OF ATOMS
7
ITEM: BOX BOUNDS ss ss ss
-3.0489 3.1681
-2.8061 3.2563
-2.1957 1.8699
ITEM: ATOMS id type xs ys zs
1 1 .484693 .990035 .501243
2 1 .990537 .645085 .504986
3 1 .835085 .039015 .526459
4 1 .226741 .007347 .503531
5 1 .009177 .599450 .472798
6 1 .499525 .462644 .986909
7 1 .515745 .450578 .010872
ITEM: TIMESTEP
1
ITEM: NUMBER OF ATOMS
7
ITEM: BOX BOUNDS ss ss ss
-3.0346 3.1520
-2.7826 3.2455
-2.1865 1.8549
ITEM: ATOMS id type xs ys zs
1 1 .483829 .991152 .496087
2 1 .993632 .641140 .510622
3 1 .838052 .037749 .531159
4 1 .226201 .004192 .506613
5 1 .004691 .597764 .471016
6 1 .496157 .457852 .999101
7 1 .515264 .457942 .001159
ITEM: TIMESTEP
50
ITEM: NUMBER OF ATOMS
7
ITEM: BOX BOUNDS ss ss ss
-3.0346 3.1520
-2.7826 3.2455
-2.2115 1.8850
ITEM: ATOMS id type xs ys zs
1 1 .484477 .990308 .496385
2 1 .993463 .640495 .508237
3 1 .836996 .037378 .532812
4 1 .226099 .003439 .505617
5 1 .004466 .596902 .470152
6 1 .495916 .459284 .990814
7 1 .515133 .455843 .006357
ITEM: TIMESTEP
100
ITEM: NUMBER OF ATOMS
7
ITEM: BOX BOUNDS ss ss ss
-3.0414 3.1520
-2.7929 3.2455
-2.2193 1.8880
ITEM: ATOMS id type xs ys zs
1 1 .482096 .990964 .495031
2 1 .993771 .641827 .508244
3 1 .837006 .039124 .532498
4 1 .226967 .005217 .510996
5 1 .004379 .598390 .469913
6 1 .495195 .461944 .991971
7 1 .514383 .454900 .003961
ITEM: TIMESTEP
150
ITEM: NUMBER OF ATOMS
7
ITEM: BOX BOUNDS ss ss ss
-3.0402 3.1581
-2.7922 3.2455
-2.2242 1.8859
ITEM: ATOMS id type xs ys zs
1 1 .485901 .992776 .496956
2 1 .991354 .642603 .507735
3 1 .836714 .039130 .526088
4 1 .228193 .005419 .504819
5 1 .004203 .597982 .471480
6 1 .496675 .460448 .991944
7 1 .512094 .456293 .009076
ITEM: TIMESTEP
200
ITEM: NUMBER OF ATOMS
7
ITEM: BOX BOUNDS ss ss ss
-3.0469 3.1526
-2.7948 3.2508
-2.2197 1.8892
ITEM: ATOMS id type xs ys zs
1 1 .483741 .993935 .504184
2 1 .990920 .642239 .513138
3 1 .837228 .037045 .537821
4 1 .228927 .010230 .496112
5 1 .007913 .601010 .471491
6 1 .497444 .460524 .984295
7 1 .515900 .459883 .012212
ITEM: TIMESTEP
250
ITEM: NUMBER OF ATOMS
7
ITEM: BOX BOUNDS ss ss ss
-3.0535 3.1604
-2.7934 3.2485
-2.2203 1.8917
ITEM: ATOMS id type xs ys zs
1 1 .482362 .992146 .501458
2 1 .990686 .642654 .509568
3 1 .834344 .035632 .534183
4 1 .229798 .009400 .494674
5 1 .009194 .599960 .467180
6 1 .494782 .461428 .983252
7 1 .514288 .458981 .009494
ITEM: TIMESTEP
300
ITEM: NUMBER OF ATOMS
7
ITEM: BOX BOUNDS ss ss ss
-3.0573 3.1605
-2.7972 3.2529
-2.2152 1.8866
ITEM: ATOMS id type xs ys zs
1 1 .485885 .995394 .501521
2 1 .990637 .643870 .511509
3 1 .836277 .038592 .539308
4 1 .227168 .010566 .498382
5 1 .005327 .597476 .471511
6 1 .496830 .465234 .982927
7 1 .513102 .458481 .016348
ITEM: TIMESTEP
350
ITEM: NUMBER OF ATOMS
7
ITEM: BOX BOUNDS ss ss ss
-3.0599 3.1687
-2.8013 3.2576
-2.2061 1.8863
ITEM: ATOMS id type xs ys zs
1 1 .483050 .994805 .500076
2 1 .989342 .644197 .511612
3 1 .834703 .039405 .539414
4 1 .225727 .010606 .496865
5 1 .004916 .598078 .469114
6 1 .498173 .463304 .982544
7 1 .513286 .459507 .011144
ITEM: TIMESTEP
400
ITEM: NUMBER OF ATOMS
7
ITEM: BOX BOUNDS ss ss ss
-3.0657 3.1730
-2.8002 3.2554
-2.2031 1.8787
ITEM: ATOMS id type xs ys zs
1 1 .483684 .990295 .503761
2 1 .991097 .647073 .508991
3 1 .832659 .043109 .531278
4 1 .228875 .003282 .510406
5 1 .007517 .594460 .474151
6 1 .495290 .461614 .989588
7 1 .511110 .452340 .014171
ITEM: TIMESTEP
1
ITEM: NUMBER OF ATOMS
7
ITEM: BOX BOUNDS ss ss ss
-3.0406 3.1592
-2.7868 3.2455
-2.1869 1.8567
ITEM: ATOMS id type xs ys zs
1 1 .483737 .991052 .496522
2 1 .992050 .641331 .510143
3 1 .837012 .038132 .530657
4 1 .226518 .005078 .506877
5 1 .005677 .597948 .470866
6 1 .495987 .458269 .998581
7 1 .514926 .458776 .000879
ITEM: TIMESTEP
50
ITEM: NUMBER OF ATOMS
7
ITEM: BOX BOUNDS ss ss ss
-3.0406 3.1592
-2.7868 3.2455
-2.2165 1.8782
ITEM: ATOMS id type xs ys zs
1 1 .486976 .989384 .497085
2 1 .990919 .640694 .510698
3 1 .836895 .037596 .532116
4 1 .228110 .005248 .507178
5 1 .005721 .598154 .471998
6 1 .497119 .457947 .992552
7 1 .515455 .460779 .007835
ITEM: TIMESTEP
100
ITEM: NUMBER OF ATOMS
7
ITEM: BOX BOUNDS ss ss ss
-3.0406 3.1592
-2.7886 3.2455
-2.2181 1.8881
ITEM: ATOMS id type xs ys zs
1 1 .483459 .992960 .497985
2 1 .993262 .643409 .510227
3 1 .835338 .038878 .531974
4 1 .228665 .002955 .505075
5 1 .003179 .595757 .469965
6 1 .497702 .462109 .988801
7 1 .514832 .458763 .005023
ITEM: TIMESTEP
150
ITEM: NUMBER OF ATOMS
7
ITEM: BOX BOUNDS ss ss ss
-3.0406 3.1592
-2.7868 3.2455
-2.2208 1.8917
ITEM: ATOMS id type xs ys zs
1 1 .484694 .988455 .498539
2 1 .991521 .640601 .511067
3 1 .834408 .036397 .532700
4 1 .227021 .006679 .504121
5 1 .007087 .598868 .471630
6 1 .495284 .458720 .992852
7 1 .512284 .457011 .010214
ITEM: TIMESTEP
200
ITEM: NUMBER OF ATOMS
7
ITEM: BOX BOUNDS ss ss ss
-3.0453 3.1592
-2.7868 3.2455
-2.2199 1.8915
ITEM: ATOMS id type xs ys zs
1 1 .485647 .996034 .500352
2 1 .991413 .639422 .512814
3 1 .835140 .036160 .530506
4 1 .227359 .008233 .501463
5 1 .005707 .599300 .469841
6 1 .494686 .461069 .988544
7 1 .513124 .457762 .013394
ITEM: TIMESTEP
250
ITEM: NUMBER OF ATOMS
7
ITEM: BOX BOUNDS ss ss ss
-3.0482 3.1592
-2.7932 3.2494
-2.2075 1.8871
ITEM: ATOMS id type xs ys zs
1 1 .485790 .991635 .504464
2 1 .992474 .639407 .510352
3 1 .833434 .037604 .529279
4 1 .228036 .010842 .499935
5 1 .007435 .599411 .470237
6 1 .498494 .461373 .992707
7 1 .511902 .456154 .010097
ITEM: TIMESTEP
300
ITEM: NUMBER OF ATOMS
7
ITEM: BOX BOUNDS ss ss ss
-3.0503 3.1592
-2.7868 3.2510
-2.2047 1.8883
ITEM: ATOMS id type xs ys zs
1 1 .483657 .991207 .499136
2 1 .992550 .645924 .510642
3 1 .833993 .043906 .528177
4 1 .223781 .006435 .503934
5 1 .009356 .600420 .469757
6 1 .495108 .461173 .991890
7 1 .515330 .454409 .013376
ITEM: TIMESTEP
350
ITEM: NUMBER OF ATOMS
7
ITEM: BOX BOUNDS ss ss ss
-3.0559 3.1592
-2.7913 3.2600
-2.1969 1.8958
ITEM: ATOMS id type xs ys zs
1 1 .487687 .990691 .496376
2 1 .993424 .644018 .507129
3 1 .833046 .040477 .530402
4 1 .228760 .010695 .497887
5 1 .008112 .600217 .474507
6 1 .497827 .458296 .987467
7 1 .513181 .451180 .012206
ITEM: TIMESTEP
400
ITEM: NUMBER OF ATOMS
7
ITEM: BOX BOUNDS ss ss ss
-3.0610 3.1700
-2.7898 3.2617
-2.2034 1.8930
ITEM: ATOMS id type xs ys zs
1 1 .486033 .992965 .493085
2 1 .993703 .642240 .508642
3 1 .835824 .038400 .531898
4 1 .223175 .012396 .496822
5 1 .009511 .599338 .468033
6 1 .498987 .462915 .992667
7 1 .514911 .456472 .014294
ITEM: TIMESTEP
1
ITEM: NUMBER OF ATOMS
7
ITEM: BOX BOUNDS ss ss ss
-3.0438 3.1543
-2.7826 3.2455
-2.1868 1.8579
ITEM: ATOMS id type xs ys zs
1 1 .484532 .990984 .496307
2 1 .992757 .641060 .509991
3 1 .837653 .037638 .530122
4 1 .227174 .004342 .506487
5 1 .006276 .597710 .470329
6 1 .496784 .458128 .997843
7 1 .515736 .458447 .000855
ITEM: TIMESTEP
50
ITEM: NUMBER OF ATOMS
7
ITEM: BOX BOUNDS ss ss ss
-3.0438 3.1543
-2.7843 3.2455
-2.2224 1.8811
ITEM: ATOMS id type xs ys zs
1 1 .483088 .991367 .496797
2 1 .994196 .640299 .512292
3 1 .836137 .036044 .533072
4 1 .228100 .003303 .509075
5 1 .006002 .599387 .473675
6 1 .494177 .454093 .994602
7 1 .516517 .457392 .008276
ITEM: TIMESTEP
100
ITEM: NUMBER OF ATOMS
7
ITEM: BOX BOUNDS ss ss ss
-3.0438 3.1543
-2.7864 3.2455
-2.2215 1.8879
ITEM: ATOMS id type xs ys zs
1 1 .485594 .990107 .497178
2 1 .999036 .644098 .510641
3 1 .835958 .037646 .529441
4 1 .227546 .005690 .505190
5 1 .004816 .597994 .471934
6 1 .497313 .455732 .988553
7 1 .513619 .456767 .008938
ITEM: TIMESTEP
150
ITEM: NUMBER OF ATOMS
7
ITEM: BOX BOUNDS ss ss ss
-3.0475 3.1543
-2.7904 3.2455
-2.2240 1.9031
ITEM: ATOMS id type xs ys zs
1 1 .486537 .989009 .504964
2 1 .994028 .643770 .507256
3 1 .837063 .038038 .528835
4 1 .225908 .008473 .497377
5 1 .009925 .598061 .468340
6 1 .497151 .458393 .983188
7 1 .514726 .456701 .010219
ITEM: TIMESTEP
200
ITEM: NUMBER OF ATOMS
7
ITEM: BOX BOUNDS ss ss ss
-3.0529 3.1543
-2.7997 3.2457
-2.2186 1.8962
ITEM: ATOMS id type xs ys zs
1 1 .486482 .987578 .505558
2 1 .992686 .644202 .506894
3 1 .837355 .040317 .528433
4 1 .227777 .010355 .495736
5 1 .011435 .598534 .469494
6 1 .497886 .459250 .983915
7 1 .515444 .457918 .008357
ITEM: TIMESTEP
250
ITEM: NUMBER OF ATOMS
7
ITEM: BOX BOUNDS ss ss ss
-3.0491 3.1560
-2.8033 3.2455
-2.2210 1.8868
ITEM: ATOMS id type xs ys zs
1 1 .481148 .990932 .498722
2 1 .993072 .646722 .510087
3 1 .833525 .039363 .522795
4 1 .229760 .006123 .505883
5 1 .004404 .593434 .467169
6 1 .494440 .462841 .988775
7 1 .516112 .459483 .011237
ITEM: TIMESTEP
300
ITEM: NUMBER OF ATOMS
7
ITEM: BOX BOUNDS ss ss ss
-3.0516 3.1592
-2.8054 3.2489
-2.2177 1.8959
ITEM: ATOMS id type xs ys zs
1 1 .487301 .991944 .489562
2 1 .999638 .644129 .511814
3 1 .832157 .045415 .530895
4 1 .228916 .009365 .502051
5 1 .006686 .600739 .473295
6 1 .494316 .467329 .980098
7 1 .514485 .453154 .007957
ITEM: TIMESTEP
350
ITEM: NUMBER OF ATOMS
7
ITEM: BOX BOUNDS ss ss ss
-3.0582 3.1628
-2.8101 3.2493
-2.2160 1.8865
ITEM: ATOMS id type xs ys zs
1 1 .485084 .989687 .497348
2 1 .992545 .643387 .511743
3 1 .831247 .039761 .529861
4 1 .231379 .011897 .502604
5 1 .006475 .597489 .473266
6 1 .501998 .467160 .987280
7 1 .516683 .455431 .015382
ITEM: TIMESTEP
400
ITEM: NUMBER OF ATOMS
7
ITEM: BOX BOUNDS ss ss ss
-3.0560 3.1720
-2.8150 3.2564
-2.2051 1.8969
ITEM: ATOMS id type xs ys zs
1 1 .481623 .988655 .493108
2 1 .992830 .643454 .504033
3 1 .832930 .040124 .524488
4 1 .225046 .013174 .500439
5 1 .007440 .596434 .475143
6 1 .500188 .466597 .988410
7 1 .517210 .452845 .013326
ITEM: TIMESTEP
1
ITEM: NUMBER OF ATOMS
7
ITEM: BOX BOUNDS ss ss ss
-3.0438 3.1543
-2.7944 3.2455
-2.1868 1.8579
ITEM: ATOMS id type xs ys zs
1 1 .484611 .991128 .496278
2 1 .992999 .642011 .509979
3 1 .837520 .039369 .530638
4 1 .227554 .006263 .506464
5 1 .006313 .598590 .470547
6 1 .496733 .458873 .998032
7 1 .515615 .459499 .000979
ITEM: TIMESTEP
50
ITEM: NUMBER OF ATOMS
7
ITEM: BOX BOUNDS ss ss ss
-3.0438 3.1543
-2.7944 3.2455
-2.2165 1.8804
ITEM: ATOMS id type xs ys zs
1 1 .486021 .991520 .499446
2 1 .991729 .642659 .510710
3 1 .837315 .039930 .529136
4 1 .228393 .005312 .507035
5 1 .007188 .598998 .472191
6 1 .494554 .456953 .993802
7 1 .514269 .459525 .006458
ITEM: TIMESTEP
100
ITEM: NUMBER OF ATOMS
7
ITEM: BOX BOUNDS ss ss ss
-3.0438 3.1543
-2.7973 3.2455
-2.2264 1.8964
ITEM: ATOMS id type xs ys zs
1 1 .486645 .992505 .499988
2 1 .991326 .642670 .508831
3 1 .838727 .039930 .527554
4 1 .228744 .007510 .510852
5 1 .007401 .598630 .472883
6 1 .494506 .456342 .988790
7 1 .515802 .462666 .007957
ITEM: TIMESTEP
150
ITEM: NUMBER OF ATOMS
7
ITEM: BOX BOUNDS ss ss ss
-3.0463 3.1543
-2.7949 3.2455
-2.2272 1.8996
ITEM: ATOMS id type xs ys zs
1 1 .482946 .993245 .498537
2 1 .992964 .640588 .507420
3 1 .835691 .041584 .530594
4 1 .227409 .007050 .502682
5 1 .006153 .598785 .476674
6 1 .496924 .461915 .994867
7 1 .515866 .457899 .015236
ITEM: TIMESTEP
200
ITEM: NUMBER OF ATOMS
7
ITEM: BOX BOUNDS ss ss ss
-3.0438 3.1543
-2.7980 3.2455
-2.2260 1.9006
ITEM: ATOMS id type xs ys zs
1 1 .482515 .992380 .498148
2 1 .992195 .641030 .505339
3 1 .836131 .041015 .531019
4 1 .232138 .008044 .501285
5 1 .008277 .596108 .472270
6 1 .495238 .465018 .990941
7 1 .515147 .455921 .018279
ITEM: TIMESTEP
250
ITEM: NUMBER OF ATOMS
7
ITEM: BOX BOUNDS ss ss ss
-3.0470 3.1543
-2.7975 3.2460
-2.2237 1.8990
ITEM: ATOMS id type xs ys zs
1 1 .485327 .990865 .500717
2 1 .991223 .643569 .501862
3 1 .836024 .041655 .537466
4 1 .232738 .012301 .502748
5 1 .006557 .596275 .470602
6 1 .496745 .465807 .988578
7 1 .517224 .455857 .018651
ITEM: TIMESTEP
300
ITEM: NUMBER OF ATOMS
7
ITEM: BOX BOUNDS ss ss ss
-3.0522 3.1629
-2.7984 3.2458
-2.2263 1.9061
ITEM: ATOMS id type xs ys zs
1 1 .486024 .989581 .496988
2 1 .992135 .645170 .508443
3 1 .832652 .038542 .529169
4 1 .231365 .009423 .499012
5 1 .009967 .594529 .470776
6 1 .496304 .461131 .992431
7 1 .518973 .453712 .018345
ITEM: TIMESTEP
350
ITEM: NUMBER OF ATOMS
7
ITEM: BOX BOUNDS ss ss ss
-3.0445 3.1706
-2.8032 3.2455
-2.2094 1.9018
ITEM: ATOMS id type xs ys zs
1 1 .482692 .997017 .498985
2 1 .990106 .643661 .508466
3 1 .834825 .043505 .530975
4 1 .228605 .012395 .498273
5 1 .005845 .598611 .478502
6 1 .494936 .468684 .989136
7 1 .511253 .453642 .012967
ITEM: TIMESTEP
400
ITEM: NUMBER OF ATOMS
7
ITEM: BOX BOUNDS ss ss ss
-3.0576 3.1565
-2.7952 3.2455
-2.2082 1.8901
ITEM: ATOMS id type xs ys zs
1 1 .484102 .991712 .498092
2 1 .991259 .642007 .505087
3 1 .837401 .040883 .528556
4 1 .230712 .010572 .494850
5 1 .009935 .597373 .475243
6 1 .498084 .461198 .994007
7 1 .516923 .453179 .010388
ITEM: TIMESTEP
1
ITEM: NUMBER OF ATOMS
7
ITEM: BOX BOUNDS ss ss ss
-3.0438 3.1543
-2.7833 3.2455
-2.1866 1.8612
ITEM: ATOMS id type xs ys zs
1 1 .484414 .991123 .495962
2 1 .992873 .641384 .509546
3 1 .837427 .037877 .529927
4 1 .227360 .004617 .505987
5 1 .006335 .597350 .470253
6 1 .496956 .457817 .997756
7 1 .515695 .458126 .000924
ITEM: TIMESTEP
50
ITEM: NUMBER OF ATOMS
7
ITEM: BOX BOUNDS ss ss ss
-3.0438 3.1543
-2.7833 3.2455
-2.2204 1.8807
ITEM: ATOMS id type xs ys zs
1 1 .484527 .989182 .497508
2 1 .993490 .642080 .511522
3 1 .837402 .038252 .529687
4 1 .227545 .002671 .508607
5 1 .006959 .599647 .472531
6 1 .497124 .457248 .994750
7 1 .515781 .459396 .006534
ITEM: TIMESTEP
100
ITEM: NUMBER OF ATOMS
7
ITEM: BOX BOUNDS ss ss ss
-3.0438 3.1543
-2.7880 3.2455
-2.2250 1.8969
ITEM: ATOMS id type xs ys zs
1 1 .484325 .990086 .495902
2 1 .990797 .640747 .506523
3 1 .835442 .037297 .527998
4 1 .228267 .008003 .506720
5 1 .009557 .597099 .469871
6 1 .494945 .459669 .993853
7 1 .515683 .459190 .008887
ITEM: TIMESTEP
150
ITEM: NUMBER OF ATOMS
7
ITEM: BOX BOUNDS ss ss ss
-3.0438 3.1543
-2.7917 3.2455
-2.2282 1.8940
ITEM: ATOMS id type xs ys zs
1 1 .485530 .988458 .499415
2 1 .990705 .641961 .511901
3 1 .836176 .044407 .526957
4 1 .226747 .007355 .511263
5 1 .008925 .594519 .470368
6 1 .497142 .460027 .992366
7 1 .513622 .459010 .006466
ITEM: TIMESTEP
200
ITEM: NUMBER OF ATOMS
7
ITEM: BOX BOUNDS ss ss ss
-3.0438 3.1543
-2.7988 3.2455
-2.2309 1.9005
ITEM: ATOMS id type xs ys zs
1 1 .483990 .993136 .499538
2 1 .993370 .642945 .511933
3 1 .835499 .042132 .530183
4 1 .228222 .005759 .501983
5 1 .007549 .598216 .470649
6 1 .497105 .460889 .983721
7 1 .512669 .459395 .007881
ITEM: TIMESTEP
250
ITEM: NUMBER OF ATOMS
7
ITEM: BOX BOUNDS ss ss ss
-3.0512 3.1588
-2.7995 3.2455
-2.2287 1.9018
ITEM: ATOMS id type xs ys zs
1 1 .486959 .994931 .502321
2 1 .990808 .643278 .506231
3 1 .836852 .044219 .532296
4 1 .230757 .005594 .505622
5 1 .005348 .596806 .466194
6 1 .494813 .463974 .981391
7 1 .513396 .458300 .013208
ITEM: TIMESTEP
300
ITEM: NUMBER OF ATOMS
7
ITEM: BOX BOUNDS ss ss ss
-3.0506 3.1645
-2.7942 3.2455
-2.2250 1.9059
ITEM: ATOMS id type xs ys zs
1 1 .488764 .989266 .496987
2 1 .993084 .644211 .507151
3 1 .841785 .040578 .529387
4 1 .227895 .006486 .497057
5 1 .004885 .597709 .470075
6 1 .495985 .457563 .979955
7 1 .509917 .452931 .013444
ITEM: TIMESTEP
350
ITEM: NUMBER OF ATOMS
7
ITEM: BOX BOUNDS ss ss ss
-3.0514 3.1624
-2.7995 3.2472
-2.2270 1.8955
ITEM: ATOMS id type xs ys zs
1 1 .486944 .991820 .499768
2 1 .991520 .643442 .506067
3 1 .837301 .040040 .527106
4 1 .228061 .010364 .497402
5 1 .007134 .598312 .466996
6 1 .497607 .462565 .987754
7 1 .516714 .455128 .013060
ITEM: TIMESTEP
400
ITEM: NUMBER OF ATOMS
7
ITEM: BOX BOUNDS ss ss ss
-3.0509 3.1761
-2.7984 3.2455
-2.2162 1.8900
ITEM: ATOMS id type xs ys zs
1 1 .486762 .990993 .498717
2 1 .990200 .642204 .505006
3 1 .834005 .040172 .527782
4 1 .228640 .009667 .498958
5 1 .005499 .598070 .464865
6 1 .497350 .462996 .990492
7 1 .514757 .456864 .012948
ITEM: TIMESTEP
1
ITEM: NUMBER OF ATOMS
7
ITEM: BOX BOUNDS ss ss ss
-3.0438 3.1547
-2.7833 3.2455
-2.1895 1.8716
ITEM: ATOMS id type xs ys zs
1 1 .484767 .991339 .495498
2 1 .992896 .641320 .508816
3 1 .837641 .037661 .528982
4 1 .227330 .004563 .505247
5 1 .006163 .597481 .469971
6 1 .496738 .457731 .994527
7 1 .515763 .458389 .001266
ITEM: TIMESTEP
50
ITEM: NUMBER OF ATOMS
7
ITEM: BOX BOUNDS ss ss ss
-3.0438 3.1547
-2.7845 3.2455
-2.2149 1.8822
ITEM: ATOMS id type xs ys zs
1 1 .484776 .990613 .500857
2 1 .993819 .640005 .511444
3 1 .835379 .038645 .532750
4 1 .227453 .004428 .506805
5 1 .006299 .597312 .472945
6 1 .496576 .459402 .991253
7 1 .516214 .458036 .008087
ITEM: TIMESTEP
100
ITEM: NUMBER OF ATOMS
7
ITEM: BOX BOUNDS ss ss ss
-3.0438 3.1547
-2.7887 3.2455
-2.2301 1.8906
ITEM: ATOMS id type xs ys zs
1 1 .486401 .989562 .505423
2 1 .991887 .640003 .510623
3 1 .835184 .037404 .533566
4 1 .230098 .005079 .507906
5 1 .007757 .599159 .472974
6 1 .494039 .459397 .989458
7 1 .515992 .460351 .009996
ITEM: TIMESTEP
150
ITEM: NUMBER OF ATOMS
7
ITEM: BOX BOUNDS ss ss ss
-3.0438 3.1547
-2.7888 3.2455
-2.2225 1.9020
ITEM: ATOMS id type xs ys zs
1 1 .485338 .992117 .496623
2 1 .993797 .640134 .508246
3 1 .837661 .039677 .526305
4 1 .227994 .006404 .503736
5 1 .006306 .595384 .469498
6 1 .493632 .458073 .989828
7 1 .514503 .458622 .015268
ITEM: TIMESTEP
200
ITEM: NUMBER OF ATOMS
7
ITEM: BOX BOUNDS ss ss ss
-3.0438 3.1547
-2.7882 3.2455
-2.2288 1.8993
ITEM: ATOMS id type xs ys zs
1 1 .485750 .991851 .495644
2 1 .991376 .643911 .518811
3 1 .841114 .038065 .526862
4 1 .228153 .004285 .501380
5 1 .007282 .596153 .473693
6 1 .499764 .456932 .986504
7 1 .517562 .454018 .014154
ITEM: TIMESTEP
250
ITEM: NUMBER OF ATOMS
7
ITEM: BOX BOUNDS ss ss ss
-3.0438 3.1547
-2.7884 3.2455
-2.2199 1.9061
ITEM: ATOMS id type xs ys zs
1 1 .485336 .989362 .494599
2 1 .992147 .644868 .511925
3 1 .836849 .040090 .528576
4 1 .226473 .006454 .501775
5 1 .010506 .593105 .471995
6 1 .497290 .458004 .983814
7 1 .515636 .454495 .006024
ITEM: TIMESTEP
300
ITEM: NUMBER OF ATOMS
7
ITEM: BOX BOUNDS ss ss ss
-3.0438 3.1547
-2.7912 3.2476
-2.2216 1.9077
ITEM: ATOMS id type xs ys zs
1 1 .489367 .988968 .493624
2 1 .994092 .642527 .512604
3 1 .837708 .041606 .528140
4 1 .228678 .005644 .497246
5 1 .006974 .600970 .469159
6 1 .494947 .456903 .980209
7 1 .510716 .449039 .016105
ITEM: TIMESTEP
350
ITEM: NUMBER OF ATOMS
7
ITEM: BOX BOUNDS ss ss ss
-3.0438 3.1547
-2.7912 3.2605
-2.2176 1.9095
ITEM: ATOMS id type xs ys zs
1 1 .485675 .990293 .492746
2 1 .988363 .643414 .509473
3 1 .837277 .040801 .530819
4 1 .226887 .006853 .496525
5 1 .009638 .592427 .468114
6 1 .499190 .458739 .986873
7 1 .515289 .451433 .008826
ITEM: TIMESTEP
400
ITEM: NUMBER OF ATOMS
7
ITEM: BOX BOUNDS ss ss ss
-3.0478 3.1543
-2.7940 3.2475
-2.2156 1.9036
ITEM: ATOMS id type xs ys zs
1 1 .482461 .990296 .488138
2 1 .992577 .642675 .510831
3 1 .839279 .040437 .524963
4 1 .231031 .003202 .497841
5 1 .011216 .595860 .471937
6 1 .498784 .456573 .991782
7 1 .515236 .451607 .014990
ITEM: TIMESTEP
1
ITEM: NUMBER OF ATOMS
7
ITEM: BOX BOUNDS ss ss ss
-3.0367 3.1478
-2.7783 3.2116
-2.1868 1.8546
ITEM: ATOMS id type xs ys zs
1 1 .484260 .996632 .497054
2 1 .994106 .644653 .510622
3 1 .838395 .037042 .531281
4 1 .226672 .004093 .506717
5 1 .005189 .600858 .471224
6 1 .496844 .460131 .999141
7 1 .515830 .460630 .000528
ITEM: TIMESTEP
50
ITEM: NUMBER OF ATOMS
7
ITEM: BOX BOUNDS ss ss ss
-3.0367 3.1478
-2.7846 3.2177
-2.2160 1.8846
ITEM: ATOMS id type xs ys zs
1 1 .485076 .993682 .493842
2 1 .992815 .642355 .507133
3 1 .839051 .037095 .536615
4 1 .226455 .003414 .507851
5 1 .007081 .600121 .471150
6 1 .496024 .461960 .991270
7 1 .518355 .462401 .009614
ITEM: TIMESTEP
100
ITEM: NUMBER OF ATOMS
7
ITEM: BOX BOUNDS ss ss ss
-3.0386 3.1478
-2.7896 3.2303
-2.2300 1.8951
ITEM: ATOMS id type xs ys zs
1 1 .484932 .993060 .500863
2 1 .991898 .643876 .511429
3 1 .835557 .039665 .528488
4 1 .228344 .007228 .507878
5 1 .008407 .600567 .474846
6 1 .494543 .457502 .992281
7 1 .516167 .458141 .007189
ITEM: TIMESTEP
150
ITEM: NUMBER OF ATOMS
7
ITEM: BOX BOUNDS ss ss ss
-3.0460 3.1530
-2.7917 3.2321
-2.2279 1.9028
ITEM: ATOMS id type xs ys zs
1 1 .485088 .991605 .496422
2 1 .994674 .643635 .510591
3 1 .835230 .037366 .527750
4 1 .229136 .009410 .503180
5 1 .005890 .602021 .470861
6 1 .497192 .459568 .987230
7 1 .517362 .458133 .009433
ITEM: TIMESTEP
200
ITEM: NUMBER OF ATOMS
7
ITEM: BOX BOUNDS ss ss ss
-3.0584 3.1478
-2.7954 3.2375
-2.2345 1.9092
ITEM: ATOMS id type xs ys zs
1 1 .487388 .989863 .497070
2 1 .993521 .640242 .508198
3 1 .836402 .033187 .529451
4 1 .230919 .009649 .499337
5 1 .004736 .597662 .470096
6 1 .498906 .456903 .988233
7 1 .518262 .459036 .016614
ITEM: TIMESTEP
250
ITEM: NUMBER OF ATOMS
7
ITEM: BOX BOUNDS ss ss ss
-3.0726 3.1536
-2.7822 3.2304
-2.2318 1.9123
ITEM: ATOMS id type xs ys zs
1 1 .485565 .991105 .499599
2 1 .993051 .640460 .504450
3 1 .839160 .036896 .527462
4 1 .232863 .009507 .500187
5 1 .006660 .598122 .463923
6 1 .497268 .462106 .979705
7 1 .515699 .452050 .014332
ITEM: TIMESTEP
300
ITEM: NUMBER OF ATOMS
7
ITEM: BOX BOUNDS ss ss ss
-3.0736 3.1538
-2.7783 3.2361
-2.2219 1.9026
ITEM: ATOMS id type xs ys zs
1 1 .483773 .988514 .497495
2 1 .995631 .636239 .501255
3 1 .838741 .036405 .528783
4 1 .233480 .009162 .499684
5 1 .006423 .599848 .462868
6 1 .496381 .462961 .982248
7 1 .513976 .454724 .010009
ITEM: TIMESTEP
350
ITEM: NUMBER OF ATOMS
7
ITEM: BOX BOUNDS ss ss ss
-3.0716 3.1562
-2.7783 3.2462
-2.2234 1.9034
ITEM: ATOMS id type xs ys zs
1 1 .485205 .990495 .499327
2 1 .989840 .637445 .507807
3 1 .838950 .031408 .530913
4 1 .229841 .012203 .495561
5 1 .010681 .600524 .472305
6 1 .498263 .460015 .987230
7 1 .516820 .451867 .011897
ITEM: TIMESTEP
400
ITEM: NUMBER OF ATOMS
7
ITEM: BOX BOUNDS ss ss ss
-3.0626 3.1594
-2.7804 3.2502
-2.2245 1.8933
ITEM: ATOMS id type xs ys zs
1 1 .486100 .987207 .490472
2 1 .989754 .642201 .510221
3 1 .841345 .037002 .522900
4 1 .232087 .005639 .502741
5 1 .008601 .595882 .478861
6 1 .502027 .461449 .988731
7 1 .513230 .448400 .016926
ITEM: TIMESTEP
1
ITEM: NUMBER OF ATOMS
7
ITEM: BOX BOUNDS ss ss ss
-3.0421 3.1436
-2.7601 3.2470
-2.1865 1.8678
ITEM: ATOMS id type xs ys zs
1 1 .485231 .990795 .495397
2 1 .994567 .639640 .508711
3 1 .838995 .034043 .529523
4 1 .227113 .000755 .505319
5 1 .006002 .596073 .468849
6 1 .497472 .455858 .995772
7 1 .516126 .456337 .001008
ITEM: TIMESTEP
50
ITEM: NUMBER OF ATOMS
7
ITEM: BOX BOUNDS ss ss ss
-3.0421 3.1436
-2.7858 3.2470
-2.2156 1.8846
ITEM: ATOMS id type xs ys zs
1 1 .484388 .988784 .497325
2 1 .996419 .639472 .509153
3 1 .839299 .038310 .531427
4 1 .223867 .005687 .507698
5 1 .006307 .600560 .470158
6 1 .496476 .456736 .993200
7 1 .512987 .460137 .006837
ITEM: TIMESTEP
100
ITEM: NUMBER OF ATOMS
7
ITEM: BOX BOUNDS ss ss ss
-3.0421 3.1436
-2.7917 3.2470
-2.2315 1.8924
ITEM: ATOMS id type xs ys zs
1 1 .488051 .992937 .498786
2 1 .993664 .641019 .506244
3 1 .841956 .038817 .531899
4 1 .231365 .006553 .506446
5 1 .007094 .595595 .473238
6 1 .495388 .458613 .994715
7 1 .514552 .460056 .009299
ITEM: TIMESTEP
150
ITEM: NUMBER OF ATOMS
7
ITEM: BOX BOUNDS ss ss ss
-3.0537 3.1549
-2.8029 3.2470
-2.2373 1.8988
ITEM: ATOMS id type xs ys zs
1 1 .483437 .989819 .505663
2 1 .993460 .640608 .511237
3 1 .837351 .041420 .534257
4 1 .230386 .009505 .507287
5 1 .007324 .596323 .468880
6 1 .496811 .457498 .988242
7 1 .515723 .458896 .013475
ITEM: TIMESTEP
200
ITEM: NUMBER OF ATOMS
7
ITEM: BOX BOUNDS ss ss ss
-3.0575 3.1479
-2.7965 3.2470
-2.2404 1.9157
ITEM: ATOMS id type xs ys zs
1 1 .483426 .989220 .504063
2 1 .994686 .639542 .511022
3 1 .839618 .042290 .533217
4 1 .233374 .008664 .507495
5 1 .006492 .595761 .463313
6 1 .496662 .455943 .983969
7 1 .517911 .459621 .014072
ITEM: TIMESTEP
250
ITEM: NUMBER OF ATOMS
7
ITEM: BOX BOUNDS ss ss ss
-3.0622 3.1583
-2.8068 3.2470
-2.2420 1.9023
ITEM: ATOMS id type xs ys zs
1 1 .485830 .988806 .505451
2 1 .993855 .639363 .510307
3 1 .840572 .042585 .536797
4 1 .228574 .009164 .510488
5 1 .008789 .598206 .469256
6 1 .498646 .458917 .991488
7 1 .516404 .457912 .015560
ITEM: TIMESTEP
300
ITEM: NUMBER OF ATOMS
7
ITEM: BOX BOUNDS ss ss ss
-3.0521 3.1584
-2.7910 3.2470
-2.2398 1.9144
ITEM: ATOMS id type xs ys zs
1 1 .482312 .987424 .496037
2 1 .991374 .639100 .514833
3 1 .834752 .036922 .527693
4 1 .228680 .009656 .505021
5 1 .004468 .592574 .470025
6 1 .498088 .460126 .985311
7 1 .512603 .457248 .008697
ITEM: TIMESTEP
350
ITEM: NUMBER OF ATOMS
7
ITEM: BOX BOUNDS ss ss ss
-3.0547 3.1535
-2.7922 3.2470
-2.2398 1.9253
ITEM: ATOMS id type xs ys zs
1 1 .487427 .991434 .505390
2 1 .993158 .640461 .507519
3 1 .833626 .037430 .528754
4 1 .232023 .011815 .500872
5 1 .005186 .593973 .470537
6 1 .499962 .461492 .986595
7 1 .513730 .454215 .012461
ITEM: TIMESTEP
400
ITEM: NUMBER OF ATOMS
7
ITEM: BOX BOUNDS ss ss ss
-3.0531 3.1604
-2.7986 3.2470
-2.2379 1.9240
ITEM: ATOMS id type xs ys zs
1 1 .483284 .985113 .499468
2 1 .992080 .637871 .511914
3 1 .835974 .040514 .524745
4 1 .228376 .005985 .501458
5 1 .008911 .591305 .464245
6 1 .499177 .463535 .983946
7 1 .513791 .454149 .015092
ITEM: TIMESTEP
1
ITEM: NUMBER OF ATOMS
7
ITEM: BOX BOUNDS ss ss ss
-3.0421 3.1436
-2.7616 3.2470
-2.1953 1.8907
ITEM: ATOMS id type xs ys zs
1 1 .485509 .990783 .493704
2 1 .994689 .639916 .507260
3 1 .838997 .033984 .527387
4 1 .227366 .000972 .503539
5 1 .005935 .595978 .467884
6 1 .497517 .455934 .990709
7 1 .516648 .456311 .002743
ITEM: TIMESTEP
50
ITEM: NUMBER OF ATOMS
7
ITEM: BOX BOUNDS ss ss ss
-3.0421 3.1436
-2.7830 3.2470
-2.2181 1.8907
ITEM: ATOMS id type xs ys zs
1 1 .485450 .988785 .494954
2 1 .994098 .640304 .508578
3 1 .838828 .039393 .533203
4 1 .226717 .004148 .505802
5 1 .005134 .598649 .470209
6 1 .498508 .457773 .991837
7 1 .516042 .459360 .008438
ITEM: TIMESTEP
100
ITEM: NUMBER OF ATOMS
7
ITEM: BOX BOUNDS ss ss ss
-3.0421 3.1436
-2.7872 3.2470
-2.2310 1.8955
ITEM: ATOMS id type xs ys zs
1 1 .484760 .989670 .498126
2 1 .995974 .641959 .506565
3 1 .841235 .037260 .529256
4 1 .227856 .007594 .505337
5 1 .009649 .599000 .473656
6 1 .495990 .454786 .992838
7 1 .519092 .457681 .010554
ITEM: TIMESTEP
150
ITEM: NUMBER OF ATOMS
7
ITEM: BOX BOUNDS ss ss ss
-3.0476 3.1568
-2.7888 3.2470
-2.2385 1.9084
ITEM: ATOMS id type xs ys zs
1 1 .486604 .991575 .498443
2 1 .990868 .641337 .508587
3 1 .837615 .039215 .532231
4 1 .226097 .007232 .507460
5 1 .008040 .595596 .472131
6 1 .497709 .461077 .986692
7 1 .515606 .459228 .012184
ITEM: TIMESTEP
200
ITEM: NUMBER OF ATOMS
7
ITEM: BOX BOUNDS ss ss ss
-3.0430 3.1526
-2.8026 3.2470
-2.2386 1.9076
ITEM: ATOMS id type xs ys zs
1 1 .487015 .990630 .500181
2 1 .995719 .643939 .509703
3 1 .836762 .040504 .529433
4 1 .228174 .007141 .505083
5 1 .003640 .598546 .468608
6 1 .494806 .462015 .987503
7 1 .515801 .459253 .013284
ITEM: TIMESTEP
250
ITEM: NUMBER OF ATOMS
7
ITEM: BOX BOUNDS ss ss ss
-3.0421 3.1557
-2.8061 3.2470
-2.2423 1.9145
ITEM: ATOMS id type xs ys zs
1 1 .484423 .990811 .500217
2 1 .994422 .643587 .510928
3 1 .837483 .045580 .531956
4 1 .229125 .012157 .500067
5 1 .010009 .598250 .473970
6 1 .499386 .460986 .988294
7 1 .517594 .456156 .011668
ITEM: TIMESTEP
300
ITEM: NUMBER OF ATOMS
7
ITEM: BOX BOUNDS ss ss ss
-3.0421 3.1597
-2.7963 3.2470
-2.2354 1.9183
ITEM: ATOMS id type xs ys zs
1 1 .485367 .992420 .497368
2 1 .992745 .642599 .509580
3 1 .837638 .044781 .530757
4 1 .231576 .008426 .497466
5 1 .011578 .598889 .475336
6 1 .500102 .459567 .986269
7 1 .516410 .454371 .007356
ITEM: TIMESTEP
350
ITEM: NUMBER OF ATOMS
7
ITEM: BOX BOUNDS ss ss ss
-3.0421 3.1669
-2.7887 3.2470
-2.2383 1.9263
ITEM: ATOMS id type xs ys zs
1 1 .485445 .986750 .497973