ITEM: TIMESTEP
1
ITEM: NUMBER OF ATOMS
7
ITEM: BOX BOUNDS ss ss ss
-3.0084 3.1152
-2.7604 3.1950
-2.1865 1.8549
ITEM: ATOMS id type xs ys zs
1 1 .484648 .999451 .496652
2 1 .999355 .645355 .510516
3 1 .842068 .034270 .530866
4 1 .224162 .000750 .506750
5 1 .000585 .601199 .470805
6 1 .496963 .459694 .998850
7 1 .516169 .459851 .001171
ITEM: TIMESTEP
50
ITEM: NUMBER OF ATOMS
7
ITEM: BOX BOUNDS ss ss ss
-3.0297 3.1385
-2.7800 3.2184
-2.2110 1.8802
ITEM: ATOMS id type xs ys zs
1 1 .483257 .997098 .498389
2 1 .995650 .645363 .507803
3 1 .839874 .036725 .532077
4 1 .225616 .003892 .506650
5 1 .004756 .600491 .470579
6 1 .498588 .459760 .989979
7 1 .516288 .457594 .011445
ITEM: TIMESTEP
100
ITEM: NUMBER OF ATOMS
7
ITEM: BOX BOUNDS ss ss ss
-3.0390 3.1456
-2.7862 3.2312
-2.2200 1.8860
ITEM: ATOMS id type xs ys zs
1 1 .484933 .994552 .499330
2 1 .994402 .643875 .509659
3 1 .838975 .038005 .530459
4 1 .226078 .005699 .506508
5 1 .005325 .598115 .472353
6 1 .498064 .459805 .987636
7 1 .515780 .455735 .013584
ITEM: TIMESTEP
150
ITEM: NUMBER OF ATOMS
7
ITEM: BOX BOUNDS ss ss ss
-3.0418 3.1433
-2.7886 3.2435
-2.2238 1.8855
ITEM: ATOMS id type xs ys zs
1 1 .482271 .994896 .499958
2 1 .994959 .645405 .512328
3 1 .837338 .035736 .531715
4 1 .226906 .005993 .508087
5 1 .006425 .596386 .468961
6 1 .499588 .459872 .985310
7 1 .517397 .452994 .016453
ITEM: TIMESTEP
200
ITEM: NUMBER OF ATOMS
7
ITEM: BOX BOUNDS ss ss ss
-3.0448 3.1532
-2.7854 3.2365
-2.2128 1.8872
ITEM: ATOMS id type xs ys zs
1 1 .481551 .995331 .498373
2 1 .992915 .647970 .508588
3 1 .835962 .034749 .530897
4 1 .226341 .005775 .505191
5 1 .005946 .596951 .469261
6 1 .499266 .460440 .983897
7 1 .516386 .451315 .015753
ITEM: TIMESTEP
250
ITEM: NUMBER OF ATOMS
7
ITEM: BOX BOUNDS ss ss ss
-3.0428 3.1581
-2.7959 3.2436
-2.2114 1.8848
ITEM: ATOMS id type xs ys zs
1 1 .480537 .996084 .497971
2 1 .994506 .648411 .508777
3 1 .835322 .036009 .529407
4 1 .222782 .007460 .506890
5 1 .006114 .595802 .470149
6 1 .500125 .461537 .983389
7 1 .516947 .451931 .016699
ITEM: TIMESTEP
300
ITEM: NUMBER OF ATOMS
7
ITEM: BOX BOUNDS ss ss ss
-3.0439 3.1577
-2.7926 3.2489
-2.2002 1.8801
ITEM: ATOMS id type xs ys zs
1 1 .483247 .993819 .494450
2 1 .993277 .647594 .507868
3 1 .836396 .038589 .529686
4 1 .222715 .007986 .502638
5 1 .006599 .596847 .471547
6 1 .499193 .462726 .983631
7 1 .515485 .449274 .013605
ITEM: TIMESTEP
350
ITEM: NUMBER OF ATOMS
7
ITEM: BOX BOUNDS ss ss ss
-3.0501 3.1585
-2.8080 3.2483
-2.2025 1.8733
ITEM: ATOMS id type xs ys zs
1 1 .482135 .994745 .494607
2 1 .992258 .646831 .509428
3 1 .836447 .038486 .530094
4 1 .223949 .009495 .502605
5 1 .006010 .596848 .470214
6 1 .499244 .463313 .982496
7 1 .515915 .450226 .017311
ITEM: TIMESTEP
400
ITEM: NUMBER OF ATOMS
7
ITEM: BOX BOUNDS ss ss ss
-3.0489 3.1681
-2.8061 3.2563
-2.1957 1.8699
ITEM: ATOMS id type xs ys zs
1 1 .481990 .992451 .496447
2 1 .993286 .644795 .511979
3 1 .832696 .038316 .527678
4 1 .222156 .008939 .500319
5 1 .006074 .597584 .469081
6 1 .499105 .461907 .984884
7 1 .516782 .449309 .015742
ITEM: TIMESTEP
1
ITEM: NUMBER OF ATOMS
7
ITEM: BOX BOUNDS ss ss ss
-3.0346 3.1520
-2.7826 3.2455
-2.1865 1.8549
ITEM: ATOMS id type xs ys zs
1 1 .483948 .991082 .496653
2 1 .993411 .641268 .510501
3 1 .837731 .037543 .530866
4 1 .226121 .004414 .506780
5 1 .004829 .597641 .470834
6 1 .496146 .457841 .998877
7 1 .515162 .457999 .001167
ITEM: TIMESTEP
50
ITEM: NUMBER OF ATOMS
7
ITEM: BOX BOUNDS ss ss ss
-3.0346 3.1520
-2.7826 3.2455
-2.2115 1.8850
ITEM: ATOMS id type xs ys zs
1 1 .484976 .991045 .501111
2 1 .994039 .641378 .511926
3 1 .837990 .037919 .531543
4 1 .224529 .004748 .506609
5 1 .003541 .595742 .471160
6 1 .495959 .458830 .990482
7 1 .513753 .456019 .010837
ITEM: TIMESTEP
100
ITEM: NUMBER OF ATOMS
7
ITEM: BOX BOUNDS ss ss ss
-3.0414 3.1520
-2.7929 3.2455
-2.2193 1.8880
ITEM: ATOMS id type xs ys zs
1 1 .483673 .989909 .496588
2 1 .994992 .644446 .512220
3 1 .838122 .036605 .530053
4 1 .225339 .006382 .506996
5 1 .006953 .597443 .469780
6 1 .497917 .460110 .988092
7 1 .516324 .456336 .013731
ITEM: TIMESTEP
150
ITEM: NUMBER OF ATOMS
7
ITEM: BOX BOUNDS ss ss ss
-3.0402 3.1581
-2.7922 3.2455
-2.2242 1.8859
ITEM: ATOMS id type xs ys zs
1 1 .482458 .990125 .498193
2 1 .994395 .644370 .510979
3 1 .834215 .039151 .528003
4 1 .225320 .008416 .506341
5 1 .006196 .598108 .473857
6 1 .497094 .461144 .986860
7 1 .515539 .455475 .014979
ITEM: TIMESTEP
200
ITEM: NUMBER OF ATOMS
7
ITEM: BOX BOUNDS ss ss ss
-3.0469 3.1526
-2.7948 3.2508
-2.2197 1.8892
ITEM: ATOMS id type xs ys zs
1 1 .483092 .990797 .493504
2 1 .994972 .642438 .510716
3 1 .834796 .038966 .525905
4 1 .226481 .010411 .504741
5 1 .005708 .596203 .475562
6 1 .498986 .462752 .981147
7 1 .515820 .454991 .014097
ITEM: TIMESTEP
250
ITEM: NUMBER OF ATOMS
7
ITEM: BOX BOUNDS ss ss ss
-3.0535 3.1604
-2.7934 3.2485
-2.2203 1.8917
ITEM: ATOMS id type xs ys zs
1 1 .483970 .992555 .494857
2 1 .995487 .644096 .510803
3 1 .836378 .039461 .525941
4 1 .226867 .009637 .503190
5 1 .006124 .596056 .475969
6 1 .498590 .460406 .979297
7 1 .514059 .455475 .016053
ITEM: TIMESTEP
300
ITEM: NUMBER OF ATOMS
7
ITEM: BOX BOUNDS ss ss ss
-3.0573 3.1605
-2.7972 3.2529
-2.2152 1.8866
ITEM: ATOMS id type xs ys zs
1 1 .484039 .990499 .493199
2 1 .994711 .642612 .510889
3 1 .835230 .039295 .522904
4 1 .226110 .008371 .502627
5 1 .007198 .595037 .475197
6 1 .499302 .461556 .979302
7 1 .515152 .453855 .014485
ITEM: TIMESTEP
350
ITEM: NUMBER OF ATOMS
7
ITEM: BOX BOUNDS ss ss ss
-3.0599 3.1687
-2.8013 3.2576
-2.2061 1.8863
ITEM: ATOMS id type xs ys zs
1 1 .485224 .992596 .492625
2 1 .994615 .644459 .508897
3 1 .830705 .038304 .520949
4 1 .223382 .009115 .505717
5 1 .007437 .596383 .475928
6 1 .499070 .462277 .985170
7 1 .516035 .453564 .016601
ITEM: TIMESTEP
400
ITEM: NUMBER OF ATOMS
7
ITEM: BOX BOUNDS ss ss ss
-3.0657 3.1730
-2.8002 3.2554
-2.2031 1.8787
ITEM: ATOMS id type xs ys zs
1 1 .482326 .992459 .494219
2 1 .994031 .643840 .510978
3 1 .830752 .038772 .522251
4 1 .223203 .008833 .506453
5 1 .006770 .597508 .475573
6 1 .498762 .461489 .982069
7 1 .513468 .456000 .017318
ITEM: TIMESTEP
1
ITEM: NUMBER OF ATOMS
7
ITEM: BOX BOUNDS ss ss ss
-3.0406 3.1592
-2.7868 3.2455
-2.1869 1.8567
ITEM: ATOMS id type xs ys zs
1 1 .483878 .991094 .496474
2 1 .992269 .641512 .510345
3 1 .836914 .038214 .530691
4 1 .226613 .005084 .506627
5 1 .005785 .597937 .470672
6 1 .496054 .458216 .998433
7 1 .515027 .458366 .001261
ITEM: TIMESTEP
50
ITEM: NUMBER OF ATOMS
7
ITEM: BOX BOUNDS ss ss ss
-3.0406 3.1592
-2.7868 3.2455
-2.2165 1.8782
ITEM: ATOMS id type xs ys zs
1 1 .483855 .992259 .499791
2 1 .992271 .642187 .512961
3 1 .838081 .038584 .530671
4 1 .226661 .005806 .507673
5 1 .005985 .597200 .472127
6 1 .495935 .458843 .990689
7 1 .514726 .457565 .011582
ITEM: TIMESTEP
100
ITEM: NUMBER OF ATOMS
7
ITEM: BOX BOUNDS ss ss ss
-3.0406 3.1592
-2.7886 3.2455
-2.2181 1.8881
ITEM: ATOMS id type xs ys zs
1 1 .485772 .993206 .500158
2 1 .992334 .641870 .512214
3 1 .835676 .037496 .531378
4 1 .224482 .008105 .505600
5 1 .005270 .599032 .474040
6 1 .495493 .460854 .985856
7 1 .513138 .456604 .013236
ITEM: TIMESTEP
150
ITEM: NUMBER OF ATOMS
7
ITEM: BOX BOUNDS ss ss ss
-3.0406 3.1592
-2.7868 3.2455
-2.2208 1.8917
ITEM: ATOMS id type xs ys zs
1 1 .483309 .992072 .497365
2 1 .993534 .643156 .511615
3 1 .835232 .038756 .532174
4 1 .226220 .007705 .505208
5 1 .006142 .596950 .474692
6 1 .497322 .460943 .986659
7 1 .515124 .454509 .016302
ITEM: TIMESTEP
200
ITEM: NUMBER OF ATOMS
7
ITEM: BOX BOUNDS ss ss ss
-3.0453 3.1592
-2.7868 3.2455
-2.2199 1.8915
ITEM: ATOMS id type xs ys zs
1 1 .483424 .992502 .501258
2 1 .991943 .640582 .510728
3 1 .836285 .036293 .526958
4 1 .224125 .007992 .505564
5 1 .004648 .598881 .473787
6 1 .498817 .460172 .983651
7 1 .514542 .454015 .019139
ITEM: TIMESTEP
250
ITEM: NUMBER OF ATOMS
7
ITEM: BOX BOUNDS ss ss ss
-3.0482 3.1592
-2.7932 3.2494
-2.2075 1.8871
ITEM: ATOMS id type xs ys zs
1 1 .487751 .993649 .496551
2 1 .993982 .643592 .509851
3 1 .835872 .038726 .533264
4 1 .224491 .011010 .500554
5 1 .007247 .599984 .477957
6 1 .499280 .464650 .986775
7 1 .515976 .452666 .017812
ITEM: TIMESTEP
300
ITEM: NUMBER OF ATOMS
7
ITEM: BOX BOUNDS ss ss ss
-3.0503 3.1592
-2.7868 3.2510
-2.2047 1.8883
ITEM: ATOMS id type xs ys zs
1 1 .486134 .994507 .496422
2 1 .995193 .642666 .513255
3 1 .834324 .037992 .533077
4 1 .221754 .011157 .498129
5 1 .006725 .601128 .474684
6 1 .498212 .463878 .985241
7 1 .514794 .451445 .017540
ITEM: TIMESTEP
350
ITEM: NUMBER OF ATOMS
7
ITEM: BOX BOUNDS ss ss ss
-3.0559 3.1592
-2.7913 3.2600
-2.1969 1.8958
ITEM: ATOMS id type xs ys zs
1 1 .486032 .992414 .492394
2 1 .995542 .643510 .510639
3 1 .834644 .039479 .530067
4 1 .222168 .011175 .495946
5 1 .006868 .599969 .474613
6 1 .498658 .461416 .984697
7 1 .515120 .451192 .016937
ITEM: TIMESTEP
400
ITEM: NUMBER OF ATOMS
7
ITEM: BOX BOUNDS ss ss ss
-3.0610 3.1700
-2.7898 3.2617
-2.2034 1.8930
ITEM: ATOMS id type xs ys zs
1 1 .484939 .991776 .493719
2 1 .994451 .643262 .512865
3 1 .832858 .038827 .531373
4 1 .221667 .010804 .499602
5 1 .007538 .598534 .477847
6 1 .498266 .461618 .984470
7 1 .515422 .451463 .019819
ITEM: TIMESTEP
1
ITEM: NUMBER OF ATOMS
7
ITEM: BOX BOUNDS ss ss ss
-3.0438 3.1543
-2.7826 3.2455
-2.1868 1.8579
ITEM: ATOMS id type xs ys zs
1 1 .484524 .991077 .496245
2 1 .993055 .641242 .510244
3 1 .837551 .037504 .530437
4 1 .227161 .004364 .506414
5 1 .006270 .597589 .470524
6 1 .496668 .457842 .998027
7 1 .515675 .457938 .001291
ITEM: TIMESTEP
50
ITEM: NUMBER OF ATOMS
7
ITEM: BOX BOUNDS ss ss ss
-3.0438 3.1543
-2.7843 3.2455
-2.2224 1.8811
ITEM: ATOMS id type xs ys zs
1 1 .483705 .991419 .497842
2 1 .993843 .641976 .511877
3 1 .835686 .038179 .529957
4 1 .225980 .004091 .507232
5 1 .004102 .595890 .470342
6 1 .496376 .458850 .990331
7 1 .514978 .456392 .010565
ITEM: TIMESTEP
100
ITEM: NUMBER OF ATOMS
7
ITEM: BOX BOUNDS ss ss ss
-3.0438 3.1543
-2.7864 3.2455
-2.2215 1.8879
ITEM: ATOMS id type xs ys zs
1 1 .484916 .993916 .497653
2 1 .994376 .643411 .512477
3 1 .837029 .039394 .532380
4 1 .228047 .005753 .506482
5 1 .006466 .597298 .470543
6 1 .495519 .461027 .987794
7 1 .514179 .455789 .014901
ITEM: TIMESTEP
150
ITEM: NUMBER OF ATOMS
7
ITEM: BOX BOUNDS ss ss ss
-3.0475 3.1543
-2.7904 3.2455
-2.2240 1.9031
ITEM: ATOMS id type xs ys zs
1 1 .482874 .992245 .493895
2 1 .992354 .643648 .510055
3 1 .835335 .035889 .524749
4 1 .227973 .004242 .503184
5 1 .006516 .596121 .467270
6 1 .498291 .458003 .985424
7 1 .515984 .453667 .016773
ITEM: TIMESTEP
200
ITEM: NUMBER OF ATOMS
7
ITEM: BOX BOUNDS ss ss ss
-3.0529 3.1543
-2.7997 3.2457
-2.2186 1.8962
ITEM: ATOMS id type xs ys zs
1 1 .483097 .993047 .494239
2 1 .991150 .644615 .510805
3 1 .835007 .037669 .522953
4 1 .227739 .005096 .501207
5 1 .007264 .596724 .466192
6 1 .495822 .460875 .982557
7 1 .517163 .454685 .015702
ITEM: TIMESTEP
250
ITEM: NUMBER OF ATOMS
7
ITEM: BOX BOUNDS ss ss ss
-3.0491 3.1560
-2.8033 3.2455
-2.2210 1.8868
ITEM: ATOMS id type xs ys zs
1 1 .484430 .993078 .494225
2 1 .992173 .645445 .513140
3 1 .833878 .041275 .523389
4 1 .226735 .006531 .503920
5 1 .006019 .597224 .467914
6 1 .496450 .461586 .982724
7 1 .517550 .454092 .018309
ITEM: TIMESTEP
300
ITEM: NUMBER OF ATOMS
7
ITEM: BOX BOUNDS ss ss ss
-3.0516 3.1592
-2.8054 3.2489
-2.2177 1.8959
ITEM: ATOMS id type xs ys zs
1 1 .483692 .995153 .490894
2 1 .992284 .645273 .511890
3 1 .837236 .041289 .524529
4 1 .225375 .007232 .499698
5 1 .007007 .597042 .462652
6 1 .496006 .461575 .979003
7 1 .518762 .453574 .017324
ITEM: TIMESTEP
350
ITEM: NUMBER OF ATOMS
7
ITEM: BOX BOUNDS ss ss ss
-3.0582 3.1628
-2.8101 3.2493
-2.2160 1.8865
ITEM: ATOMS id type xs ys zs
1 1 .483550 .993163 .492539
2 1 .993070 .644145 .511980
3 1 .836862 .041887 .524074
4 1 .226463 .007874 .502506
5 1 .007192 .596909 .466316
6 1 .496294 .463518 .979418
7 1 .516933 .453974 .016895
ITEM: TIMESTEP
400
ITEM: NUMBER OF ATOMS
7
ITEM: BOX BOUNDS ss ss ss
-3.0560 3.1720
-2.8150 3.2564
-2.2051 1.8969
ITEM: ATOMS id type xs ys zs
1 1 .482782 .991584 .490154
2 1 .990130 .648518 .513241
3 1 .834899 .042900 .524594
4 1 .224374 .007052 .494680
5 1 .005574 .595930 .462066
6 1 .494183 .460721 .978189
7 1 .515524 .454923 .016257
ITEM: TIMESTEP
1
ITEM: NUMBER OF ATOMS
7
ITEM: BOX BOUNDS ss ss ss
-3.0438 3.1543
-2.7944 3.2455
-2.1868 1.8579
ITEM: ATOMS id type xs ys zs
1 1 .484535 .991095 .496296
2 1 .993047 .641954 .510156
3 1 .837652 .039404 .530516
4 1 .227182 .006359 .506450
5 1 .006315 .598449 .470516
6 1 .496709 .458901 .998118
7 1 .515674 .459058 .001221
ITEM: TIMESTEP
50
ITEM: NUMBER OF ATOMS
7
ITEM: BOX BOUNDS ss ss ss
-3.0438 3.1543
-2.7944 3.2455
-2.2165 1.8804
ITEM: ATOMS id type xs ys zs
1 1 .486020 .991427 .496667
2 1 .993567 .642914 .511564
3 1 .837668 .040114 .530856
4 1 .227776 .007024 .506690
5 1 .006536 .598108 .471502
6 1 .496662 .459019 .990477
7 1 .516187 .458456 .010675
ITEM: TIMESTEP
100
ITEM: NUMBER OF ATOMS
7
ITEM: BOX BOUNDS ss ss ss
-3.0438 3.1543
-2.7973 3.2455
-2.2264 1.8964
ITEM: ATOMS id type xs ys zs
1 1 .482799 .990452 .499183
2 1 .993542 .645864 .509086
3 1 .835995 .039729 .530874
4 1 .227699 .008108 .502463
5 1 .005944 .595144 .469951
6 1 .494791 .460112 .985471
7 1 .516086 .457394 .012440
ITEM: TIMESTEP
150
ITEM: NUMBER OF ATOMS
7
ITEM: BOX BOUNDS ss ss ss
-3.0463 3.1543
-2.7949 3.2455
-2.2272 1.8996
ITEM: ATOMS id type xs ys zs
1 1 .486707 .991140 .498670
2 1 .994448 .642152 .509048
3 1 .835774 .039284 .530022
4 1 .228104 .005211 .502833
5 1 .006817 .597656 .476644
6 1 .495785 .460359 .986144
7 1 .516220 .454666 .016336
ITEM: TIMESTEP
200
ITEM: NUMBER OF ATOMS
7
ITEM: BOX BOUNDS ss ss ss
-3.0438 3.1543
-2.7980 3.2455
-2.2260 1.9006
ITEM: ATOMS id type xs ys zs
1 1 .485509 .990519 .497331
2 1 .995136 .644776 .510734
3 1 .835581 .040390 .531610
4 1 .227388 .005140 .503438
5 1 .005162 .596735 .472403
6 1 .495846 .461118 .983020
7 1 .518273 .453449 .013984
ITEM: TIMESTEP
250
ITEM: NUMBER OF ATOMS
7
ITEM: BOX BOUNDS ss ss ss
-3.0470 3.1543
-2.7975 3.2460
-2.2237 1.8990
ITEM: ATOMS id type xs ys zs
1 1 .485314 .990274 .498635
2 1 .995287 .643869 .509406
3 1 .835606 .042447 .526282
4 1 .224581 .005770 .502206
5 1 .007136 .598116 .475658
6 1 .496260 .461580 .984614
7 1 .514617 .452859 .015857
ITEM: TIMESTEP
300
ITEM: NUMBER OF ATOMS
7
ITEM: BOX BOUNDS ss ss ss
-3.0522 3.1629
-2.7984 3.2458
-2.2263 1.9061
ITEM: ATOMS id type xs ys zs
1 1 .483382 .991200 .497877
2 1 .993729 .644730 .509379
3 1 .834336 .040268 .524872
4 1 .224896 .006729 .501982
5 1 .006788 .596955 .472238
6 1 .496008 .461023 .982055
7 1 .517848 .450357 .017155
ITEM: TIMESTEP
350
ITEM: NUMBER OF ATOMS
7
ITEM: BOX BOUNDS ss ss ss
-3.0445 3.1706
-2.8032 3.2455
-2.2094 1.9018
ITEM: ATOMS id type xs ys zs
1 1 .483173 .992430 .497587
2 1 .994048 .645877 .511715
3 1 .832873 .040174 .521637
4 1 .223667 .009065 .498895
5 1 .005913 .598162 .468955
6 1 .495818 .462999 .979904
7 1 .516660 .450558 .014520
ITEM: TIMESTEP
400
ITEM: NUMBER OF ATOMS
7
ITEM: BOX BOUNDS ss ss ss
-3.0576 3.1565
-2.7952 3.2455
-2.2082 1.8901
ITEM: ATOMS id type xs ys zs
1 1 .483923 .991530 .498574
2 1 .995835 .643238 .514226
3 1 .836193 .037470 .525381
4 1 .225853 .006108 .500618
5 1 .006315 .597947 .472165
6 1 .498431 .461325 .982333
7 1 .519202 .449941 .018273
ITEM: TIMESTEP
1
ITEM: NUMBER OF ATOMS
7
ITEM: BOX BOUNDS ss ss ss
-3.0438 3.1543
-2.7833 3.2455
-2.1866 1.8612
ITEM: ATOMS id type xs ys zs
1 1 .484523 .991085 .495897
2 1 .993063 .641300 .509747
3 1 .837636 .037653 .530087
4 1 .227181 .004529 .506026
5 1 .006302 .597702 .470120
6 1 .496691 .457906 .997349
7 1 .515672 .458053 .001177
ITEM: TIMESTEP
50
ITEM: NUMBER OF ATOMS
7
ITEM: BOX BOUNDS ss ss ss
-3.0438 3.1543
-2.7833 3.2455
-2.2204 1.8807
ITEM: ATOMS id type xs ys zs
1 1 .484575 .991093 .496734
2 1 .993708 .642575 .510781
3 1 .837620 .037979 .531199
4 1 .226571 .005790 .506396
5 1 .005949 .598024 .474076
6 1 .496892 .458263 .990497
7 1 .516081 .458273 .011180
ITEM: TIMESTEP
100
ITEM: NUMBER OF ATOMS
7
ITEM: BOX BOUNDS ss ss ss
-3.0438 3.1543
-2.7880 3.2455
-2.2250 1.8969
ITEM: ATOMS id type xs ys zs
1 1 .486299 .992191 .496475
2 1 .993409 .641579 .509569
3 1 .835413 .039822 .530000
4 1 .225732 .006242 .502396
5 1 .006632 .597006 .473900
6 1 .498465 .458041 .985906
7 1 .515546 .456992 .011595
ITEM: TIMESTEP
150
ITEM: NUMBER OF ATOMS
7
ITEM: BOX BOUNDS ss ss ss
-3.0438 3.1543
-2.7917 3.2455
-2.2282 1.8940
ITEM: ATOMS id type xs ys zs
1 1 .486015 .989833 .498567
2 1 .995885 .643358 .509722
3 1 .839586 .041670 .532429
4 1 .227020 .006448 .501718
5 1 .003931 .598230 .470331
6 1 .496707 .458926 .986088
7 1 .514903 .455821 .014653
ITEM: TIMESTEP
200
ITEM: NUMBER OF ATOMS
7
ITEM: BOX BOUNDS ss ss ss
-3.0438 3.1543
-2.7988 3.2455
-2.2309 1.9005
ITEM: ATOMS id type xs ys zs
1 1 .483733 .991560 .499307
2 1 .993696 .644659 .508338
3 1 .837377 .039874 .529282
4 1 .227442 .007896 .502091
5 1 .006014 .597683 .471611
6 1 .498447 .460131 .984591
7 1 .515428 .456607 .014001
ITEM: TIMESTEP
250
ITEM: NUMBER OF ATOMS
7
ITEM: BOX BOUNDS ss ss ss
-3.0512 3.1588
-2.7995 3.2455
-2.2287 1.9018
ITEM: ATOMS id type xs ys zs
1 1 .487019 .990824 .498779
2 1 .994919 .645228 .509640
3 1 .838707 .041254 .528626
4 1 .227286 .008554 .498965
5 1 .006585 .599591 .472615
6 1 .498740 .460055 .983019
7 1 .517191 .454883 .015038
ITEM: TIMESTEP
300
ITEM: NUMBER OF ATOMS
7
ITEM: BOX BOUNDS ss ss ss
-3.0506 3.1645
-2.7942 3.2455
-2.2250 1.9059
ITEM: ATOMS id type xs ys zs
1 1 .486818 .987656 .494996
2 1 .996278 .644190 .510220
3 1 .837733 .040988 .524061
4 1 .226630 .007964 .499374
5 1 .004786 .599674 .471629
6 1 .498463 .460042 .982097
7 1 .516088 .453466 .014314
ITEM: TIMESTEP
350
ITEM: NUMBER OF ATOMS
7
ITEM: BOX BOUNDS ss ss ss
-3.0514 3.1624
-2.7995 3.2472
-2.2270 1.8955
ITEM: ATOMS id type xs ys zs
1 1 .487039 .988628 .496261
2 1 .995575 .644321 .511449
3 1 .837883 .041331 .524429
4 1 .226607 .008677 .499626
5 1 .004997 .600018 .472108
6 1 .500044 .460731 .983440
7 1 .515065 .454455 .016603
ITEM: TIMESTEP
400
ITEM: NUMBER OF ATOMS
7
ITEM: BOX BOUNDS ss ss ss
-3.0509 3.1761
-2.7984 3.2455
-2.2162 1.8900
ITEM: ATOMS id type xs ys zs
1 1 .486030 .990882 .495649
2 1 .992921 .646104 .511439
3 1 .834994 .040743 .532971
4 1 .226167 .007236 .494998
5 1 .007276 .600059 .472944
6 1 .497975 .459710 .984239
7 1 .514528 .452876 .015965
ITEM: TIMESTEP
1
ITEM: NUMBER OF ATOMS
7
ITEM: BOX BOUNDS ss ss ss
-3.0438 3.1547
-2.7833 3.2455
-2.1895 1.8716
ITEM: ATOMS id type xs ys zs
1 1 .484489 .991100 .494958
2 1 .992987 .641320 .508816
3 1 .837585 .037673 .529005
4 1 .227191 .004526 .505053
5 1 .006326 .597695 .469303
6 1 .496661 .457902 .994750
7 1 .515653 .458042 .001921
ITEM: TIMESTEP
50
ITEM: NUMBER OF ATOMS
7
ITEM: BOX BOUNDS ss ss ss
-3.0438 3.1547
-2.7845 3.2455
-2.2149 1.8822
ITEM: ATOMS id type xs ys zs
1 1 .485236 .992459 .496211
2 1 .993087 .641124 .509870
3 1 .836991 .036536 .531232
4 1 .225424 .004722 .504717
5 1 .007446 .598146 .471814
6 1 .496696 .456952 .991474
7 1 .514693 .455483 .009936
ITEM: TIMESTEP
100
ITEM: NUMBER OF ATOMS
7
ITEM: BOX BOUNDS ss ss ss
-3.0438 3.1547
-2.7887 3.2455
-2.2301 1.8906
ITEM: ATOMS id type xs ys zs
1 1 .485847 .992676 .497220
2 1 .992573 .642483 .514694
3 1 .840787 .038319 .529774
4 1 .226004 .005983 .501377
5 1 .007025 .597437 .472884
6 1 .496455 .457968 .987825
7 1 .514989 .454121 .014685
ITEM: TIMESTEP
150
ITEM: NUMBER OF ATOMS
7
ITEM: BOX BOUNDS ss ss ss
-3.0438 3.1547
-2.7888 3.2455
-2.2225 1.9020
ITEM: ATOMS id type xs ys zs
1 1 .485805 .993155 .495599
2 1 .992645 .641506 .511488
3 1 .839295 .038231 .527152
4 1 .226897 .004522 .498632
5 1 .006412 .597924 .469517
6 1 .497326 .457124 .985018
7 1 .516331 .453117 .014958
ITEM: TIMESTEP
200
ITEM: NUMBER OF ATOMS
7
ITEM: BOX BOUNDS ss ss ss
-3.0438 3.1547
-2.7882 3.2455
-2.2288 1.8993
ITEM: ATOMS id type xs ys zs
1 1 .486026 .994378 .493897
2 1 .992882 .643679 .514279
3 1 .839575 .039761 .529887
4 1 .227637 .005405 .499776
5 1 .007957 .596843 .474103
6 1 .497341 .456627 .984524
7 1 .515172 .451936 .019102
ITEM: TIMESTEP
250
ITEM: NUMBER OF ATOMS
7
ITEM: BOX BOUNDS ss ss ss
-3.0438 3.1547
-2.7884 3.2455
-2.2199 1.9061
ITEM: ATOMS id type xs ys zs
1 1 .485571 .993338 .492232
2 1 .993501 .644545 .512041
3 1 .839624 .039082 .525676
4 1 .227699 .006850 .497733
5 1 .006897 .597660 .470436
6 1 .497394 .456792 .981802
7 1 .515292 .452241 .015581
ITEM: TIMESTEP
300
ITEM: NUMBER OF ATOMS
7
ITEM: BOX BOUNDS ss ss ss
-3.0438 3.1547
-2.7912 3.2476
-2.2216 1.9077
ITEM: ATOMS id type xs ys zs
1 1 .482756 .990764 .489730
2 1 .994266 .644021 .507610
3 1 .841248 .038747 .525368
4 1 .230520 .005974 .495845
5 1 .005693 .597214 .472371
6 1 .499440 .460059 .981507
7 1 .517272 .452365 .015136
ITEM: TIMESTEP
350
ITEM: NUMBER OF ATOMS
7
ITEM: BOX BOUNDS ss ss ss
-3.0438 3.1547
-2.7912 3.2605
-2.2176 1.9095
ITEM: ATOMS id type xs ys zs
1 1 .483158 .988177 .488729
2 1 .995853 .642742 .510176
3 1 .840066 .039456 .524953
4 1 .229229 .008091 .493601
5 1 .003644 .595339 .470323
6 1 .500070 .459215 .979737
7 1 .517227 .451568 .014593
ITEM: TIMESTEP
400
ITEM: NUMBER OF ATOMS
7
ITEM: BOX BOUNDS ss ss ss
-3.0478 3.1543
-2.7940 3.2475
-2.2156 1.9036
ITEM: ATOMS id type xs ys zs
1 1 .480926 .991185 .488861
2 1 .994585 .647424 .508241
3 1 .841252 .039874 .523983
4 1 .229026 .007414 .494899
5 1 .003562 .596457 .472843
6 1 .500234 .459746 .980210
7 1 .516621 .453599 .017623
ITEM: TIMESTEP
1
ITEM: NUMBER OF ATOMS
7
ITEM: BOX BOUNDS ss ss ss
-3.0367 3.1478
-2.7783 3.2116
-2.1868 1.8546
ITEM: ATOMS id type xs ys zs
1 1 .484454 .996693 .496726
2 1 .994106 .644633 .510585
3 1 .838337 .037077 .530926
4 1 .226547 .003741 .506873
5 1 .005178 .600755 .470880
6 1 .496666 .460035 .998915
7 1 .515686 .460184 .001234
ITEM: TIMESTEP
50
ITEM: NUMBER OF ATOMS
7
ITEM: BOX BOUNDS ss ss ss
-3.0367 3.1478
-2.7846 3.2177
-2.2160 1.8846
ITEM: ATOMS id type xs ys zs
1 1 .483742 .996115 .496959
2 1 .996247 .645420 .510701
3 1 .838843 .039115 .529600
4 1 .225498 .003946 .507368
5 1 .006726 .600910 .475876
6 1 .496422 .458349 .990931
7 1 .515938 .457334 .010235
ITEM: TIMESTEP
100
ITEM: NUMBER OF ATOMS
7
ITEM: BOX BOUNDS ss ss ss
-3.0386 3.1478
-2.7896 3.2303
-2.2300 1.8951
ITEM: ATOMS id type xs ys zs
1 1 .483989 .991906 .497182
2 1 .997002 .644989 .512230
3 1 .836423 .038031 .533440
4 1 .226760 .007291 .502530
5 1 .004509 .601060 .469865
6 1 .496059 .458832 .986121
7 1 .516917 .456445 .013412
ITEM: TIMESTEP
150
ITEM: NUMBER OF ATOMS
7
ITEM: BOX BOUNDS ss ss ss
-3.0460 3.1530
-2.7917 3.2321
-2.2279 1.9028
ITEM: ATOMS id type xs ys zs
1 1 .486070 .992289 .495054
2 1 .994349 .640726 .508365
3 1 .834829 .038385 .529132
4 1 .225935 .008013 .501739
5 1 .005432 .597674 .470388
6 1 .496919 .462109 .983517
7 1 .517259 .456776 .014151
ITEM: TIMESTEP
200
ITEM: NUMBER OF ATOMS
7
ITEM: BOX BOUNDS ss ss ss
-3.0584 3.1478
-2.7954 3.2375
-2.2345 1.9092
ITEM: ATOMS id type xs ys zs
1 1 .486180 .991596 .494719
2 1 .995063 .641318 .509173
3 1 .837948 .037556 .529251
4 1 .228246 .009587 .500487
5 1 .005887 .599829 .471300
6 1 .497796 .461357 .979654
7 1 .517613 .454923 .016308
ITEM: TIMESTEP
250
ITEM: NUMBER OF ATOMS
7
ITEM: BOX BOUNDS ss ss ss
-3.0726 3.1536
-2.7822 3.2304
-2.2318 1.9123
ITEM: ATOMS id type xs ys zs
1 1 .487743 .993228 .497904
2 1 .993109 .643477 .507999
3 1 .839243 .036243 .529195
4 1 .230098 .009273 .500040
5 1 .008196 .600354 .470325
6 1 .499857 .462242 .979415
7 1 .517479 .453578 .016614
ITEM: TIMESTEP
300
ITEM: NUMBER OF ATOMS
7
ITEM: BOX BOUNDS ss ss ss
-3.0736 3.1538
-2.7783 3.2361
-2.2219 1.9026
ITEM: ATOMS id type xs ys zs
1 1 .485287 .991641 .495457
2 1 .994323 .644903 .508988
3 1 .838857 .035767 .529938
4 1 .228178 .009089 .496184
5 1 .007280 .597892 .467258
6 1 .500640 .462997 .979704
7 1 .517408 .453781 .013024
ITEM: TIMESTEP
350
ITEM: NUMBER OF ATOMS
7
ITEM: BOX BOUNDS ss ss ss
-3.0716 3.1562
-2.7783 3.2462
-2.2234 1.9034
ITEM: ATOMS id type xs ys zs
1 1 .485353 .992501 .494532
2 1 .996244 .644997 .511037
3 1 .838625 .037523 .530173
4 1 .228583 .007280 .498808
5 1 .009387 .598007 .467752
6 1 .502127 .463552 .982398
7 1 .517474 .452952 .015300
ITEM: TIMESTEP
400
ITEM: NUMBER OF ATOMS
7
ITEM: BOX BOUNDS ss ss ss
-3.0626 3.1594
-2.7804 3.2502
-2.2245 1.8933
ITEM: ATOMS id type xs ys zs
1 1 .484463 .991584 .495007
2 1 .996343 .644453 .514488
3 1 .838462 .037931 .531299
4 1 .227770 .006879 .499185
5 1 .006711 .599727 .468669
6 1 .500646 .462867 .983371
7 1 .516935 .452602 .015992
ITEM: TIMESTEP
1
ITEM: NUMBER OF ATOMS
7
ITEM: BOX BOUNDS ss ss ss
-3.0421 3.1436
-2.7601 3.2470
-2.1865 1.8678
ITEM: ATOMS id type xs ys zs
1 1 .485225 .990789 .495060
2 1 .994763 .639751 .508924
3 1 .839041 .033930 .529207
4 1 .227375 .000665 .505170
5 1 .006037 .595994 .469327
6 1 .497398 .455678 .995701
7 1 .516437 .455846 .001162
ITEM: TIMESTEP
50
ITEM: NUMBER OF ATOMS
7
ITEM: BOX BOUNDS ss ss ss
-3.0421 3.1436
-2.7858 3.2470
-2.2156 1.8846
ITEM: ATOMS id type xs ys zs
1 1 .485314 .990612 .496463
2 1 .995411 .642116 .509905
3 1 .838174 .038699 .531335
4 1 .227921 .005060 .507111
5 1 .006140 .597270 .470747
6 1 .497307 .459207 .988839
7 1 .515742 .457385 .009658
ITEM: TIMESTEP
100
ITEM: NUMBER OF ATOMS
7
ITEM: BOX BOUNDS ss ss ss
-3.0421 3.1436
-2.7917 3.2470
-2.2315 1.8924
ITEM: ATOMS id type xs ys zs
1 1 .485576 .991735 .496994
2 1 .995670 .642719 .510959
3 1 .838062 .039499 .532509
4 1 .227983 .005384 .509656
5 1 .004816 .597091 .474310
6 1 .498510 .460935 .984272
7 1 .517482 .456329 .010253
ITEM: TIMESTEP
150
ITEM: NUMBER OF ATOMS
7
ITEM: BOX BOUNDS ss ss ss
-3.0537 3.1549
-2.8029 3.2470
-2.2373 1.8988
ITEM: ATOMS id type xs ys zs
1 1 .483938 .992140 .495204
2 1 .994745 .642339 .510299
3 1 .835697 .040633 .531836
4 1 .228299 .008104 .509795
5 1 .007070 .597263 .474362
6 1 .498002 .462439 .983626
7 1 .517809 .456471 .011816
ITEM: TIMESTEP
200
ITEM: NUMBER OF ATOMS
7
ITEM: BOX BOUNDS ss ss ss
-3.0575 3.1479
-2.7965 3.2470
-2.2404 1.9157
ITEM: ATOMS id type xs ys zs
1 1 .485411 .991433 .493101
2 1 .995245 .642864 .506063
3 1 .837434 .038067 .530562
4 1 .228658 .004091 .509191
5 1 .008237 .597316 .474403
6 1 .497428 .462933 .978693
7 1 .517321 .455088 .014175
ITEM: TIMESTEP
250
ITEM: NUMBER OF ATOMS
7
ITEM: BOX BOUNDS ss ss ss
-3.0622 3.1583
-2.8068 3.2470
-2.2420 1.9023
ITEM: ATOMS id type xs ys zs
1 1 .483394 .993756 .495075
2 1 .992986 .644988 .512051
3 1 .835852 .039375 .529306
4 1 .229865 .006910 .507262
5 1 .010292 .598887 .474359
6 1 .498393 .464053 .979058
7 1 .515940 .458158 .015225
ITEM: TIMESTEP
300
ITEM: NUMBER OF ATOMS
7
ITEM: BOX BOUNDS ss ss ss
-3.0521 3.1584
-2.7910 3.2470
-2.2398 1.9144
ITEM: ATOMS id type xs ys zs
1 1 .483476 .986956 .499669
2 1 .992836 .641654 .513282
3 1 .836615 .040846 .526605
4 1 .228085 .007602 .502644
5 1 .007367 .593612 .465678
6 1 .498074 .460043 .983592
7 1 .514545 .453625 .017494
ITEM: TIMESTEP
350
ITEM: NUMBER OF ATOMS
7
ITEM: BOX BOUNDS ss ss ss
-3.0547 3.1535
-2.7922 3.2470
-2.2398 1.9253
ITEM: ATOMS id type xs ys zs
1 1 .483142 .986637 .497260
2 1 .993221 .642174 .513504
3 1 .836980 .039457 .525104
4 1 .228153 .007895 .502397
5 1 .007390 .591302 .464538
6 1 .499452 .459643 .980177
7 1 .516037 .451919 .017833
ITEM: TIMESTEP
400
ITEM: NUMBER OF ATOMS
7
ITEM: BOX BOUNDS ss ss ss
-3.0531 3.1604
-2.7986 3.2470
-2.2379 1.9240
ITEM: ATOMS id type xs ys zs
1 1 .482270 .987773 .498503
2 1 .993945 .643741 .514081
3 1 .836453 .039427 .527957
4 1 .230482 .008564 .502523
5 1 .006475 .591239 .465520
6 1 .499778 .461848 .979483
7 1 .517782 .451667 .016454
ITEM: TIMESTEP
1
ITEM: NUMBER OF ATOMS
7
ITEM: BOX BOUNDS ss ss ss
-3.0421 3.1436
-2.7616 3.2470
-2.1953 1.8907
ITEM: ATOMS id type xs ys zs
1 1 .485214 .990799 .493408
2 1 .994748 .639856 .507136
3 1 .839064 .034192 .527241
4 1 .227356 .000925 .503402
5 1 .006030 .596103 .467807
6 1 .497413 .455816 .990128
7 1 .516415 .455988 .003312
ITEM: TIMESTEP
50
ITEM: NUMBER OF ATOMS
7
ITEM: BOX BOUNDS ss ss ss
-3.0421 3.1436
-2.7830 3.2470
-2.2181 1.8907
ITEM: ATOMS id type xs ys zs
1 1 .485995 .989391 .494721
2 1 .995771 .639244 .511082
3 1 .837252 .036012 .529957
4 1 .227676 .005808 .505601
5 1 .006426 .597757 .473171
6 1 .497621 .458358 .990662
7 1 .517095 .456046 .009926
ITEM: TIMESTEP
100
ITEM: NUMBER OF ATOMS
7
ITEM: BOX BOUNDS ss ss ss
-3.0421 3.1436
-2.7872 3.2470
-2.2310 1.8955
ITEM: ATOMS id type xs ys zs
1 1 .485634 .989778 .500249
2 1 .997323 .642509 .509922
3 1 .836743 .039750 .530078
4 1 .226692 .004818 .503933
5 1 .007428 .596473 .473124
6 1 .498759 .459884 .989744
7 1 .517277 .456770 .012391
ITEM: TIMESTEP
150
ITEM: NUMBER OF ATOMS
7
ITEM: BOX BOUNDS ss ss ss
-3.0476 3.1568
-2.7888 3.2470
-2.2385 1.9084
ITEM: ATOMS id type xs ys zs
1 1 .486056 .990976 .497972
2 1 .993233 .644702 .512890
3 1 .839928 .041604 .531010
4 1 .229565 .006828 .500008
5 1 .008768 .594559 .473898
6 1 .501224 .459813 .986090
7 1 .515288 .455623 .016551
ITEM: TIMESTEP
200
ITEM: NUMBER OF ATOMS
7
ITEM: BOX BOUNDS ss ss ss
-3.0430 3.1526
-2.8026 3.2470
-2.2386 1.9076
ITEM: ATOMS id type xs ys zs
1 1 .485519 .989845 .499677
2 1 .994897 .645773 .514246
3 1 .840971 .044815 .531585
4 1 .229662 .010594 .501606
5 1 .007589 .596491 .474365
6 1 .500212 .460342 .985571
7 1 .516044 .455207 .017542
ITEM: TIMESTEP
250
ITEM: NUMBER OF ATOMS
7
ITEM: BOX BOUNDS ss ss ss
-3.0421 3.1557
-2.8061 3.2470
-2.2423 1.9145
ITEM: ATOMS id type xs ys zs
1 1 .484848 .991662 .495318
2 1 .995111 .646489 .518294
3 1 .840951 .045850 .528933
4 1 .228613 .011361 .500283
5 1 .006033 .596605 .474197
6 1 .499933 .460530 .987232
7 1 .517423 .456952 .019382
ITEM: TIMESTEP
300
ITEM: NUMBER OF ATOMS
7
ITEM: BOX BOUNDS ss ss ss
-3.0421 3.1597
-2.7963 3.2470
-2.2354 1.9183
ITEM: ATOMS id type xs ys zs
1 1 .485505 .990557 .498258
2 1 .993450 .647932 .516535
3 1 .837113 .042100 .531582
4 1 .227463 .011026 .501412
5 1 .007718 .596800 .471802
6 1 .499307 .459217 .985105
7 1 .516426 .456215 .020390
ITEM: TIMESTEP
350
ITEM: NUMBER OF ATOMS
7
ITEM: BOX BOUNDS ss ss ss
-3.0421 3.1669
-2.7887 3.2470
-2.2383 1.9263
ITEM: ATOMS id type xs ys zs
1 1 .485637 .988011 .495508