ITEM: TIMESTEP
1
ITEM: NUMBER OF ATOMS
7
ITEM: BOX BOUNDS ss ss ss
-3.0084 3.1152
-2.7604 3.1950
-2.1865 1.8549
ITEM: ATOMS id type xs ys zs
1 1 .484652 .999420 .496621
2 1 .999296 .645300 .510442
3 1 .842106 .034272 .530959
4 1 .224195 .000677 .506892
5 1 .000613 .601261 .470779
6 1 .496919 .459634 .999065
7 1 .516167 .460018 .000906
ITEM: TIMESTEP
50
ITEM: NUMBER OF ATOMS
7
ITEM: BOX BOUNDS ss ss ss
-3.0297 3.1385
-2.7800 3.2184
-2.2110 1.8802
ITEM: ATOMS id type xs ys zs
1 1 .484674 .995492 .496877
2 1 .995380 .643812 .510150
3 1 .839324 .037421 .530553
4 1 .226326 .004244 .506768
5 1 .004264 .600095 .470919
6 1 .496689 .459600 .993034
7 1 .515723 .459851 .006479
ITEM: TIMESTEP
100
ITEM: NUMBER OF ATOMS
7
ITEM: BOX BOUNDS ss ss ss
-3.0390 3.1456
-2.7862 3.2312
-2.2200 1.8860
ITEM: ATOMS id type xs ys zs
1 1 .484924 .993474 .498034
2 1 .994170 .642905 .510687
3 1 .838165 .038409 .530394
4 1 .227519 .006056 .506505
5 1 .005895 .598747 .471252
6 1 .497142 .459676 .990984
7 1 .515688 .458054 .009387
ITEM: TIMESTEP
150
ITEM: NUMBER OF ATOMS
7
ITEM: BOX BOUNDS ss ss ss
-3.0418 3.1433
-2.7886 3.2435
-2.2238 1.8855
ITEM: ATOMS id type xs ys zs
1 1 .485142 .991698 .499534
2 1 .994598 .642127 .510930
3 1 .838226 .038462 .530781
4 1 .227701 .006832 .506336
5 1 .006429 .597253 .471759
6 1 .498011 .459427 .990317
7 1 .516220 .455637 .011509
ITEM: TIMESTEP
200
ITEM: NUMBER OF ATOMS
7
ITEM: BOX BOUNDS ss ss ss
-3.0448 3.1532
-2.7854 3.2365
-2.2128 1.8872
ITEM: ATOMS id type xs ys zs
1 1 .484114 .993221 .498765
2 1 .993115 .643165 .509185
3 1 .836609 .037232 .529435
4 1 .227375 .006326 .504167
5 1 .007059 .597543 .469526
6 1 .497968 .459982 .988522
7 1 .515986 .454456 .010217
ITEM: TIMESTEP
250
ITEM: NUMBER OF ATOMS
7
ITEM: BOX BOUNDS ss ss ss
-3.0428 3.1581
-2.7959 3.2436
-2.2114 1.8848
ITEM: ATOMS id type xs ys zs
1 1 .482336 .993277 .499381
2 1 .992150 .644511 .509333
3 1 .835539 .037824 .529691
4 1 .226354 .007672 .504941
5 1 .006749 .597183 .468525
6 1 .498130 .460878 .986942
7 1 .515994 .453657 .012015
ITEM: TIMESTEP
300
ITEM: NUMBER OF ATOMS
7
ITEM: BOX BOUNDS ss ss ss
-3.0439 3.1577
-2.7926 3.2489
-2.2002 1.8801
ITEM: ATOMS id type xs ys zs
1 1 .481952 .993007 .498917
2 1 .992257 .645165 .507843
3 1 .835515 .037182 .529095
4 1 .225562 .007038 .504520
5 1 .006794 .596391 .467035
6 1 .498768 .460616 .986658
7 1 .516193 .451514 .011189
ITEM: TIMESTEP
350
ITEM: NUMBER OF ATOMS
7
ITEM: BOX BOUNDS ss ss ss
-3.0501 3.1585
-2.8080 3.2483
-2.2025 1.8733
ITEM: ATOMS id type xs ys zs
1 1 .482375 .993260 .500160
2 1 .992562 .646737 .508194
3 1 .835741 .040055 .530208
4 1 .225457 .009449 .505044
5 1 .007669 .597572 .468069
6 1 .499410 .462295 .987506
7 1 .516577 .452079 .013055
ITEM: TIMESTEP
400
ITEM: NUMBER OF ATOMS
7
ITEM: BOX BOUNDS ss ss ss
-3.0489 3.1681
-2.8061 3.2563
-2.1957 1.8699
ITEM: ATOMS id type xs ys zs
1 1 .481576 .992034 .499539
2 1 .991694 .646312 .507221
3 1 .834392 .039962 .530023
4 1 .224168 .008901 .504010
5 1 .007224 .596656 .467638
6 1 .498552 .461830 .987492
7 1 .515868 .450794 .012766
ITEM: TIMESTEP
1
ITEM: NUMBER OF ATOMS
7
ITEM: BOX BOUNDS ss ss ss
-3.0346 3.1520
-2.7826 3.2455
-2.1865 1.8549
ITEM: ATOMS id type xs ys zs
1 1 .483954 .991045 .496627
2 1 .993355 .641194 .510441
3 1 .837766 .037543 .530959
4 1 .226155 .004356 .506895
5 1 .004850 .597693 .470771
6 1 .496095 .457771 .999052
7 1 .515155 .458159 .000911
ITEM: TIMESTEP
50
ITEM: NUMBER OF ATOMS
7
ITEM: BOX BOUNDS ss ss ss
-3.0346 3.1520
-2.7826 3.2455
-2.2115 1.8850
ITEM: ATOMS id type xs ys zs
1 1 .484014 .990987 .496321
2 1 .993170 .641033 .509604
3 1 .837623 .037647 .530045
4 1 .226506 .004612 .506314
5 1 .005040 .597595 .470408
6 1 .495991 .457733 .991910
7 1 .514930 .458151 .006460
ITEM: TIMESTEP
100
ITEM: NUMBER OF ATOMS
7
ITEM: BOX BOUNDS ss ss ss
-3.0414 3.1520
-2.7929 3.2455
-2.2193 1.8880
ITEM: ATOMS id type xs ys zs
1 1 .484669 .991202 .498009
2 1 .993182 .641659 .510521
3 1 .837362 .039347 .530296
4 1 .227853 .006912 .506332
5 1 .006124 .597797 .471092
6 1 .496678 .459315 .990470
7 1 .514921 .458036 .008991
ITEM: TIMESTEP
150
ITEM: NUMBER OF ATOMS
7
ITEM: BOX BOUNDS ss ss ss
-3.0402 3.1581
-2.7922 3.2455
-2.2242 1.8859
ITEM: ATOMS id type xs ys zs
1 1 .484006 .991389 .500270
2 1 .992324 .641968 .511711
3 1 .835836 .039251 .530933
4 1 .227573 .007232 .506837
5 1 .005705 .597527 .472148
6 1 .496248 .460311 .989906
7 1 .514050 .456975 .011383
ITEM: TIMESTEP
200
ITEM: NUMBER OF ATOMS
7
ITEM: BOX BOUNDS ss ss ss
-3.0469 3.1526
-2.7948 3.2508
-2.2197 1.8892
ITEM: ATOMS id type xs ys zs
1 1 .484977 .991104 .500890
2 1 .993358 .642084 .511120
3 1 .836404 .039451 .530385
4 1 .228310 .008139 .505420
5 1 .006409 .596927 .470973
6 1 .497338 .460946 .988360
7 1 .514879 .456157 .011860
ITEM: TIMESTEP
250
ITEM: NUMBER OF ATOMS
7
ITEM: BOX BOUNDS ss ss ss
-3.0535 3.1604
-2.7934 3.2485
-2.2203 1.8917
ITEM: ATOMS id type xs ys zs
1 1 .484714 .992093 .501332
2 1 .992424 .642660 .510750
3 1 .835219 .039212 .530819
4 1 .228144 .008104 .504933
5 1 .006931 .597202 .470387
6 1 .497301 .461579 .986817
7 1 .514648 .455762 .014037
ITEM: TIMESTEP
300
ITEM: NUMBER OF ATOMS
7
ITEM: BOX BOUNDS ss ss ss
-3.0573 3.1605
-2.7972 3.2529
-2.2152 1.8866
ITEM: ATOMS id type xs ys zs
1 1 .484714 .991791 .501122
2 1 .992962 .642831 .510299
3 1 .835292 .039794 .530584
4 1 .228217 .008485 .505420
5 1 .007232 .596746 .470110
6 1 .498096 .461911 .987072
7 1 .515116 .455109 .014832
ITEM: TIMESTEP
350
ITEM: NUMBER OF ATOMS
7
ITEM: BOX BOUNDS ss ss ss
-3.0599 3.1687
-2.8013 3.2576
-2.2061 1.8863
ITEM: ATOMS id type xs ys zs
1 1 .483793 .991256 .499911
2 1 .991837 .643145 .509026
3 1 .834446 .040372 .528396
4 1 .228142 .008674 .504867
5 1 .007539 .596041 .469078
6 1 .498095 .461913 .986604
7 1 .514837 .454329 .013911
ITEM: TIMESTEP
400
ITEM: NUMBER OF ATOMS
7
ITEM: BOX BOUNDS ss ss ss
-3.0657 3.1730
-2.8002 3.2554
-2.2031 1.8787
ITEM: ATOMS id type xs ys zs
1 1 .483840 .991773 .499915
2 1 .991437 .643992 .509153
3 1 .833928 .040234 .527216
4 1 .228081 .008209 .505808
5 1 .008458 .595686 .469971
6 1 .498670 .461991 .987700
7 1 .514995 .453624 .013836
ITEM: TIMESTEP
1
ITEM: NUMBER OF ATOMS
7
ITEM: BOX BOUNDS ss ss ss
-3.0406 3.1592
-2.7868 3.2455
-2.1869 1.8567
ITEM: ATOMS id type xs ys zs
1 1 .483888 .991054 .496454
2 1 .992210 .641444 .510269
3 1 .836951 .038208 .530772
4 1 .226638 .005039 .506724
5 1 .005804 .597968 .470625
6 1 .496006 .458145 .998625
7 1 .515022 .458534 .001002
ITEM: TIMESTEP
50
ITEM: NUMBER OF ATOMS
7
ITEM: BOX BOUNDS ss ss ss
-3.0406 3.1592
-2.7868 3.2455
-2.2165 1.8782
ITEM: ATOMS id type xs ys zs
1 1 .483953 .991001 .497754
2 1 .992027 .641244 .510954
3 1 .836848 .038302 .531573
4 1 .226992 .005185 .507813
5 1 .006042 .597921 .471798
6 1 .495850 .458057 .993728
7 1 .514839 .458695 .007538
ITEM: TIMESTEP
100
ITEM: NUMBER OF ATOMS
7
ITEM: BOX BOUNDS ss ss ss
-3.0406 3.1592
-2.7886 3.2455
-2.2181 1.8881
ITEM: ATOMS id type xs ys zs
1 1 .484079 .991230 .497923
2 1 .991926 .641453 .510408
3 1 .836393 .038688 .530327
4 1 .227151 .006378 .506523
5 1 .006226 .597750 .471098
6 1 .495758 .458703 .990777
7 1 .514369 .457832 .008620
ITEM: TIMESTEP
150
ITEM: NUMBER OF ATOMS
7
ITEM: BOX BOUNDS ss ss ss
-3.0406 3.1592
-2.7868 3.2455
-2.2208 1.8917
ITEM: ATOMS id type xs ys zs
1 1 .484931 .991908 .499581
2 1 .991915 .641433 .510978
3 1 .835678 .038202 .530892
4 1 .226391 .007318 .506495
5 1 .006084 .597900 .472168
6 1 .495536 .459526 .988775
7 1 .513640 .456575 .011651
ITEM: TIMESTEP
200
ITEM: NUMBER OF ATOMS
7
ITEM: BOX BOUNDS ss ss ss
-3.0453 3.1592
-2.7868 3.2455
-2.2199 1.8915
ITEM: ATOMS id type xs ys zs
1 1 .485263 .992515 .499912
2 1 .992046 .641791 .511013
3 1 .835573 .038292 .530600
4 1 .226522 .007780 .505833
5 1 .006559 .598112 .472987
6 1 .496411 .460347 .987776
7 1 .513874 .455559 .013098
ITEM: TIMESTEP
250
ITEM: NUMBER OF ATOMS
7
ITEM: BOX BOUNDS ss ss ss
-3.0482 3.1592
-2.7932 3.2494
-2.2075 1.8871
ITEM: ATOMS id type xs ys zs
1 1 .485212 .992363 .498783
2 1 .992007 .643028 .510161
3 1 .835294 .039662 .529479
4 1 .226379 .009061 .503224
5 1 .007460 .598465 .472616
6 1 .497078 .461461 .989201
7 1 .514624 .454516 .011657
ITEM: TIMESTEP
300
ITEM: NUMBER OF ATOMS
7
ITEM: BOX BOUNDS ss ss ss
-3.0503 3.1592
-2.7868 3.2510
-2.2047 1.8883
ITEM: ATOMS id type xs ys zs
1 1 .485096 .992370 .498121
2 1 .992402 .643560 .509620
3 1 .834915 .039204 .528786
4 1 .226035 .008275 .501896
5 1 .007621 .597998 .472279
6 1 .497482 .461435 .988985
7 1 .515146 .452989 .011983
ITEM: TIMESTEP
350
ITEM: NUMBER OF ATOMS
7
ITEM: BOX BOUNDS ss ss ss
-3.0559 3.1592
-2.7913 3.2600
-2.1969 1.8958
ITEM: ATOMS id type xs ys zs
1 1 .485303 .991055 .495773
2 1 .993264 .643451 .507507
3 1 .834832 .040151 .526709
4 1 .225897 .009420 .499335
5 1 .007859 .597636 .470719
6 1 .498337 .461797 .985895
7 1 .515677 .452556 .011024
ITEM: TIMESTEP
400
ITEM: NUMBER OF ATOMS
7
ITEM: BOX BOUNDS ss ss ss
-3.0610 3.1700
-2.7898 3.2617
-2.2034 1.8930
ITEM: ATOMS id type xs ys zs
1 1 .485078 .991207 .496604
2 1 .992310 .643404 .508623
3 1 .833149 .039838 .528221
4 1 .225141 .009966 .499652
5 1 .008340 .598238 .472804
6 1 .498332 .462093 .985569
7 1 .515393 .452256 .013736
ITEM: TIMESTEP
1
ITEM: NUMBER OF ATOMS
7
ITEM: BOX BOUNDS ss ss ss
-3.0438 3.1543
-2.7826 3.2455
-2.1868 1.8579
ITEM: ATOMS id type xs ys zs
1 1 .484533 .991045 .496284
2 1 .992987 .641194 .510091
3 1 .837691 .037543 .530586
4 1 .227216 .004349 .506551
5 1 .006325 .597690 .470454
6 1 .496655 .457771 .998312
7 1 .515674 .458164 .000955
ITEM: TIMESTEP
50
ITEM: NUMBER OF ATOMS
7
ITEM: BOX BOUNDS ss ss ss
-3.0438 3.1543
-2.7843 3.2455
-2.2224 1.8811
ITEM: ATOMS id type xs ys zs
1 1 .484599 .990981 .498094
2 1 .992764 .641082 .511271
3 1 .837582 .037890 .531941
4 1 .227570 .004760 .508255
5 1 .006537 .597751 .472184
6 1 .496464 .457799 .993186
7 1 .515492 .458575 .008757
ITEM: TIMESTEP
100
ITEM: NUMBER OF ATOMS
7
ITEM: BOX BOUNDS ss ss ss
-3.0438 3.1543
-2.7864 3.2455
-2.2215 1.8879
ITEM: ATOMS id type xs ys zs
1 1 .484838 .991365 .498155
2 1 .992660 .641194 .510929
3 1 .836677 .038407 .530440
4 1 .228108 .005884 .506837
5 1 .006575 .597711 .471097
6 1 .496210 .458897 .991141
7 1 .515043 .457540 .009812
ITEM: TIMESTEP
150
ITEM: NUMBER OF ATOMS
7
ITEM: BOX BOUNDS ss ss ss
-3.0475 3.1543
-2.7904 3.2455
-2.2240 1.9031
ITEM: ATOMS id type xs ys zs
1 1 .485465 .991935 .497090
2 1 .992860 .641609 .509696
3 1 .836169 .039402 .528563
4 1 .229010 .006943 .504392
5 1 .007187 .597935 .469409
6 1 .495990 .460616 .986735
7 1 .515086 .456805 .011283
ITEM: TIMESTEP
200
ITEM: NUMBER OF ATOMS
7
ITEM: BOX BOUNDS ss ss ss
-3.0529 3.1543
-2.7997 3.2457
-2.2186 1.8962
ITEM: ATOMS id type xs ys zs
1 1 .485782 .991922 .497436
2 1 .992893 .642625 .509509
3 1 .836235 .040986 .528752
4 1 .229328 .008724 .503462
5 1 .007982 .598119 .469532
6 1 .496720 .461903 .987685
7 1 .515704 .456542 .010512
ITEM: TIMESTEP
250
ITEM: NUMBER OF ATOMS
7
ITEM: BOX BOUNDS ss ss ss
-3.0491 3.1560
-2.8033 3.2455
-2.2210 1.8868
ITEM: ATOMS id type xs ys zs
1 1 .484698 .992154 .498577
2 1 .992426 .643347 .510895
3 1 .835419 .040985 .529301
4 1 .227963 .008794 .504508
5 1 .007133 .597279 .470498
6 1 .496738 .462496 .989113
7 1 .515211 .455617 .012336
ITEM: TIMESTEP
300
ITEM: NUMBER OF ATOMS
7
ITEM: BOX BOUNDS ss ss ss
-3.0516 3.1592
-2.8054 3.2489
-2.2177 1.8959
ITEM: ATOMS id type xs ys zs
1 1 .484181 .992030 .496955
2 1 .991798 .643314 .510030
3 1 .834481 .040800 .527175
4 1 .227623 .008640 .502790
5 1 .007300 .596411 .468707
6 1 .497094 .462674 .985848
7 1 .515446 .454688 .013186
ITEM: TIMESTEP
350
ITEM: NUMBER OF ATOMS
7
ITEM: BOX BOUNDS ss ss ss
-3.0582 3.1628
-2.8101 3.2493
-2.2160 1.8865
ITEM: ATOMS id type xs ys zs
1 1 .484087 .992335 .497413
2 1 .991317 .644020 .511349
3 1 .834330 .041351 .527353
4 1 .227985 .009302 .503289
5 1 .008058 .596687 .468495
6 1 .497291 .463188 .987104
7 1 .516097 .454512 .013888
ITEM: TIMESTEP
400
ITEM: NUMBER OF ATOMS
7
ITEM: BOX BOUNDS ss ss ss
-3.0560 3.1720
-2.8150 3.2564
-2.2051 1.8969
ITEM: ATOMS id type xs ys zs
1 1 .482982 .991647 .493710
2 1 .990015 .644424 .509069
3 1 .833374 .042258 .523541
4 1 .226855 .009862 .500313
5 1 .007598 .596562 .463958
6 1 .496007 .462974 .983163
7 1 .515735 .454072 .012133
ITEM: TIMESTEP
1
ITEM: NUMBER OF ATOMS
7
ITEM: BOX BOUNDS ss ss ss
-3.0438 3.1543
-2.7944 3.2455
-2.1868 1.8579
ITEM: ATOMS id type xs ys zs
1 1 .484537 .991064 .496288
2 1 .992987 .641900 .510097
3 1 .837694 .039426 .530600
4 1 .227216 .006301 .506553
5 1 .006325 .598479 .470462
6 1 .496656 .458831 .998319
7 1 .515678 .459224 .000968
ITEM: TIMESTEP
50
ITEM: NUMBER OF ATOMS
7
ITEM: BOX BOUNDS ss ss ss
-3.0438 3.1543
-2.7944 3.2455
-2.2165 1.8804
ITEM: ATOMS id type xs ys zs
1 1 .484639 .990975 .497433
2 1 .992693 .641616 .510581
3 1 .837644 .039530 .531374
4 1 .227589 .006438 .507676
5 1 .006563 .598440 .471523
6 1 .496423 .458637 .993449
7 1 .515493 .459578 .007117
ITEM: TIMESTEP
100
ITEM: NUMBER OF ATOMS
7
ITEM: BOX BOUNDS ss ss ss
-3.0438 3.1543
-2.7973 3.2455
-2.2264 1.8964
ITEM: ATOMS id type xs ys zs
1 1 .484789 .991037 .497654
2 1 .992599 .641755 .509642
3 1 .837110 .040168 .530510
4 1 .228177 .007375 .506261
5 1 .006897 .598161 .471028
6 1 .496337 .459276 .989522
7 1 .515142 .458893 .009514
ITEM: TIMESTEP
150
ITEM: NUMBER OF ATOMS
7
ITEM: BOX BOUNDS ss ss ss
-3.0463 3.1543
-2.7949 3.2455
-2.2272 1.8996
ITEM: ATOMS id type xs ys zs
1 1 .485066 .991388 .499074
2 1 .992341 .641541 .508731
3 1 .836301 .039885 .530317
4 1 .228727 .006996 .504223
5 1 .007542 .597410 .471564
6 1 .496598 .459716 .988538
7 1 .515409 .457416 .010668
ITEM: TIMESTEP
200
ITEM: NUMBER OF ATOMS
7
ITEM: BOX BOUNDS ss ss ss
-3.0438 3.1543
-2.7980 3.2455
-2.2260 1.9006
ITEM: ATOMS id type xs ys zs
1 1 .484815 .991528 .499647
2 1 .992343 .641943 .507835
3 1 .835797 .040227 .530820
4 1 .228568 .007616 .502810
5 1 .007177 .597340 .472549
6 1 .496495 .460904 .988459
7 1 .515230 .456517 .012351
ITEM: TIMESTEP
250
ITEM: NUMBER OF ATOMS
7
ITEM: BOX BOUNDS ss ss ss
-3.0470 3.1543
-2.7975 3.2460
-2.2237 1.8990
ITEM: ATOMS id type xs ys zs
1 1 .485430 .991095 .499974
2 1 .992919 .641911 .507359
3 1 .835901 .039900 .530836
4 1 .228966 .007702 .501881
5 1 .007234 .597388 .474325
6 1 .496569 .461464 .988865
7 1 .515484 .455225 .013421
ITEM: TIMESTEP
300
ITEM: NUMBER OF ATOMS
7
ITEM: BOX BOUNDS ss ss ss
-3.0522 3.1629
-2.7984 3.2458
-2.2263 1.9061
ITEM: ATOMS id type xs ys zs
1 1 .485399 .990998 .499664
2 1 .992053 .642294 .506669
3 1 .834895 .040188 .530129
4 1 .228749 .008196 .500659
5 1 .007787 .597438 .474459
6 1 .496372 .461696 .986883
7 1 .514954 .454395 .014689
ITEM: TIMESTEP
350
ITEM: NUMBER OF ATOMS
7
ITEM: BOX BOUNDS ss ss ss
-3.0445 3.1706
-2.8032 3.2455
-2.2094 1.9018
ITEM: ATOMS id type xs ys zs
1 1 .484043 .991255 .497276
2 1 .991133 .643415 .505298
3 1 .833679 .041246 .528914
4 1 .226670 .009092 .498313
5 1 .006407 .597842 .472809
6 1 .495234 .462106 .986939
7 1 .513906 .453668 .011580
ITEM: TIMESTEP
400
ITEM: NUMBER OF ATOMS
7
ITEM: BOX BOUNDS ss ss ss
-3.0576 3.1565
-2.7952 3.2455
-2.2082 1.8901
ITEM: ATOMS id type xs ys zs
1 1 .485662 .991574 .498032
2 1 .993526 .643841 .507660
3 1 .835748 .039690 .529791
4 1 .227849 .007643 .498645
5 1 .008646 .597474 .473018
6 1 .498004 .460867 .988240
7 1 .517153 .451820 .011658
ITEM: TIMESTEP
1
ITEM: NUMBER OF ATOMS
7
ITEM: BOX BOUNDS ss ss ss
-3.0438 3.1543
-2.7833 3.2455
-2.1866 1.8612
ITEM: ATOMS id type xs ys zs
1 1 .484536 .991044 .495870
2 1 .992987 .641235 .509662
3 1 .837694 .037656 .530155
4 1 .227217 .004466 .506130
5 1 .006325 .597740 .470063
6 1 .496653 .457836 .997514
7 1 .515677 .458229 .000925
ITEM: TIMESTEP
50
ITEM: NUMBER OF ATOMS
7
ITEM: BOX BOUNDS ss ss ss
-3.0438 3.1543
-2.7833 3.2455
-2.2204 1.8807
ITEM: ATOMS id type xs ys zs
1 1 .484629 .990970 .497911
2 1 .992662 .640885 .511013
3 1 .837683 .037743 .531893
4 1 .227605 .004569 .508198
5 1 .006556 .597744 .471963
6 1 .496407 .457647 .993528
7 1 .515492 .458685 .007961
ITEM: TIMESTEP
100
ITEM: NUMBER OF ATOMS
7
ITEM: BOX BOUNDS ss ss ss
-3.0438 3.1543
-2.7880 3.2455
-2.2250 1.8969
ITEM: ATOMS id type xs ys zs
1 1 .484980 .991097 .497384
2 1 .992360 .641211 .509227
3 1 .837164 .038853 .530567
4 1 .228084 .006082 .506503
5 1 .006871 .597725 .470611
6 1 .496442 .458400 .989862
7 1 .515102 .458343 .008841
ITEM: TIMESTEP
150
ITEM: NUMBER OF ATOMS
7
ITEM: BOX BOUNDS ss ss ss
-3.0438 3.1543
-2.7917 3.2455
-2.2282 1.8940
ITEM: ATOMS id type xs ys zs
1 1 .485870 .991209 .499237
2 1 .992612 .641870 .509436
3 1 .836585 .040059 .531473
4 1 .228207 .006943 .506135
5 1 .007237 .597656 .471868
6 1 .496528 .459078 .990159
7 1 .514976 .457400 .010486
ITEM: TIMESTEP
200
ITEM: NUMBER OF ATOMS
7
ITEM: BOX BOUNDS ss ss ss
-3.0438 3.1543
-2.7988 3.2455
-2.2309 1.9005
ITEM: ATOMS id type xs ys zs
1 1 .486091 .991377 .499687
2 1 .992773 .642213 .508856
3 1 .836199 .041198 .530938
4 1 .228100 .008102 .504236
5 1 .007452 .598053 .471438
6 1 .496451 .459832 .988095
7 1 .514685 .457318 .011712
ITEM: TIMESTEP
250
ITEM: NUMBER OF ATOMS
7
ITEM: BOX BOUNDS ss ss ss
-3.0512 3.1588
-2.7995 3.2455
-2.2287 1.9018
ITEM: ATOMS id type xs ys zs
1 1 .485970 .991150 .499736
2 1 .992517 .643118 .508251
3 1 .836283 .041269 .530600
4 1 .228768 .008391 .502042
5 1 .007863 .598232 .470661
6 1 .496855 .460007 .986362
7 1 .514748 .457124 .012010
ITEM: TIMESTEP
300
ITEM: NUMBER OF ATOMS
7
ITEM: BOX BOUNDS ss ss ss
-3.0506 3.1645
-2.7942 3.2455
-2.2250 1.9059
ITEM: ATOMS id type xs ys zs
1 1 .484959 .991276 .498675
2 1 .991888 .643449 .507033
3 1 .835994 .040162 .529374
4 1 .228686 .007727 .499758
5 1 .007467 .597507 .469498
6 1 .497024 .459982 .984571
7 1 .514616 .456357 .011336
ITEM: TIMESTEP
350
ITEM: NUMBER OF ATOMS
7
ITEM: BOX BOUNDS ss ss ss
-3.0514 3.1624
-2.7995 3.2472
-2.2270 1.8955
ITEM: ATOMS id type xs ys zs
1 1 .484692 .991287 .500869
2 1 .992264 .644010 .507778
3 1 .836549 .040421 .530167
4 1 .228783 .008687 .500881
5 1 .007948 .597212 .470336
6 1 .498114 .460656 .986483
7 1 .515374 .455586 .012635
ITEM: TIMESTEP
400
ITEM: NUMBER OF ATOMS
7
ITEM: BOX BOUNDS ss ss ss
-3.0509 3.1761
-2.7984 3.2455
-2.2162 1.8900
ITEM: ATOMS id type xs ys zs
1 1 .483195 .991447 .501172
2 1 .990135 .644487 .507382
3 1 .834786 .039834 .529136
4 1 .227673 .008732 .500759
5 1 .008206 .597297 .469186
6 1 .498064 .460593 .987871
7 1 .514730 .454196 .011551
ITEM: TIMESTEP
1
ITEM: NUMBER OF ATOMS
7
ITEM: BOX BOUNDS ss ss ss
-3.0438 3.1547
-2.7833 3.2455
-2.1895 1.8716
ITEM: ATOMS id type xs ys zs
1 1 .484505 .991045 .494959
2 1 .992925 .641233 .508702
3 1 .837639 .037654 .529124
4 1 .227200 .004465 .505185
5 1 .006327 .597740 .469233
6 1 .496618 .457831 .994958
7 1 .515644 .458231 .001627
ITEM: TIMESTEP
50
ITEM: NUMBER OF ATOMS
7
ITEM: BOX BOUNDS ss ss ss
-3.0438 3.1547
-2.7845 3.2455
-2.2149 1.8822
ITEM: ATOMS id type xs ys zs
1 1 .484614 .990919 .496984
2 1 .992575 .640961 .510104
3 1 .837640 .037945 .531056
4 1 .227600 .004673 .507394
5 1 .006588 .597847 .471061
6 1 .496352 .457757 .993189
7 1 .515425 .458818 .006525
ITEM: TIMESTEP
100
ITEM: NUMBER OF ATOMS
7
ITEM: BOX BOUNDS ss ss ss
-3.0438 3.1547
-2.7887 3.2455
-2.2301 1.8906
ITEM: ATOMS id type xs ys zs
1 1 .484934 .991326 .498575
2 1 .992408 .641061 .510907
3 1 .837335 .038642 .531512
4 1 .228013 .005951 .507671
5 1 .007100 .597839 .471776
6 1 .496147 .458479 .991364
7 1 .514766 .458053 .010320
ITEM: TIMESTEP
150
ITEM: NUMBER OF ATOMS
7
ITEM: BOX BOUNDS ss ss ss
-3.0438 3.1547
-2.7888 3.2455
-2.2225 1.9020
ITEM: ATOMS id type xs ys zs
1 1 .485594 .991848 .496938
2 1 .992075 .641274 .509706
3 1 .838446 .038618 .528228
4 1 .227844 .006510 .502293
5 1 .007676 .598018 .469550
6 1 .496102 .458192 .988170
7 1 .514473 .455658 .010359
ITEM: TIMESTEP
200
ITEM: NUMBER OF ATOMS
7
ITEM: BOX BOUNDS ss ss ss
-3.0438 3.1547
-2.7882 3.2455
-2.2288 1.8993
ITEM: ATOMS id type xs ys zs
1 1 .485996 .991768 .498268
2 1 .991763 .641894 .511959
3 1 .839514 .038955 .529224
4 1 .228204 .006464 .500976
5 1 .007663 .598051 .471215
6 1 .496284 .457663 .987614
7 1 .514727 .454177 .012547
ITEM: TIMESTEP
250
ITEM: NUMBER OF ATOMS
7
ITEM: BOX BOUNDS ss ss ss
-3.0438 3.1547
-2.7884 3.2455
-2.2199 1.9061
ITEM: ATOMS id type xs ys zs
1 1 .485955 .991669 .496585
2 1 .991458 .642290 .509900
3 1 .839372 .038961 .527174
4 1 .228842 .006551 .497614
5 1 .007543 .598080 .469729
6 1 .496634 .457849 .985428
7 1 .514791 .453388 .010800
ITEM: TIMESTEP
300
ITEM: NUMBER OF ATOMS
7
ITEM: BOX BOUNDS ss ss ss
-3.0438 3.1547
-2.7912 3.2476
-2.2216 1.9077
ITEM: ATOMS id type xs ys zs
1 1 .486012 .991887 .495737
2 1 .991385 .642802 .509797
3 1 .839267 .039398 .526964
4 1 .228905 .006680 .497037
5 1 .007788 .598054 .470147
6 1 .496843 .458309 .984847
7 1 .514891 .452694 .012231
ITEM: TIMESTEP
350
ITEM: NUMBER OF ATOMS
7
ITEM: BOX BOUNDS ss ss ss
-3.0438 3.1547
-2.7912 3.2605
-2.2176 1.9095
ITEM: ATOMS id type xs ys zs
1 1 .485192 .989967 .493813
2 1 .991905 .642073 .508885
3 1 .839349 .039377 .526796
4 1 .229016 .006603 .496313
5 1 .007610 .596675 .469898
6 1 .497115 .458099 .984347
7 1 .515314 .451462 .012592
ITEM: TIMESTEP
400
ITEM: NUMBER OF ATOMS
7
ITEM: BOX BOUNDS ss ss ss
-3.0478 3.1543
-2.7940 3.2475
-2.2156 1.9036
ITEM: ATOMS id type xs ys zs
1 1 .483705 .991014 .491912
2 1 .993295 .644005 .508080
3 1 .840255 .039533 .526530
4 1 .230390 .007717 .495414
5 1 .007036 .597678 .471307
6 1 .498954 .460394 .984226
7 1 .516772 .452635 .013039
ITEM: TIMESTEP
1
ITEM: NUMBER OF ATOMS
7
ITEM: BOX BOUNDS ss ss ss
-3.0367 3.1478
-2.7783 3.2116
-2.1868 1.8546
ITEM: ATOMS id type xs ys zs
1 1 .484465 .996655 .496694
2 1 .994030 .644573 .510511
3 1 .838395 .037073 .531036
4 1 .226582 .003664 .506975
5 1 .005201 .600795 .470849
6 1 .496607 .459981 .999136
7 1 .515673 .460383 .000966
ITEM: TIMESTEP
50
ITEM: NUMBER OF ATOMS
7
ITEM: BOX BOUNDS ss ss ss
-3.0367 3.1478
-2.7846 3.2177
-2.2160 1.8846
ITEM: ATOMS id type xs ys zs
1 1 .484548 .995489 .496870
2 1 .993689 .643898 .509893
3 1 .838392 .038101 .530982
4 1 .227007 .004715 .507286
5 1 .005513 .600620 .470910
6 1 .496336 .459865 .992709
7 1 .515520 .461070 .006578
ITEM: TIMESTEP
100
ITEM: NUMBER OF ATOMS
7
ITEM: BOX BOUNDS ss ss ss
-3.0386 3.1478
-2.7896 3.2303
-2.2300 1.8951
ITEM: ATOMS id type xs ys zs
1 1 .484838 .993144 .498315
2 1 .993601 .642757 .510031
3 1 .837845 .038551 .531384
4 1 .228010 .006347 .507162
5 1 .005962 .599421 .471935
6 1 .496607 .459740 .989849
7 1 .515596 .459601 .009614
ITEM: TIMESTEP
150
ITEM: NUMBER OF ATOMS
7
ITEM: BOX BOUNDS ss ss ss
-3.0460 3.1530
-2.7917 3.2321
-2.2279 1.9028
ITEM: ATOMS id type xs ys zs
1 1 .484625 .992475 .497655
2 1 .993130 .642663 .508904
3 1 .836443 .037933 .530187
4 1 .228902 .007767 .504508
5 1 .006460 .599520 .470469
6 1 .496959 .460323 .986791
7 1 .515910 .458015 .009720
ITEM: TIMESTEP
200
ITEM: NUMBER OF ATOMS
7
ITEM: BOX BOUNDS ss ss ss
-3.0584 3.1478
-2.7954 3.2375
-2.2345 1.9092
ITEM: ATOMS id type xs ys zs
1 1 .485951 .991559 .497807
2 1 .993629 .641571 .508341
3 1 .838030 .037911 .530687
4 1 .230704 .009676 .502183
5 1 .007591 .598478 .469720
6 1 .498388 .461152 .984918
7 1 .516700 .457196 .012751
ITEM: TIMESTEP
250
ITEM: NUMBER OF ATOMS
7
ITEM: BOX BOUNDS ss ss ss
-3.0726 3.1536
-2.7822 3.2304
-2.2318 1.9123
ITEM: ATOMS id type xs ys zs
1 1 .487029 .992830 .497781
2 1 .992722 .641081 .506909
3 1 .837951 .035763 .529996
4 1 .232168 .008404 .500271
5 1 .009169 .598479 .468338
6 1 .499016 .461610 .983696
7 1 .516734 .455501 .013086
ITEM: TIMESTEP
300
ITEM: NUMBER OF ATOMS
7
ITEM: BOX BOUNDS ss ss ss
-3.0736 3.1538
-2.7783 3.2361
-2.2219 1.9026
ITEM: ATOMS id type xs ys zs
1 1 .487518 .992567 .499114
2 1 .992581 .640960 .507026
3 1 .838432 .035147 .530176
4 1 .231886 .008788 .499998
5 1 .009464 .599157 .468184
6 1 .499783 .461608 .985700
7 1 .517043 .453631 .012058
ITEM: TIMESTEP
350
ITEM: NUMBER OF ATOMS
7
ITEM: BOX BOUNDS ss ss ss
-3.0716 3.1562
-2.7783 3.2462
-2.2234 1.9034
ITEM: ATOMS id type xs ys zs
1 1 .487355 .991560 .499975
2 1 .992125 .640447 .507089
3 1 .838243 .034967 .530520
4 1 .231355 .009438 .499788
5 1 .009575 .599272 .468596
6 1 .499754 .460996 .985428
7 1 .516994 .452419 .013122
ITEM: TIMESTEP
400
ITEM: NUMBER OF ATOMS
7
ITEM: BOX BOUNDS ss ss ss
-3.0626 3.1594
-2.7804 3.2502
-2.2245 1.8933
ITEM: ATOMS id type xs ys zs
1 1 .486097 .991314 .501260
2 1 .991788 .640871 .508593
3 1 .837335 .035593 .531943
4 1 .229551 .009861 .500728
5 1 .008467 .599218 .470130
6 1 .499084 .460874 .987270
7 1 .516227 .452101 .013456
ITEM: TIMESTEP
1
ITEM: NUMBER OF ATOMS
7
ITEM: BOX BOUNDS ss ss ss
-3.0421 3.1436
-2.7601 3.2470
-2.1865 1.8678
ITEM: ATOMS id type xs ys zs
1 1 .485235 .990759 .495054
2 1 .994702 .639684 .508824
3 1 .839097 .033928 .529282
4 1 .227397 .000618 .505299
5 1 .006062 .596036 .469282
6 1 .497372 .455620 .995900
7 1 .516433 .456024 .000891
ITEM: TIMESTEP
50
ITEM: NUMBER OF ATOMS
7
ITEM: BOX BOUNDS ss ss ss
-3.0421 3.1436
-2.7858 3.2470
-2.2156 1.8846
ITEM: ATOMS id type xs ys zs
1 1 .485338 .990658 .496819
2 1 .994313 .640788 .509848
3 1 .839136 .038140 .530933
4 1 .227834 .004883 .507383
5 1 .006366 .597835 .470772
6 1 .497060 .457662 .992796
7 1 .516272 .459051 .006441
ITEM: TIMESTEP
100
ITEM: NUMBER OF ATOMS
7
ITEM: BOX BOUNDS ss ss ss
-3.0421 3.1436
-2.7917 3.2470
-2.2315 1.8924
ITEM: ATOMS id type xs ys zs
1 1 .485608 .990600 .498519
2 1 .994185 .640850 .510920
3 1 .838721 .039209 .531865
4 1 .228507 .006597 .508378
5 1 .006741 .597826 .471551
6 1 .496811 .458436 .990882
7 1 .515999 .458987 .009611
ITEM: TIMESTEP
150
ITEM: NUMBER OF ATOMS
7
ITEM: BOX BOUNDS ss ss ss
-3.0537 3.1549
-2.8029 3.2470
-2.2373 1.8988
ITEM: ATOMS id type xs ys zs
1 1 .486674 .989725 .499322
2 1 .992297 .641057 .512161
3 1 .837108 .041032 .530637
4 1 .230539 .009612 .507224
5 1 .007405 .597509 .471616
6 1 .496208 .460417 .989325
7 1 .515827 .458423 .010727
ITEM: TIMESTEP
200
ITEM: NUMBER OF ATOMS
7
ITEM: BOX BOUNDS ss ss ss
-3.0575 3.1479
-2.7965 3.2470
-2.2404 1.9157
ITEM: ATOMS id type xs ys zs
1 1 .487526 .989211 .499126
2 1 .993619 .640329 .511293
3 1 .838169 .040040 .529265
4 1 .231514 .009104 .505174
5 1 .007591 .596455 .470237
6 1 .496748 .460304 .985651
7 1 .516575 .456975 .011830
ITEM: TIMESTEP
250
ITEM: NUMBER OF ATOMS
7
ITEM: BOX BOUNDS ss ss ss
-3.0622 3.1583
-2.8068 3.2470
-2.2420 1.9023
ITEM: ATOMS id type xs ys zs
1 1 .486557 .989079 .502470
2 1 .992061 .640968 .513172
3 1 .836381 .041678 .532252
4 1 .231300 .010934 .507290
5 1 .008545 .596995 .472236
6 1 .496822 .461456 .989016
7 1 .516046 .456964 .012562
ITEM: TIMESTEP
300
ITEM: NUMBER OF ATOMS
7
ITEM: BOX BOUNDS ss ss ss
-3.0521 3.1584
-2.7910 3.2470
-2.2398 1.9144
ITEM: ATOMS id type xs ys zs
1 1 .485550 .988656 .502022
2 1 .991921 .640239 .510887
3 1 .836097 .038893 .531647
4 1 .229842 .008467 .505150
5 1 .007550 .595605 .469387
6 1 .496823 .460066 .987005
7 1 .515567 .454297 .012595
ITEM: TIMESTEP
350
ITEM: NUMBER OF ATOMS
7
ITEM: BOX BOUNDS ss ss ss
-3.0547 3.1535
-2.7922 3.2470
-2.2398 1.9253
ITEM: ATOMS id type xs ys zs
1 1 .485849 .988621 .502609
2 1 .992790 .640578 .508317
3 1 .837322 .039043 .530734
4 1 .230508 .008634 .503826
5 1 .008343 .595274 .467645
6 1 .498526 .460297 .984926
7 1 .516062 .453444 .013805
ITEM: TIMESTEP
400
ITEM: NUMBER OF ATOMS
7
ITEM: BOX BOUNDS ss ss ss
-3.0531 3.1604
-2.7986 3.2470
-2.2379 1.9240
ITEM: ATOMS id type xs ys zs
1 1 .484786 .988712 .504492
2 1 .992180 .641116 .508101
3 1 .837201 .039923 .531331
4 1 .229877 .009829 .503535
5 1 .008237 .595319 .467535
6 1 .498764 .460877 .984619
7 1 .515836 .453955 .014777
ITEM: TIMESTEP
1
ITEM: NUMBER OF ATOMS
7
ITEM: BOX BOUNDS ss ss ss
-3.0421 3.1436
-2.7616 3.2470
-2.1953 1.8907
ITEM: ATOMS id type xs ys zs
1 1 .485232 .990761 .493361
2 1 .994699 .639780 .507026
3 1 .839098 .034179 .527327
4 1 .227399 .000877 .503532
5 1 .006065 .596141 .467791
6 1 .497375 .455761 .990326
7 1 .516433 .456167 .003037
ITEM: TIMESTEP
50
ITEM: NUMBER OF ATOMS
7
ITEM: BOX BOUNDS ss ss ss
-3.0421 3.1436
-2.7830 3.2470
-2.2181 1.8907
ITEM: ATOMS id type xs ys zs
1 1 .485339 .990629 .496330
2 1 .994272 .640584 .509413
3 1 .839150 .037714 .530451
4 1 .227834 .004429 .506893
5 1 .006360 .597640 .470445
6 1 .497089 .457359 .991357
7 1 .516246 .458883 .006960
ITEM: TIMESTEP
100
ITEM: NUMBER OF ATOMS
7
ITEM: BOX BOUNDS ss ss ss
-3.0421 3.1436
-2.7872 3.2470
-2.2310 1.8955
ITEM: ATOMS id type xs ys zs
1 1 .485487 .990604 .498490
2 1 .994270 .640437 .510296
3 1 .838658 .038518 .531245
4 1 .228516 .005890 .507246
5 1 .006885 .597310 .471431
6 1 .497272 .458357 .990517
7 1 .515649 .458570 .009706
ITEM: TIMESTEP
150
ITEM: NUMBER OF ATOMS
7
ITEM: BOX BOUNDS ss ss ss
-3.0476 3.1568
-2.7888 3.2470
-2.2385 1.9084
ITEM: ATOMS id type xs ys zs
1 1 .485057 .989967 .499118
2 1 .992428 .640638 .509266
3 1 .836864 .038889 .530441
4 1 .229057 .006924 .504538
5 1 .008170 .596663 .471914
6 1 .496803 .459529 .987889
7 1 .514528 .457464 .010983
ITEM: TIMESTEP
200
ITEM: NUMBER OF ATOMS
7
ITEM: BOX BOUNDS ss ss ss
-3.0430 3.1526
-2.8026 3.2470
-2.2386 1.9076
ITEM: ATOMS id type xs ys zs
1 1 .485666 .989811 .499633
2 1 .992875 .642795 .510716
3 1 .838090 .042238 .531178
4 1 .229047 .009553 .502259
5 1 .008038 .596786 .473312
6 1 .498115 .460930 .988087
7 1 .514421 .457263 .011573
ITEM: TIMESTEP
250
ITEM: NUMBER OF ATOMS
7
ITEM: BOX BOUNDS ss ss ss
-3.0421 3.1557
-2.8061 3.2470
-2.2423 1.9145
ITEM: ATOMS id type xs ys zs
1 1 .486138 .989724 .499111
2 1 .993297 .644827 .512265
3 1 .838519 .044987 .530813
4 1 .229496 .010495 .499879
5 1 .008923 .596651 .473248
6 1 .499247 .461073 .987865
7 1 .514848 .456668 .014110
ITEM: TIMESTEP
300
ITEM: NUMBER OF ATOMS
7
ITEM: BOX BOUNDS ss ss ss
-3.0421 3.1597
-2.7963 3.2470
-2.2354 1.9183
ITEM: ATOMS id type xs ys zs
1 1 .485653 .989620 .498557
2 1 .993236 .644294 .511519
3 1 .838011 .043787 .529854
4 1 .229456 .009693 .498254
5 1 .009185 .596351 .472280
6 1 .498979 .460185 .988116
7 1 .515401 .455413 .013151
ITEM: TIMESTEP
350
ITEM: NUMBER OF ATOMS
7
ITEM: BOX BOUNDS ss ss ss
-3.0421 3.1669
-2.7887 3.2470
-2.2383 1.9263
ITEM: ATOMS id type xs ys zs
1 1 .484781 .989496 .499012