ITEM: TIMESTEP
1
ITEM: NUMBER OF ATOMS
7
ITEM: BOX BOUNDS ss ss ss
-2.8404 3.2752
-2.7827 3.2665
-2.0206 1.8652
ITEM: ATOMS id type xs ys zs
1 1 .499328 .999285 .494208
2 1 .999325 .629672 .409307
3 1 .826906 .026613 .451534
4 1 .207784 .000796 .535942
5 1 .000596 .618641 .552681
6 1 .530350 .458594 .998789
7 1 .472451 .450608 .000860
ITEM: TIMESTEP
50
ITEM: NUMBER OF ATOMS
7
ITEM: BOX BOUNDS ss ss ss
-2.8654 3.2963
-2.8080 3.2890
-2.0410 1.8872
ITEM: ATOMS id type xs ys zs
1 1 .499437 .994520 .493544
2 1 .995587 .628680 .406180
3 1 .823128 .031096 .451183
4 1 .209953 .007554 .537337
5 1 .003509 .616549 .552593
6 1 .529967 .458224 .990282
7 1 .473305 .451586 .003556
ITEM: TIMESTEP
100
ITEM: NUMBER OF ATOMS
7
ITEM: BOX BOUNDS ss ss ss
-2.8672 3.3061
-2.8122 3.2998
-2.0522 1.8947
ITEM: ATOMS id type xs ys zs
1 1 .498435 .992627 .495229
2 1 .995162 .628282 .410816
3 1 .824276 .030744 .452861
4 1 .208954 .008864 .535784
5 1 .004045 .615472 .551222
6 1 .530194 .457134 .988560
7 1 .472759 .450945 .005796
ITEM: TIMESTEP
150
ITEM: NUMBER OF ATOMS
7
ITEM: BOX BOUNDS ss ss ss
-2.8738 3.3141
-2.8166 3.3032
-2.0632 1.8903
ITEM: ATOMS id type xs ys zs
1 1 .498018 .992248 .502126
2 1 .994162 .629083 .416744
3 1 .824744 .032797 .457101
4 1 .213375 .011868 .541301
5 1 .006508 .616419 .558162
6 1 .528411 .457682 .990454
7 1 .472889 .451836 .005899
ITEM: TIMESTEP
200
ITEM: NUMBER OF ATOMS
7
ITEM: BOX BOUNDS ss ss ss
-2.8843 3.3085
-2.8145 3.2975
-2.0731 1.8856
ITEM: ATOMS id type xs ys zs
1 1 .499962 .992907 .502867
2 1 .996357 .629703 .415406
3 1 .825704 .032348 .458017
4 1 .213191 .011692 .542043
5 1 .006698 .616715 .560522
6 1 .531089 .457708 .990119
7 1 .475463 .453253 .009693
ITEM: TIMESTEP
250
ITEM: NUMBER OF ATOMS
7
ITEM: BOX BOUNDS ss ss ss
-2.8855 3.3158
-2.8111 3.3005
-2.0755 1.8922
ITEM: ATOMS id type xs ys zs
1 1 .499643 .989906 .502842
2 1 .996769 .630135 .416560
3 1 .826757 .034455 .458360
4 1 .210009 .012308 .535945
5 1 .008200 .615279 .559018
6 1 .529727 .455013 .981498
7 1 .474453 .453790 .009805
ITEM: TIMESTEP
300
ITEM: NUMBER OF ATOMS
7
ITEM: BOX BOUNDS ss ss ss
-2.8944 3.3259
-2.8057 3.3049
-2.0774 1.8933
ITEM: ATOMS id type xs ys zs
1 1 .498129 .989483 .501103
2 1 .995231 .629224 .416996
3 1 .824520 .032570 .458109
4 1 .211285 .010376 .536496
5 1 .008615 .613300 .559998
6 1 .529607 .454647 .982483
7 1 .475183 .453248 .008215
ITEM: TIMESTEP
350
ITEM: NUMBER OF ATOMS
7
ITEM: BOX BOUNDS ss ss ss
-2.8864 3.3413
-2.8018 3.2978
-2.0901 1.8812
ITEM: ATOMS id type xs ys zs
1 1 .499583 .987740 .501100
2 1 .996587 .627315 .416632
3 1 .824084 .031469 .463616
4 1 .209553 .012831 .540432
5 1 .007935 .612233 .564707
6 1 .531474 .453441 .984444
7 1 .475814 .449820 .013759
ITEM: TIMESTEP
400
ITEM: NUMBER OF ATOMS
7
ITEM: BOX BOUNDS ss ss ss
-2.8928 3.3398
-2.7913 3.2921
-2.0959 1.8824
ITEM: ATOMS id type xs ys zs
1 1 .497945 .989060 .508266
2 1 .993801 .627553 .421330
3 1 .822170 .027552 .464878
4 1 .211723 .012222 .545814
5 1 .009653 .611283 .566031
6 1 .531838 .454145 .988944
7 1 .475128 .451121 .014867
ITEM: TIMESTEP
1
ITEM: NUMBER OF ATOMS
7
ITEM: BOX BOUNDS ss ss ss
-2.8757 3.3340
-2.7825 3.2681
-2.0749 1.8650
ITEM: ATOMS id type xs ys zs
1 1 .497447 .999031 .501214
2 1 .989898 .629503 .417496
3 1 .820074 .026581 .459123
4 1 .210300 .000778 .542386
5 1 .006282 .618459 .558872
6 1 .527996 .458449 .998868
7 1 .470982 .450492 .014653
ITEM: TIMESTEP
50
ITEM: NUMBER OF ATOMS
7
ITEM: BOX BOUNDS ss ss ss
-2.8757 3.3340
-2.8079 3.2923
-2.0749 1.8895
ITEM: ATOMS id type xs ys zs
1 1 .498153 .994866 .498990
2 1 .991790 .629322 .416020
3 1 .821109 .031212 .457077
4 1 .209292 .006480 .540470
5 1 .006926 .617246 .558395
6 1 .527858 .457367 .989270
7 1 .471118 .451067 .015200
ITEM: TIMESTEP
100
ITEM: NUMBER OF ATOMS
7
ITEM: BOX BOUNDS ss ss ss
-2.8757 3.3340
-2.8112 3.3005
-2.0749 1.8915
ITEM: ATOMS id type xs ys zs
1 1 .497082 .992810 .496175
2 1 .993328 .628270 .416744
3 1 .819947 .032773 .463595
4 1 .209465 .010004 .544768
5 1 .007989 .617849 .557454
6 1 .528425 .456990 .990831
7 1 .471368 .450706 .013654
ITEM: TIMESTEP
150
ITEM: NUMBER OF ATOMS
7
ITEM: BOX BOUNDS ss ss ss
-2.8894 3.3340
-2.8194 3.3059
-2.0749 1.8895
ITEM: ATOMS id type xs ys zs
1 1 .497178 .992184 .495144
2 1 .992984 .628413 .417298
3 1 .821591 .032367 .459393
4 1 .209086 .013757 .545913
5 1 .007566 .618676 .560515
6 1 .527941 .458507 .989661
7 1 .474797 .450329 .014842
ITEM: TIMESTEP
200
ITEM: NUMBER OF ATOMS
7
ITEM: BOX BOUNDS ss ss ss
-2.8938 3.3340
-2.8194 3.2971
-2.0749 1.8901
ITEM: ATOMS id type xs ys zs
1 1 .499149 .991353 .496025
2 1 .992648 .628158 .418446
3 1 .821560 .031893 .461256
4 1 .212448 .013770 .543072
5 1 .009081 .614969 .559486
6 1 .529456 .458898 .988516
7 1 .474908 .452337 .011711
ITEM: TIMESTEP
250
ITEM: NUMBER OF ATOMS
7
ITEM: BOX BOUNDS ss ss ss
-2.8786 3.3340
-2.8126 3.3049
-2.0749 1.8933
ITEM: ATOMS id type xs ys zs
1 1 .497012 .989814 .498288
2 1 .993053 .627307 .418886
3 1 .820794 .031017 .463338
4 1 .208822 .014480 .541682
5 1 .006662 .612465 .558534
6 1 .528653 .457383 .988575
7 1 .473755 .451319 .011217
ITEM: TIMESTEP
300
ITEM: NUMBER OF ATOMS
7
ITEM: BOX BOUNDS ss ss ss
-2.8816 3.3340
-2.8010 3.2950
-2.0749 1.8893
ITEM: ATOMS id type xs ys zs
1 1 .495865 .990673 .497186
2 1 .993095 .628913 .418675
3 1 .820023 .029514 .465179
4 1 .208361 .013410 .540880
5 1 .007030 .613223 .561699
6 1 .529444 .456530 .988730
7 1 .474792 .451965 .009706
ITEM: TIMESTEP
350
ITEM: NUMBER OF ATOMS
7
ITEM: BOX BOUNDS ss ss ss
-2.8804 3.3340
-2.7869 3.2860
-2.0763 1.8863
ITEM: ATOMS id type xs ys zs
1 1 .495518 .990498 .499618
2 1 .994639 .627869 .420431
3 1 .819939 .027212 .467508
4 1 .207054 .013265 .540749
5 1 .006400 .611744 .561876
6 1 .530542 .454593 .989334
7 1 .475239 .450917 .011047
ITEM: TIMESTEP
400
ITEM: NUMBER OF ATOMS
7
ITEM: BOX BOUNDS ss ss ss
-2.8838 3.3418
-2.7737 3.2856
-2.0799 1.8877
ITEM: ATOMS id type xs ys zs
1 1 .494871 .990730 .498794
2 1 .993402 .627837 .422005
3 1 .819864 .024742 .467490
4 1 .207130 .010675 .542270
5 1 .006518 .610512 .562441
6 1 .529975 .453390 .987988
7 1 .475973 .449463 .010384
ITEM: TIMESTEP
1
ITEM: NUMBER OF ATOMS
7
ITEM: BOX BOUNDS ss ss ss
-2.8738 3.3231
-2.7823 3.2663
-2.0675 1.8688
ITEM: ATOMS id type xs ys zs
1 1 .498150 .999315 .499766
2 1 .991635 .629688 .415982
3 1 .821447 .026558 .457649
4 1 .210463 .000756 .540972
5 1 .005986 .618640 .557513
6 1 .528801 .458576 .997895
7 1 .471654 .450605 .012767
ITEM: TIMESTEP
50
ITEM: NUMBER OF ATOMS
7
ITEM: BOX BOUNDS ss ss ss
-2.8738 3.3231
-2.8094 3.2916
-2.0675 1.8893
ITEM: ATOMS id type xs ys zs
1 1 .497286 .994149 .496926
2 1 .992409 .628531 .414146
3 1 .821205 .030285 .456118
4 1 .210696 .006545 .538910
5 1 .005746 .616223 .557197
6 1 .528803 .459348 .989212
7 1 .470926 .450467 .013161
ITEM: TIMESTEP
100
ITEM: NUMBER OF ATOMS
7
ITEM: BOX BOUNDS ss ss ss
-2.8738 3.3231
-2.8169 3.3009
-2.0675 1.8924
ITEM: ATOMS id type xs ys zs
1 1 .497585 .993084 .496938
2 1 .994347 .628454 .414598
3 1 .821134 .031211 .455481
4 1 .209474 .010457 .536630
5 1 .005858 .616634 .557422
6 1 .528631 .458490 .989138
7 1 .471766 .451340 .012458
ITEM: TIMESTEP
150
ITEM: NUMBER OF ATOMS
7
ITEM: BOX BOUNDS ss ss ss
-2.8773 3.3231
-2.8151 3.3024
-2.0675 1.8925
ITEM: ATOMS id type xs ys zs
1 1 .497858 .992809 .493107
2 1 .993707 .628316 .416041
3 1 .821568 .031024 .455564
4 1 .208474 .011945 .539878
5 1 .006660 .616420 .555408
6 1 .526897 .461168 .987867
7 1 .472379 .450292 .011048
ITEM: TIMESTEP
200
ITEM: NUMBER OF ATOMS
7
ITEM: BOX BOUNDS ss ss ss
-2.8840 3.3231
-2.8182 3.3001
-2.0675 1.8874
ITEM: ATOMS id type xs ys zs
1 1 .497576 .992225 .491241
2 1 .993409 .629595 .419071
3 1 .822349 .032012 .455814
4 1 .207986 .012292 .539782
5 1 .007738 .616888 .555534
6 1 .527802 .460776 .985125
7 1 .472679 .451659 .008534
ITEM: TIMESTEP
250
ITEM: NUMBER OF ATOMS
7
ITEM: BOX BOUNDS ss ss ss
-2.8976 3.3241
-2.8138 3.3049
-2.0694 1.8923
ITEM: ATOMS id type xs ys zs
1 1 .496746 .989926 .492894
2 1 .991806 .625446 .416208
3 1 .819717 .031218 .456212
4 1 .210246 .014162 .540754
5 1 .007614 .615704 .552413
6 1 .528945 .459782 .986275
7 1 .473096 .450306 .008921
ITEM: TIMESTEP
300
ITEM: NUMBER OF ATOMS
7
ITEM: BOX BOUNDS ss ss ss
-2.9006 3.3231
-2.8238 3.3029
-2.0827 1.8938
ITEM: ATOMS id type xs ys zs
1 1 .497153 .990424 .491890
2 1 .994125 .629036 .421209
3 1 .821540 .030342 .455875
4 1 .209841 .015969 .539667
5 1 .008673 .616908 .556275
6 1 .530631 .458834 .982128
7 1 .474901 .451633 .012848
ITEM: TIMESTEP
350
ITEM: NUMBER OF ATOMS
7
ITEM: BOX BOUNDS ss ss ss
-2.9000 3.3246
-2.8110 3.2982
-2.0935 1.8793
ITEM: ATOMS id type xs ys zs
1 1 .499180 .988963 .496943
2 1 .993135 .625752 .419583
3 1 .818457 .030151 .461602
4 1 .208385 .014861 .545254
5 1 .005884 .615446 .560922
6 1 .529066 .456731 .990796
7 1 .473366 .451855 .014856
ITEM: TIMESTEP
400
ITEM: NUMBER OF ATOMS
7
ITEM: BOX BOUNDS ss ss ss
-2.8966 3.3220
-2.8064 3.3139
-2.0926 1.8784
ITEM: ATOMS id type xs ys zs
1 1 .495685 .988604 .493855
2 1 .992780 .626629 .417068
3 1 .821564 .029538 .460339
4 1 .208439 .016079 .546027
5 1 .007269 .612937 .555472
6 1 .528267 .457012 .988655
7 1 .475388 .450181 .006932
ITEM: TIMESTEP
1
ITEM: NUMBER OF ATOMS
7
ITEM: BOX BOUNDS ss ss ss
-2.8803 3.3093
-2.7825 3.2717
-2.0813 1.8650
ITEM: ATOMS id type xs ys zs
1 1 .499794 .998416 .501989
2 1 .993853 .629133 .418457
3 1 .823464 .026533 .460004
4 1 .211749 .000787 .543128
5 1 .007051 .618075 .559601
6 1 .530468 .458155 .998848
7 1 .473253 .450204 .016249
ITEM: TIMESTEP
50
ITEM: NUMBER OF ATOMS
7
ITEM: BOX BOUNDS ss ss ss
-2.8803 3.3093
-2.8116 3.2907
-2.0813 1.8892
ITEM: ATOMS id type xs ys zs
1 1 .499181 .995775 .496999
2 1 .995169 .628622 .416325
3 1 .822004 .032641 .459117
4 1 .210092 .006608 .538502
5 1 .007245 .615686 .559403
6 1 .529831 .458805 .992232
7 1 .473793 .453003 .014089
ITEM: TIMESTEP
100
ITEM: NUMBER OF ATOMS
7
ITEM: BOX BOUNDS ss ss ss
-2.8803 3.3110
-2.8170 3.3040
-2.0813 1.8937
ITEM: ATOMS id type xs ys zs
1 1 .498569 .994155 .500257
2 1 .994060 .628416 .417364
3 1 .821979 .032604 .459942
4 1 .210958 .009131 .545974
5 1 .005504 .614550 .555026
6 1 .528750 .458988 .988841
7 1 .471578 .453799 .015525
ITEM: TIMESTEP
150
ITEM: NUMBER OF ATOMS
7
ITEM: BOX BOUNDS ss ss ss
-2.8803 3.3095
-2.8176 3.3061
-2.0813 1.8911
ITEM: ATOMS id type xs ys zs
1 1 .498906 .993208 .501622
2 1 .994690 .627198 .418921
3 1 .821700 .034575 .458685
4 1 .211132 .010487 .543021
5 1 .006842 .616304 .562668
6 1 .529778 .458894 .989141
7 1 .473143 .451695 .012148
ITEM: TIMESTEP
200
ITEM: NUMBER OF ATOMS
7
ITEM: BOX BOUNDS ss ss ss
-2.8918 3.3206
-2.8215 3.3057
-2.0813 1.8826
ITEM: ATOMS id type xs ys zs
1 1 .498818 .992593 .504121
2 1 .994296 .628388 .421243
3 1 .820113 .033093 .456752
4 1 .208973 .009568 .542872
5 1 .005860 .612344 .558896
6 1 .529890 .458014 .989117
7 1 .473009 .451438 .012070
ITEM: TIMESTEP
250
ITEM: NUMBER OF ATOMS
7
ITEM: BOX BOUNDS ss ss ss
-2.8915 3.3230
-2.8234 3.3146
-2.0813 1.8865
ITEM: ATOMS id type xs ys zs
1 1 .497150 .991647 .501154
2 1 .993626 .627324 .417276
3 1 .820804 .033694 .463980
4 1 .208778 .015754 .544374
5 1 .006135 .618904 .563708
6 1 .526826 .459396 .987539
7 1 .472050 .452774 .014869
ITEM: TIMESTEP
300
ITEM: NUMBER OF ATOMS
7
ITEM: BOX BOUNDS ss ss ss
-2.8943 3.3293
-2.8077 3.3205
-2.0813 1.8875
ITEM: ATOMS id type xs ys zs
1 1 .497890 .989069 .500875
2 1 .991606 .625200 .417232
3 1 .820480 .031210 .463674
4 1 .205850 .013724 .546486
5 1 .005804 .614192 .562888
6 1 .525830 .455925 .987246
7 1 .470465 .449278 .014156
ITEM: TIMESTEP
350
ITEM: NUMBER OF ATOMS
7
ITEM: BOX BOUNDS ss ss ss
-2.8990 3.3296
-2.8035 3.3150
-2.0813 1.8821
ITEM: ATOMS id type xs ys zs
1 1 .496556 .992500 .501545
2 1 .993478 .628228 .420787
3 1 .820658 .031851 .462737
4 1 .209925 .014655 .543277
5 1 .005828 .615944 .570711
6 1 .528423 .458179 .987615
7 1 .473421 .454329 .014528
ITEM: TIMESTEP
400
ITEM: NUMBER OF ATOMS
7
ITEM: BOX BOUNDS ss ss ss
-2.9015 3.3244
-2.8054 3.3057
-2.0813 1.8860
ITEM: ATOMS id type xs ys zs
1 1 .498924 .992974 .500888
2 1 .994213 .628578 .421465
3 1 .822218 .032105 .463097
4 1 .211416 .015671 .545213
5 1 .005897 .614203 .570978
6 1 .530070 .458407 .987944
7 1 .472635 .454619 .013977
ITEM: TIMESTEP
1
ITEM: NUMBER OF ATOMS
7
ITEM: BOX BOUNDS ss ss ss
-2.8899 3.3150
-2.7834 3.2897
-2.0813 1.8651
ITEM: ATOMS id type xs ys zs
1 1 .500118 .995459 .501999
2 1 .992944 .627321 .418427
3 1 .823003 .026634 .459995
4 1 .212771 .000930 .543083
5 1 .008572 .616325 .559594
6 1 .530712 .456901 .998846
7 1 .473648 .448962 .016252
ITEM: TIMESTEP
50
ITEM: NUMBER OF ATOMS
7
ITEM: BOX BOUNDS ss ss ss
-2.8899 3.3150
-2.8092 3.2919
-2.0813 1.8930
ITEM: ATOMS id type xs ys zs
1 1 .499631 .994476 .498938
2 1 .993808 .630398 .416123
3 1 .823192 .032109 .456853
4 1 .212770 .006199 .541018
5 1 .008224 .615651 .554836
6 1 .531190 .460037 .990730
7 1 .473707 .450969 .015946
ITEM: TIMESTEP
100
ITEM: NUMBER OF ATOMS
7
ITEM: BOX BOUNDS ss ss ss
-2.8899 3.3150
-2.8237 3.3077
-2.0813 1.8934
ITEM: ATOMS id type xs ys zs
1 1 .499120 .992432 .498893
2 1 .994918 .629389 .418334
3 1 .822738 .033912 .458013
4 1 .214708 .009702 .539392
5 1 .007805 .615399 .560136
6 1 .532883 .457707 .988142
7 1 .472707 .453080 .016481
ITEM: TIMESTEP
150
ITEM: NUMBER OF ATOMS
7
ITEM: BOX BOUNDS ss ss ss
-2.8899 3.3188
-2.8202 3.3107
-2.0813 1.8931
ITEM: ATOMS id type xs ys zs
1 1 .498704 .991388 .498595
2 1 .994602 .628496 .418581
3 1 .821981 .034982 .454125
4 1 .214175 .011582 .543006
5 1 .007783 .615673 .559910
6 1 .532078 .458540 .989380
7 1 .474592 .452174 .016804
ITEM: TIMESTEP
200
ITEM: NUMBER OF ATOMS
7
ITEM: BOX BOUNDS ss ss ss
-2.8899 3.3299
-2.8275 3.3029
-2.0813 1.8988
ITEM: ATOMS id type xs ys zs
1 1 .497445 .992088 .497093
2 1 .993274 .630009 .419179
3 1 .821438 .034662 .455207
4 1 .212263 .011587 .542873
5 1 .008584 .614752 .561499
6 1 .530533 .456627 .988271
7 1 .471842 .453994 .016178
ITEM: TIMESTEP
250
ITEM: NUMBER OF ATOMS
7
ITEM: BOX BOUNDS ss ss ss
-2.8907 3.3419
-2.8232 3.3117
-2.0813 1.8826
ITEM: ATOMS id type xs ys zs
1 1 .495839 .991661 .497379
2 1 .992558 .629048 .421781
3 1 .821964 .031824 .459423
4 1 .212767 .011786 .543508
5 1 .007533 .614239 .564295
6 1 .530379 .456411 .990880
7 1 .471475 .453404 .015774
ITEM: TIMESTEP
300
ITEM: NUMBER OF ATOMS
7
ITEM: BOX BOUNDS ss ss ss
-2.8913 3.3383
-2.8157 3.3129
-2.0813 1.8866
ITEM: ATOMS id type xs ys zs
1 1 .497153 .991656 .501407
2 1 .990512 .630684 .424230
3 1 .821155 .031898 .458525
4 1 .214845 .011380 .544048
5 1 .009761 .610322 .564523
6 1 .530862 .455787 .987849
7 1 .474534 .452240 .014231
ITEM: TIMESTEP
350
ITEM: NUMBER OF ATOMS
7
ITEM: BOX BOUNDS ss ss ss
-2.8862 3.3356
-2.8245 3.3129
-2.0813 1.8887
ITEM: ATOMS id type xs ys zs
1 1 .491156 .990901 .495644
2 1 .991229 .633707 .417025
3 1 .823031 .036145 .455789
4 1 .212662 .014929 .545448
5 1 .006755 .613807 .559351
6 1 .530833 .459029 .981626
7 1 .472741 .453191 .014419
ITEM: TIMESTEP
400
ITEM: NUMBER OF ATOMS
7
ITEM: BOX BOUNDS ss ss ss
-2.8871 3.3374
-2.8104 3.3147
-2.0844 1.8892
ITEM: ATOMS id type xs ys zs
1 1 .492321 .990645 .496277
2 1 .989745 .632369 .419664
3 1 .822072 .033289 .455607
4 1 .212732 .012776 .546155
5 1 .006347 .611551 .562414
6 1 .531602 .456787 .982823
7 1 .471564 .452794 .012717
ITEM: TIMESTEP
1
ITEM: NUMBER OF ATOMS
7
ITEM: BOX BOUNDS ss ss ss
-2.8803 3.3146
-2.7829 3.2822
-2.0676 1.8696
ITEM: ATOMS id type xs ys zs
1 1 .499370 .996708 .499697
2 1 .992989 .628044 .415910
3 1 .822763 .026592 .457594
4 1 .211569 .000854 .540907
5 1 .007034 .617054 .557390
6 1 .530009 .457412 .997687
7 1 .472854 .449480 .012784
ITEM: TIMESTEP
50
ITEM: NUMBER OF ATOMS
7
ITEM: BOX BOUNDS ss ss ss
-2.8803 3.3146
-2.8099 3.2928
-2.0676 1.8913
ITEM: ATOMS id type xs ys zs
1 1 .499663 .993516 .499320
2 1 .992327 .629116 .413575
3 1 .824300 .031102 .454958
4 1 .209500 .007460 .540054
5 1 .006598 .616528 .556168
6 1 .528347 .458391 .991350
7 1 .473268 .451459 .011794
ITEM: TIMESTEP
100
ITEM: NUMBER OF ATOMS
7
ITEM: BOX BOUNDS ss ss ss
-2.8803 3.3146
-2.8236 3.3028
-2.0676 1.8963
ITEM: ATOMS id type xs ys zs
1 1 .499546 .991968 .499140
2 1 .992117 .628312 .414368
3 1 .824214 .031557 .454033
4 1 .210628 .009736 .539650
5 1 .007510 .616715 .556647
6 1 .527601 .457511 .988594
7 1 .473087 .452487 .010056
ITEM: TIMESTEP
150
ITEM: NUMBER OF ATOMS
7
ITEM: BOX BOUNDS ss ss ss
-2.8803 3.3146
-2.8229 3.3012
-2.0676 1.8914
ITEM: ATOMS id type xs ys zs
1 1 .497130 .992966 .500968
2 1 .992068 .626940 .413585
3 1 .823323 .032096 .456351
4 1 .209970 .011074 .538701
5 1 .006248 .616781 .557179
6 1 .528115 .456882 .985429
7 1 .471638 .452517 .007349
ITEM: TIMESTEP
200
ITEM: NUMBER OF ATOMS
7
ITEM: BOX BOUNDS ss ss ss
-2.8803 3.3153
-2.8188 3.3086
-2.0710 1.8850
ITEM: ATOMS id type xs ys zs
1 1 .498714 .990740 .501500
2 1 .992941 .626365 .417676
3 1 .823914 .030488 .457666
4 1 .210300 .010519 .541045
5 1 .006118 .614961 .557480
6 1 .528622 .456545 .987496
7 1 .472292 .450124 .009685
ITEM: TIMESTEP
250
ITEM: NUMBER OF ATOMS
7
ITEM: BOX BOUNDS ss ss ss
-2.8803 3.3146
-2.8127 3.3084
-2.0820 1.8834
ITEM: ATOMS id type xs ys zs
1 1 .498627 .991806 .503130
2 1 .993159 .626051 .417630
3 1 .822956 .029927 .459370
4 1 .210027 .010549 .541308
5 1 .004888 .615539 .561140
6 1 .527688 .455775 .987260
7 1 .471356 .451696 .012162
ITEM: TIMESTEP
300
ITEM: NUMBER OF ATOMS
7
ITEM: BOX BOUNDS ss ss ss
-2.8835 3.3146
-2.8189 3.3038
-2.0808 1.8835
ITEM: ATOMS id type xs ys zs
1 1 .498277 .992462 .499363
2 1 .992359 .626131 .417892
3 1 .822287 .031997 .460380
4 1 .209008 .014003 .538050
5 1 .007784 .618128 .564676
6 1 .527885 .455737 .989323
7 1 .471731 .451380 .008239
ITEM: TIMESTEP
350
ITEM: NUMBER OF ATOMS
7
ITEM: BOX BOUNDS ss ss ss
-2.8961 3.3213
-2.8139 3.3129
-2.0859 1.8853
ITEM: ATOMS id type xs ys zs
1 1 .497599 .991672 .503978
2 1 .993197 .625891 .414653
3 1 .823186 .029316 .460724
4 1 .211039 .013618 .539551
5 1 .006684 .614656 .559614
6 1 .530150 .455329 .985088
7 1 .472583 .451655 .013022
ITEM: TIMESTEP
400
ITEM: NUMBER OF ATOMS
7
ITEM: BOX BOUNDS ss ss ss
-2.9048 3.3244
-2.8270 3.3106
-2.0870 1.8841
ITEM: ATOMS id type xs ys zs
1 1 .498640 .990057 .498849
2 1 .993861 .624352 .421954
3 1 .821365 .031359 .462064
4 1 .211396 .013633 .543194
5 1 .009237 .614086 .557328
6 1 .528981 .456495 .988274
7 1 .473819 .450262 .011224
ITEM: TIMESTEP
1
ITEM: NUMBER OF ATOMS
7
ITEM: BOX BOUNDS ss ss ss
-2.8789 3.3217
-2.7912 3.2754
-2.0670 1.8655
ITEM: ATOMS id type xs ys zs
1 1 .498681 .997821 .500101
2 1 .991871 .629270 .416264
3 1 .821784 .027938 .457980
4 1 .211149 .002203 .541408
5 1 .006809 .618278 .557971
6 1 .529286 .458663 .998686
7 1 .472184 .450750 .012670
ITEM: TIMESTEP
50
ITEM: NUMBER OF ATOMS
7
ITEM: BOX BOUNDS ss ss ss
-2.8789 3.3217
-2.8104 3.2921
-2.0670 1.8921
ITEM: ATOMS id type xs ys zs
1 1 .498534 .995157 .495213
2 1 .992141 .628505 .414861
3 1 .820677 .030768 .454381
4 1 .208982 .006811 .537912
5 1 .007922 .618121 .557399
6 1 .530140 .458804 .989287
7 1 .471532 .451658 .011123
ITEM: TIMESTEP
100
ITEM: NUMBER OF ATOMS
7
ITEM: BOX BOUNDS ss ss ss
-2.8789 3.3217
-2.8211 3.3016
-2.0670 1.9039
ITEM: ATOMS id type xs ys zs
1 1 .498543 .991481 .493547
2 1 .991180 .627041 .412812
3 1 .822412 .033729 .451254
4 1 .208731 .008958 .535825
5 1 .008882 .615868 .555046
6 1 .530582 .459458 .987761
7 1 .471290 .451820 .009263
ITEM: TIMESTEP
150
ITEM: NUMBER OF ATOMS
7
ITEM: BOX BOUNDS ss ss ss
-2.8808 3.3217
-2.8215 3.3110
-2.0670 1.8977
ITEM: ATOMS id type xs ys zs
1 1 .496691 .990263 .492981
2 1 .990095 .627830 .416575
3 1 .822129 .031494 .456557
4 1 .211583 .008685 .540363
5 1 .007336 .617263 .556248
6 1 .527681 .457859 .986872
7 1 .472580 .450316 .010466
ITEM: TIMESTEP
200
ITEM: NUMBER OF ATOMS
7
ITEM: BOX BOUNDS ss ss ss
-2.8837 3.3217
-2.8273 3.3129
-2.0745 1.8939
ITEM: ATOMS id type xs ys zs
1 1 .497806 .989420 .496876
2 1 .992332 .629117 .413016
3 1 .822302 .034891 .455251
4 1 .212733 .010092 .540729
5 1 .007116 .616218 .557193
6 1 .529226 .455663 .988193
7 1 .471190 .451923 .005841
ITEM: TIMESTEP
250
ITEM: NUMBER OF ATOMS
7
ITEM: BOX BOUNDS ss ss ss
-2.8975 3.3217
-2.8387 3.3152
-2.0807 1.9119
ITEM: ATOMS id type xs ys zs
1 1 .498898 .989877 .497686
2 1 .993505 .629335 .412393
3 1 .822099 .037092 .453269
4 1 .212676 .012788 .540818
5 1 .009071 .615692 .556635
6 1 .530063 .455775 .983894
7 1 .472091 .452836 .009242
ITEM: TIMESTEP
300
ITEM: NUMBER OF ATOMS
7
ITEM: BOX BOUNDS ss ss ss
-2.8930 3.3233
-2.8290 3.3156
-2.0904 1.8917
ITEM: ATOMS id type xs ys zs
1 1 .497569 .988634 .499759
2 1 .993225 .630380 .419224
3 1 .823859 .037097 .454083
4 1 .212878 .010578 .546546
5 1 .007249 .615782 .559006
6 1 .530216 .454324 .989254
7 1 .473690 .450171 .012368
ITEM: TIMESTEP
350
ITEM: NUMBER OF ATOMS
7
ITEM: BOX BOUNDS ss ss ss
-2.9032 3.3217
-2.8268 3.3157
-2.0834 1.8908
ITEM: ATOMS id type xs ys zs
1 1 .499603 .987643 .499335
2 1 .992222 .627522 .412496
3 1 .824276 .036029 .458608
4 1 .214111 .012003 .542573
5 1 .010384 .612829 .559936
6 1 .527751 .454322 .991299
7 1 .473345 .451228 .009292
ITEM: TIMESTEP
400
ITEM: NUMBER OF ATOMS
7
ITEM: BOX BOUNDS ss ss ss
-2.9121 3.3217
-2.8346 3.3153
-2.0900 1.8875
ITEM: ATOMS id type xs ys zs
1 1 .500359 .987916 .504145
2 1 .992599 .628130 .418383
3 1 .827831 .034876 .454892
4 1 .215324 .012918 .544652
5 1 .011554 .615640 .559507
6 1 .532653 .453766 .987292
7 1 .473877 .450260 .013913
ITEM: TIMESTEP
1
ITEM: NUMBER OF ATOMS
7
ITEM: BOX BOUNDS ss ss ss
-2.8789 3.3217
-2.7912 3.2808
-2.0698 1.8651
ITEM: ATOMS id type xs ys zs
1 1 .498694 .996930 .500507
2 1 .991879 .628752 .416743
3 1 .821774 .027920 .458423
4 1 .211114 .002234 .541799
5 1 .006782 .617734 .558322
6 1 .529307 .458277 .998812
7 1 .472232 .450332 .013422
ITEM: TIMESTEP
50
ITEM: NUMBER OF ATOMS
7
ITEM: BOX BOUNDS ss ss ss
-2.8789 3.3217
-2.8117 3.2954
-2.0698 1.8931
ITEM: ATOMS id type xs ys zs
1 1 .499622 .993276 .496579
2 1 .992431 .629976 .414361
3 1 .822934 .031917 .455819
4 1 .211789 .006584 .539529
5 1 .005048 .616421 .553593
6 1 .527288 .457969 .989532
7 1 .474230 .450549 .011853
ITEM: TIMESTEP
100
ITEM: NUMBER OF ATOMS
7
ITEM: BOX BOUNDS ss ss ss
-2.8789 3.3217
-2.8229 3.3091
-2.0698 1.8968
ITEM: ATOMS id type xs ys zs
1 1 .498174 .988825 .497159
2 1 .991299 .629653 .414417
3 1 .823429 .032462 .457549
4 1 .210683 .009398 .537383
5 1 .005396 .615348 .551601
6 1 .528041 .458648 .989359
7 1 .474432 .449378 .011104
ITEM: TIMESTEP
150
ITEM: NUMBER OF ATOMS
7
ITEM: BOX BOUNDS ss ss ss
-2.8798 3.3217
-2.8278 3.3178
-2.0698 1.8986
ITEM: ATOMS id type xs ys zs
1 1 .497640 .989384 .494559
2 1 .992866 .628485 .414330
3 1 .822766 .034190 .454611
4 1 .209417 .010805 .538115
5 1 .006324 .615950 .554313
6 1 .528668 .460575 .985090
7 1 .473830 .449631 .010425
ITEM: TIMESTEP
200
ITEM: NUMBER OF ATOMS
7
ITEM: BOX BOUNDS ss ss ss
-2.8789 3.3217
-2.8366 3.3036
-2.0698 1.9018
ITEM: ATOMS id type xs ys zs
1 1 .495599 .992497 .496377
2 1 .992913 .631935 .414376
3 1 .822748 .035627 .452362
4 1 .208540 .013938 .532878
5 1 .007130 .615151 .555500
6 1 .527359 .463345 .982275
7 1 .473725 .452179 .009305
ITEM: TIMESTEP
250
ITEM: NUMBER OF ATOMS
7
ITEM: BOX BOUNDS ss ss ss
-2.8889 3.3217
-2.8202 3.3011
-2.0753 1.9013
ITEM: ATOMS id type xs ys zs
1 1 .496511 .993501 .496461
2 1 .992216 .631580 .415846
3 1 .820572 .032503 .453521
4 1 .209484 .011061 .535837
5 1 .007310 .614392 .553274
6 1 .528755 .462315 .981483
7 1 .474191 .450711 .009358
ITEM: TIMESTEP
300
ITEM: NUMBER OF ATOMS
7
ITEM: BOX BOUNDS ss ss ss
-2.8903 3.3217
-2.8258 3.3038
-2.0810 1.8982
ITEM: ATOMS id type xs ys zs
1 1 .494513 .992676 .495663
2 1 .991878 .632211 .417628
3 1 .821466 .032035 .456173
4 1 .210077 .010501 .536868
5 1 .006299 .614557 .553981
6 1 .528614 .461180 .980335
7 1 .475269 .452130 .011147
ITEM: TIMESTEP
350
ITEM: NUMBER OF ATOMS
7
ITEM: BOX BOUNDS ss ss ss
-2.8926 3.3219
-2.8353 3.3067
-2.0876 1.8937
ITEM: ATOMS id type xs ys zs
1 1 .499176 .985487 .499904
2 1 .994381 .630112 .421780
3 1 .825570 .036883 .472007
4 1 .213962 .014628 .537468
5 1 .007236 .615693 .555974
6 1 .526716 .459043 .986928
7 1 .475841 .449564 .013319
ITEM: TIMESTEP
400
ITEM: NUMBER OF ATOMS
7
ITEM: BOX BOUNDS ss ss ss
-2.8955 3.3217
-2.8231 3.2949
-2.0878 1.8864
ITEM: ATOMS id type xs ys zs
1 1 .499012 .986158 .500534
2 1 .994154 .629730 .422274
3 1 .826840 .035211 .471562
4 1 .214491 .012840 .536361
5 1 .008566 .614589 .557828
6 1 .527199 .458414 .989125
7 1 .476948 .449621 .011221
ITEM: TIMESTEP
1
ITEM: NUMBER OF ATOMS
7
ITEM: BOX BOUNDS ss ss ss
-2.8789 3.3217
-2.7912 3.2754
-2.0670 1.8651
ITEM: ATOMS id type xs ys zs
1 1 .498657 .997831 .500205
2 1 .991824 .629296 .416300
3 1 .821799 .027947 .458057
4 1 .211100 .002247 .541484
5 1 .006790 .618186 .558076
6 1 .529297 .458681 .998801
7 1 .472135 .450732 .012615
ITEM: TIMESTEP
50
ITEM: NUMBER OF ATOMS
7
ITEM: BOX BOUNDS ss ss ss
-2.8789 3.3217
-2.8121 3.2951
-2.0670 1.8920
ITEM: ATOMS id type xs ys zs
1 1 .498199 .992852 .494478
2 1 .991415 .628641 .412903
3 1 .821140 .030532 .458426
4 1 .208952 .007607 .537492
5 1 .006449 .617448 .556068
6 1 .530628 .458994 .992508
7 1 .471990 .450110 .010154
ITEM: TIMESTEP
100
ITEM: NUMBER OF ATOMS
7
ITEM: BOX BOUNDS ss ss ss
-2.8789 3.3217
-2.8281 3.3050
-2.0670 1.9020
ITEM: ATOMS id type xs ys zs
1 1 .499185 .992778 .493432
2 1 .990176 .631910 .414202
3 1 .822299 .036125 .458429
4 1 .211337 .011575 .541606
5 1 .007187 .616330 .556316
6 1 .529010 .460651 .988632
7 1 .473375 .450412 .013331
ITEM: TIMESTEP
150
ITEM: NUMBER OF ATOMS
7
ITEM: BOX BOUNDS ss ss ss
-2.8789 3.3217
-2.8347 3.3125
-2.0670 1.9000
ITEM: ATOMS id type xs ys zs
1 1 .497276 .991073 .498463
2 1 .993102 .629915 .411075
3 1 .822514 .034732 .450649
4 1 .210649 .010292 .533273
5 1 .003890 .613448 .552091
6 1 .527653 .455925 .984701
7 1 .474649 .453334 .011971
ITEM: TIMESTEP
200
ITEM: NUMBER OF ATOMS
7
ITEM: BOX BOUNDS ss ss ss
-2.8867 3.3217
-2.8382 3.3187
-2.0690 1.8971
ITEM: ATOMS id type xs ys zs
1 1 .498027 .988548 .499317
2 1 .994632 .629475 .409612
3 1 .822899 .033219 .453602
4 1 .211230 .011425 .537217
5 1 .005880 .615494 .551697
6 1 .528773 .454885 .982673
7 1 .475196 .454270 .010180
ITEM: TIMESTEP
250
ITEM: NUMBER OF ATOMS
7
ITEM: BOX BOUNDS ss ss ss
-2.8838 3.3217
-2.8418 3.3116
-2.0802 1.8888
ITEM: ATOMS id type xs ys zs
1 1 .497208 .988911 .502496
2 1 .995955 .628153 .415826
3 1 .823881 .032143 .455820
4 1 .213766 .013237 .536369
5 1 .004033 .614630 .552136
6 1 .527660 .455666 .986987
7 1 .473720 .456095 .014379
ITEM: TIMESTEP
300
ITEM: NUMBER OF ATOMS
7
ITEM: BOX BOUNDS ss ss ss
-2.8880 3.3230
-2.8258 3.3143
-2.0670 1.8913
ITEM: ATOMS id type xs ys zs
1 1 .496506 .986213 .499326
2 1 .995379 .628305 .411489
3 1 .824839 .030600 .455391
4 1 .213052 .011271 .534996
5 1 .004844 .612638 .552585
6 1 .527631 .453637 .988807
7 1 .472781 .454520 .008456
ITEM: TIMESTEP
350
ITEM: NUMBER OF ATOMS
7
ITEM: BOX BOUNDS ss ss ss
-2.8958 3.3311
-2.8315 3.3177
-2.0696 1.8957
ITEM: ATOMS id type xs ys zs
1 1 .498212 .989434 .504802
2 1 .992056 .628169 .414496
3 1 .823437 .033182 .453074
4 1 .211517 .010305 .533244
5 1 .006800 .615438 .554717
6 1 .528238 .455342 .983040
7 1 .474220 .452137 .005451
ITEM: TIMESTEP
400
ITEM: NUMBER OF ATOMS
7
ITEM: BOX BOUNDS ss ss ss
-2.9041 3.3313
-2.8276 3.3072
-2.0684 1.8943
ITEM: ATOMS id type xs ys zs
1 1 .499049 .989972 .496992
2 1 .993482 .626518 .421077
3 1 .821497 .031147 .450770
4 1 .214214 .009166 .536159
5 1 .009884 .610769 .559976
6 1 .527961 .455068 .980538
7 1 .471713 .457288 .007783
ITEM: TIMESTEP
1
ITEM: NUMBER OF ATOMS
7
ITEM: BOX BOUNDS ss ss ss
-2.8963 3.3217
-2.8083 3.2815
-2.0670 1.8649
ITEM: ATOMS id type xs ys zs
1 1 .500100 .996846 .500259
2 1 .991904 .629701 .416303
3 1 .822292 .030638 .458095
4 1 .213367 .005038 .541487
5 1 .009580 .618726 .557979
6 1 .530638 .459735 .998837
7 1 .473672 .451822 .012658
ITEM: TIMESTEP
50
ITEM: NUMBER OF ATOMS
7
ITEM: BOX BOUNDS ss ss ss
-2.8963 3.3217
-2.8195 3.2952
-2.0670 1.8908
ITEM: ATOMS id type xs ys zs
1 1 .499838 .993196 .495653
2 1 .992726 .629182 .412535
3 1 .819942 .032457 .457875
4 1 .213197 .008452 .537972
5 1 .010704 .617832 .555358
6 1 .531533 .458668 .992214
7 1 .474852 .451506 .011323
ITEM: TIMESTEP
100
ITEM: NUMBER OF ATOMS
7
ITEM: BOX BOUNDS ss ss ss
-2.8963 3.3217
-2.8291 3.3107
-2.0670 1.8950
ITEM: ATOMS id type xs ys zs
1 1 .500653 .989367 .492956
2 1 .993172 .627279 .412296
3 1 .820963 .031755 .460273
4 1 .214050 .011144 .538587
5 1 .011630 .616209 .554925
6 1 .531357 .457655 .992611
7 1 .475532 .452196 .010877
ITEM: TIMESTEP
150
ITEM: NUMBER OF ATOMS
7
ITEM: BOX BOUNDS ss ss ss
-2.8963 3.3217
-2.8360 3.3152
-2.0670 1.8942
ITEM: ATOMS id type xs ys zs
1 1 .501084 .988409 .491291
2 1 .995758 .627313 .411995
3 1 .821031 .032715 .458877
4 1 .212575 .011297 .539819
5 1 .012207 .614468 .559724
6 1 .533997 .458711 .988807
7 1 .475748 .449888 .010870
ITEM: TIMESTEP
200
ITEM: NUMBER OF ATOMS
7
ITEM: BOX BOUNDS ss ss ss
-2.8963 3.3300
-2.8198 3.3162
-2.0670 1.8950
ITEM: ATOMS id type xs ys zs
1 1 .496422 .987561 .494375
2 1 .993019 .628129 .413924
3 1 .820192 .032554 .457593
4 1 .212303 .010712 .540111
5 1 .011232 .612944 .554963
6 1 .531853 .455656 .992858
7 1 .473765 .450970 .010873
ITEM: TIMESTEP
250
ITEM: NUMBER OF ATOMS
7
ITEM: BOX BOUNDS ss ss ss
-2.8963 3.3275
-2.8266 3.3220
-2.0670 1.8910
ITEM: ATOMS id type xs ys zs
1 1 .499948 .989472 .495413
2 1 .994169 .626013 .416509
3 1 .821443 .032014 .460966
4 1 .212395 .011903 .539507
5 1 .010131 .613870 .555238
6 1 .531956 .458549 .985397
7 1 .475229 .449054 .007864
ITEM: TIMESTEP
300
ITEM: NUMBER OF ATOMS
7
ITEM: BOX BOUNDS ss ss ss
-2.9015 3.3293
-2.8291 3.3212
-2.0670 1.8806
ITEM: ATOMS id type xs ys zs
1 1 .500997 .990801 .497258
2 1 .994263 .627161 .417596
3 1 .821708 .031685 .461768
4 1 .212371 .012425 .540417
5 1 .010964 .614407 .555201
6 1 .531003 .458995 .987933
7 1 .475789 .450901 .008442
ITEM: TIMESTEP
350
ITEM: NUMBER OF ATOMS
7
ITEM: BOX BOUNDS ss ss ss
-2.9180 3.3334
-2.8270 3.3322
-2.0701 1.8841
ITEM: ATOMS id type xs ys zs
1 1 .501070 .991230 .501782