ITEM: TIMESTEP
1
ITEM: NUMBER OF ATOMS
7
ITEM: BOX BOUNDS ss ss ss
-2.8404 3.2752
-2.7827 3.2665
-2.0206 1.8652
ITEM: ATOMS id type xs ys zs
1 1 .499350 .999371 .494213
2 1 .999260 .629652 .409237
3 1 .826906 .026614 .451482
4 1 .207807 .000616 .535871
5 1 .000624 .618738 .552575
6 1 .530356 .458640 .998979
7 1 .472434 .450600 .000997
ITEM: TIMESTEP
50
ITEM: NUMBER OF ATOMS
7
ITEM: BOX BOUNDS ss ss ss
-2.8654 3.2963
-2.8080 3.2890
-2.0410 1.8872
ITEM: ATOMS id type xs ys zs
1 1 .499824 .995850 .494244
2 1 .995832 .628914 .409921
3 1 .824769 .030554 .451897
4 1 .210553 .004588 .535241
5 1 .004793 .618236 .551737
6 1 .530222 .459129 .993230
7 1 .472745 .451120 .006322
ITEM: TIMESTEP
100
ITEM: NUMBER OF ATOMS
7
ITEM: BOX BOUNDS ss ss ss
-2.8672 3.3061
-2.8122 3.2998
-2.0522 1.8947
ITEM: ATOMS id type xs ys zs
1 1 .499374 .993908 .495068
2 1 .994455 .628417 .411012
3 1 .823614 .031170 .453148
4 1 .210711 .005902 .536129
5 1 .004956 .617220 .552430
6 1 .529031 .458261 .990020
7 1 .471892 .450652 .008412
ITEM: TIMESTEP
150
ITEM: NUMBER OF ATOMS
7
ITEM: BOX BOUNDS ss ss ss
-2.8738 3.3141
-2.8166 3.3032
-2.0632 1.8903
ITEM: ATOMS id type xs ys zs
1 1 .499558 .992812 .498510
2 1 .993247 .628629 .413471
3 1 .823380 .032054 .456338
4 1 .211683 .007754 .539498
5 1 .005917 .616724 .554979
6 1 .528397 .457506 .989775
7 1 .471918 .450527 .009833
ITEM: TIMESTEP
200
ITEM: NUMBER OF ATOMS
7
ITEM: BOX BOUNDS ss ss ss
-2.8843 3.3085
-2.8145 3.2975
-2.0731 1.8856
ITEM: ATOMS id type xs ys zs
1 1 .501117 .993474 .501932
2 1 .994317 .629272 .415705
3 1 .825357 .032120 .459116
4 1 .213501 .008683 .542415
5 1 .007540 .617269 .557430
6 1 .529371 .457129 .989655
7 1 .473453 .450843 .011125
ITEM: TIMESTEP
250
ITEM: NUMBER OF ATOMS
7
ITEM: BOX BOUNDS ss ss ss
-2.8855 3.3158
-2.8111 3.3005
-2.0755 1.8922
ITEM: ATOMS id type xs ys zs
1 1 .500589 .992622 .502455
2 1 .993629 .628847 .415381
3 1 .824936 .031793 .459318
4 1 .213270 .008935 .542280
5 1 .007721 .616671 .556919
6 1 .529031 .456378 .987013
7 1 .473190 .450630 .010692
ITEM: TIMESTEP
300
ITEM: NUMBER OF ATOMS
7
ITEM: BOX BOUNDS ss ss ss
-2.8944 3.3259
-2.8057 3.3049
-2.0774 1.8933
ITEM: ATOMS id type xs ys zs
1 1 .500233 .991069 .503118
2 1 .992727 .628310 .415525
3 1 .824185 .031246 .459730
4 1 .213482 .008783 .541590
5 1 .008820 .615095 .557383
6 1 .529168 .455358 .985762
7 1 .473510 .450210 .010697
ITEM: TIMESTEP
350
ITEM: NUMBER OF ATOMS
7
ITEM: BOX BOUNDS ss ss ss
-2.8864 3.3413
-2.8018 3.2978
-2.0901 1.8812
ITEM: ATOMS id type xs ys zs
1 1 .497708 .991463 .506833
2 1 .991222 .629186 .418880
3 1 .822226 .031045 .462665
4 1 .211149 .008924 .543272
5 1 .007161 .614519 .561414
6 1 .527625 .455006 .987888
7 1 .472151 .451024 .013708
ITEM: TIMESTEP
400
ITEM: NUMBER OF ATOMS
7
ITEM: BOX BOUNDS ss ss ss
-2.8928 3.3398
-2.7913 3.2921
-2.0959 1.8824
ITEM: ATOMS id type xs ys zs
1 1 .497886 .991659 .507512
2 1 .992148 .629459 .419421
3 1 .822635 .029408 .463011
4 1 .211187 .007883 .542408
5 1 .007920 .613895 .562447
6 1 .528616 .453862 .986579
7 1 .473146 .450858 .014581
ITEM: TIMESTEP
1
ITEM: NUMBER OF ATOMS
7
ITEM: BOX BOUNDS ss ss ss
-2.8757 3.3340
-2.7825 3.2681
-2.0749 1.8650
ITEM: ATOMS id type xs ys zs
1 1 .497475 .999117 .501224
2 1 .989816 .629479 .417413
3 1 .820070 .026580 .459078
4 1 .210346 .000590 .542308
5 1 .006302 .618571 .558782
6 1 .528007 .458507 .999065
7 1 .470964 .450471 .014779
ITEM: TIMESTEP
50
ITEM: NUMBER OF ATOMS
7
ITEM: BOX BOUNDS ss ss ss
-2.8757 3.3340
-2.8079 3.2923
-2.0749 1.8895
ITEM: ATOMS id type xs ys zs
1 1 .497635 .995352 .498256
2 1 .989742 .628550 .414658
3 1 .820091 .030456 .456261
4 1 .210601 .004423 .538903
5 1 .006414 .617986 .555190
6 1 .527771 .458912 .992839
7 1 .470727 .450846 .014974
ITEM: TIMESTEP
100
ITEM: NUMBER OF ATOMS
7
ITEM: BOX BOUNDS ss ss ss
-2.8757 3.3340
-2.8112 3.3005
-2.0749 1.8915
ITEM: ATOMS id type xs ys zs
1 1 .497884 .993706 .498450
2 1 .990161 .628137 .414651
3 1 .820230 .030868 .456574
4 1 .210804 .005526 .539396
5 1 .006225 .617267 .555210
6 1 .527374 .458050 .990851
7 1 .470497 .450390 .014455
ITEM: TIMESTEP
150
ITEM: NUMBER OF ATOMS
7
ITEM: BOX BOUNDS ss ss ss
-2.8894 3.3340
-2.8194 3.3059
-2.0749 1.8895
ITEM: ATOMS id type xs ys zs
1 1 .499232 .992085 .498406
2 1 .990832 .628099 .415830
3 1 .821019 .032411 .457292
4 1 .212569 .007736 .540895
5 1 .008360 .617005 .556232
6 1 .528403 .457688 .989432
7 1 .471693 .450501 .013574
ITEM: TIMESTEP
200
ITEM: NUMBER OF ATOMS
7
ITEM: BOX BOUNDS ss ss ss
-2.8938 3.3340
-2.8194 3.2971
-2.0749 1.8901
ITEM: ATOMS id type xs ys zs
1 1 .499505 .993099 .497610
2 1 .991790 .629199 .416423
3 1 .821252 .032710 .459266
4 1 .212272 .009706 .542601
5 1 .009353 .618298 .557274
6 1 .528516 .457969 .988600
7 1 .472926 .451165 .013362
ITEM: TIMESTEP
250
ITEM: NUMBER OF ATOMS
7
ITEM: BOX BOUNDS ss ss ss
-2.8786 3.3340
-2.8126 3.3049
-2.0749 1.8933
ITEM: ATOMS id type xs ys zs
1 1 .498333 .991391 .497254
2 1 .992632 .627966 .415958
3 1 .821028 .031392 .460489
4 1 .209278 .010707 .543494
5 1 .006871 .617143 .557457
6 1 .527496 .456916 .987501
7 1 .472491 .449997 .013341
ITEM: TIMESTEP
300
ITEM: NUMBER OF ATOMS
7
ITEM: BOX BOUNDS ss ss ss
-2.8816 3.3340
-2.8010 3.2950
-2.0749 1.8893
ITEM: ATOMS id type xs ys zs
1 1 .498349 .992041 .498275
2 1 .992974 .627439 .417715
3 1 .821314 .029166 .461815
4 1 .209878 .010538 .543753
5 1 .007026 .615179 .558126
6 1 .528552 .456986 .988566
7 1 .473549 .450358 .011870
ITEM: TIMESTEP
350
ITEM: NUMBER OF ATOMS
7
ITEM: BOX BOUNDS ss ss ss
-2.8804 3.3340
-2.7869 3.2860
-2.0763 1.8863
ITEM: ATOMS id type xs ys zs
1 1 .497797 .992941 .499177
2 1 .993160 .627597 .419131
3 1 .821101 .026956 .463649
4 1 .209552 .009288 .543588
5 1 .006576 .614000 .559579
6 1 .528636 .456391 .989398
7 1 .473788 .450306 .011356
ITEM: TIMESTEP
400
ITEM: NUMBER OF ATOMS
7
ITEM: BOX BOUNDS ss ss ss
-2.8838 3.3418
-2.7737 3.2856
-2.0799 1.8877
ITEM: ATOMS id type xs ys zs
1 1 .496803 .992311 .499738
2 1 .992106 .627514 .419953
3 1 .819995 .025173 .465739
4 1 .209076 .008211 .542558
5 1 .006962 .612744 .560976
6 1 .528320 .454743 .988942
7 1 .473857 .449546 .011113
ITEM: TIMESTEP
1
ITEM: NUMBER OF ATOMS
7
ITEM: BOX BOUNDS ss ss ss
-2.8738 3.3231
-2.7823 3.2663
-2.0675 1.8688
ITEM: ATOMS id type xs ys zs
1 1 .498199 .999413 .499784
2 1 .991549 .629652 .415889
3 1 .821455 .026555 .457598
4 1 .210482 .000550 .540901
5 1 .006017 .618746 .557392
6 1 .528793 .458628 .998077
7 1 .471634 .450586 .012893
ITEM: TIMESTEP
50
ITEM: NUMBER OF ATOMS
7
ITEM: BOX BOUNDS ss ss ss
-2.8738 3.3231
-2.8094 3.2916
-2.0675 1.8893
ITEM: ATOMS id type xs ys zs
1 1 .498351 .995513 .497328
2 1 .991417 .628675 .413512
3 1 .821440 .030715 .455178
4 1 .210744 .004511 .537916
5 1 .006153 .618165 .554278
6 1 .528591 .459197 .993027
7 1 .471405 .451014 .013178
ITEM: TIMESTEP
100
ITEM: NUMBER OF ATOMS
7
ITEM: BOX BOUNDS ss ss ss
-2.8738 3.3231
-2.8169 3.3009
-2.0675 1.8924
ITEM: ATOMS id type xs ys zs
1 1 .498358 .993750 .497009
2 1 .991878 .628254 .413312
3 1 .821552 .031699 .455382
4 1 .211262 .006177 .538104
5 1 .005880 .617668 .554816
6 1 .528185 .458806 .990625
7 1 .471007 .451035 .012865
ITEM: TIMESTEP
150
ITEM: NUMBER OF ATOMS
7
ITEM: BOX BOUNDS ss ss ss
-2.8773 3.3231
-2.8151 3.3024
-2.0675 1.8925
ITEM: ATOMS id type xs ys zs
1 1 .498430 .993372 .497247
2 1 .992332 .627804 .412924
3 1 .821958 .030964 .456011
4 1 .212235 .006442 .539343
5 1 .005639 .617233 .556471
6 1 .528464 .458023 .988147
7 1 .470876 .450890 .012617
ITEM: TIMESTEP
200
ITEM: NUMBER OF ATOMS
7
ITEM: BOX BOUNDS ss ss ss
-2.8840 3.3231
-2.8182 3.3001
-2.0675 1.8874
ITEM: ATOMS id type xs ys zs
1 1 .498555 .993357 .498289
2 1 .992629 .628132 .412893
3 1 .822447 .031036 .457239
4 1 .213020 .007416 .540631
5 1 .006076 .617630 .558504
6 1 .528728 .458209 .987275
7 1 .471118 .451110 .012073
ITEM: TIMESTEP
250
ITEM: NUMBER OF ATOMS
7
ITEM: BOX BOUNDS ss ss ss
-2.8976 3.3241
-2.8138 3.3049
-2.0694 1.8923
ITEM: ATOMS id type xs ys zs
1 1 .499119 .992101 .497167
2 1 .992506 .627565 .412935
3 1 .822740 .030405 .456635
4 1 .214027 .007516 .539797
5 1 .007671 .616475 .558302
6 1 .529261 .457412 .984834
7 1 .472131 .450294 .011572
ITEM: TIMESTEP
300
ITEM: NUMBER OF ATOMS
7
ITEM: BOX BOUNDS ss ss ss
-2.9006 3.3231
-2.8238 3.3029
-2.0827 1.8938
ITEM: ATOMS id type xs ys zs
1 1 .499318 .992021 .496245
2 1 .992544 .628356 .415565
3 1 .822322 .032209 .457228
4 1 .212931 .010636 .539645
5 1 .007884 .616461 .559012
6 1 .529022 .458573 .983416
7 1 .472700 .451335 .012880
ITEM: TIMESTEP
350
ITEM: NUMBER OF ATOMS
7
ITEM: BOX BOUNDS ss ss ss
-2.9000 3.3246
-2.8110 3.2982
-2.0935 1.8793
ITEM: ATOMS id type xs ys zs
1 1 .499102 .992495 .498314
2 1 .992287 .627722 .418976
3 1 .821759 .030242 .460167
4 1 .212040 .009858 .542497
5 1 .007738 .615592 .561803
6 1 .528610 .457880 .986297
7 1 .472796 .450712 .013961
ITEM: TIMESTEP
400
ITEM: NUMBER OF ATOMS
7
ITEM: BOX BOUNDS ss ss ss
-2.8966 3.3220
-2.8064 3.3139
-2.0926 1.8784
ITEM: ATOMS id type xs ys zs
1 1 .498957 .989356 .498160
2 1 .992815 .625333 .418530
3 1 .821751 .029330 .460304
4 1 .211009 .010817 .543940
5 1 .007116 .613927 .560709
6 1 .528617 .456281 .987012
7 1 .472969 .449279 .012917
ITEM: TIMESTEP
1
ITEM: NUMBER OF ATOMS
7
ITEM: BOX BOUNDS ss ss ss
-2.8803 3.3093
-2.7825 3.2717
-2.0813 1.8650
ITEM: ATOMS id type xs ys zs
1 1 .499837 .998514 .502020
2 1 .993763 .629094 .418344
3 1 .823473 .026553 .459946
4 1 .211776 .000574 .543034
5 1 .007074 .618199 .559480
6 1 .530465 .458227 .999043
7 1 .473236 .450193 .016382
ITEM: TIMESTEP
50
ITEM: NUMBER OF ATOMS
7
ITEM: BOX BOUNDS ss ss ss
-2.8803 3.3093
-2.8116 3.2907
-2.0813 1.8892
ITEM: ATOMS id type xs ys zs
1 1 .500041 .995749 .499106
2 1 .993593 .628891 .415475
3 1 .823437 .031123 .457096
4 1 .212084 .004775 .539534
5 1 .007209 .618488 .555804
6 1 .530242 .459466 .993215
7 1 .472943 .451269 .016752
ITEM: TIMESTEP
100
ITEM: NUMBER OF ATOMS
7
ITEM: BOX BOUNDS ss ss ss
-2.8803 3.3110
-2.8170 3.3040
-2.0813 1.8937
ITEM: ATOMS id type xs ys zs
1 1 .500100 .993594 .499157
2 1 .993476 .628063 .415298
3 1 .823341 .031817 .457043
4 1 .212253 .005974 .539436
5 1 .007110 .617582 .555565
6 1 .529592 .458457 .990711
7 1 .472451 .450709 .016428
ITEM: TIMESTEP
150
ITEM: NUMBER OF ATOMS
7
ITEM: BOX BOUNDS ss ss ss
-2.8803 3.3095
-2.8176 3.3061
-2.0813 1.8911
ITEM: ATOMS id type xs ys zs
1 1 .500599 .993314 .501007
2 1 .993598 .628580 .417277
3 1 .823608 .031990 .458587
4 1 .212067 .006717 .541922
5 1 .007052 .618158 .557296
6 1 .528996 .456965 .988852
7 1 .472257 .450796 .015567
ITEM: TIMESTEP
200
ITEM: NUMBER OF ATOMS
7
ITEM: BOX BOUNDS ss ss ss
-2.8918 3.3206
-2.8215 3.3057
-2.0813 1.8826
ITEM: ATOMS id type xs ys zs
1 1 .500700 .993498 .502290
2 1 .991941 .629262 .418504
3 1 .822310 .032914 .460300
4 1 .212623 .008211 .544051
5 1 .008704 .618981 .559708
6 1 .528329 .457124 .989729
7 1 .472337 .451411 .014953
ITEM: TIMESTEP
250
ITEM: NUMBER OF ATOMS
7
ITEM: BOX BOUNDS ss ss ss
-2.8915 3.3230
-2.8234 3.3146
-2.0813 1.8865
ITEM: ATOMS id type xs ys zs
1 1 .499602 .992312 .501282
2 1 .991448 .628012 .417853
3 1 .821761 .033107 .460491
4 1 .211638 .010442 .543334
5 1 .007513 .618633 .560298
6 1 .527586 .457449 .987618
7 1 .471934 .451600 .014709
ITEM: TIMESTEP
300
ITEM: NUMBER OF ATOMS
7
ITEM: BOX BOUNDS ss ss ss
-2.8943 3.3293
-2.8077 3.3205
-2.0813 1.8875
ITEM: ATOMS id type xs ys zs
1 1 .498666 .991113 .500811
2 1 .990864 .626081 .417490
3 1 .821033 .030833 .461368
4 1 .210999 .009345 .543586
5 1 .006946 .616959 .561210
6 1 .526806 .456423 .986629
7 1 .471429 .449996 .014586
ITEM: TIMESTEP
350
ITEM: NUMBER OF ATOMS
7
ITEM: BOX BOUNDS ss ss ss
-2.8990 3.3296
-2.8035 3.3150
-2.0813 1.8821
ITEM: ATOMS id type xs ys zs
1 1 .498891 .991374 .501863
2 1 .991255 .626332 .417824
3 1 .821113 .030534 .462515
4 1 .211020 .009929 .544673
5 1 .007038 .616807 .562836
6 1 .527038 .456829 .988009
7 1 .471513 .450355 .014233
ITEM: TIMESTEP
400
ITEM: NUMBER OF ATOMS
7
ITEM: BOX BOUNDS ss ss ss
-2.9015 3.3244
-2.8054 3.3057
-2.0813 1.8860
ITEM: ATOMS id type xs ys zs
1 1 .499321 .991943 .501536
2 1 .992168 .627356 .417466
3 1 .821653 .031201 .462880
4 1 .209889 .011693 .544946
5 1 .006629 .617110 .562765
6 1 .527290 .457462 .987088
7 1 .471916 .451178 .013697
ITEM: TIMESTEP
1
ITEM: NUMBER OF ATOMS
7
ITEM: BOX BOUNDS ss ss ss
-2.8899 3.3150
-2.7834 3.2897
-2.0813 1.8651
ITEM: ATOMS id type xs ys zs
1 1 .500155 .995556 .502018
2 1 .992861 .627285 .418335
3 1 .822993 .026625 .459936
4 1 .212806 .000725 .543021
5 1 .008606 .616427 .559471
6 1 .530708 .456954 .999034
7 1 .473622 .448942 .016383
ITEM: TIMESTEP
50
ITEM: NUMBER OF ATOMS
7
ITEM: BOX BOUNDS ss ss ss
-2.8899 3.3150
-2.8092 3.2919
-2.0813 1.8930
ITEM: ATOMS id type xs ys zs
1 1 .500372 .995617 .498638
2 1 .992634 .628640 .415095
3 1 .822985 .030711 .456623
4 1 .213162 .004252 .538927
5 1 .008753 .618280 .555177
6 1 .530518 .459184 .992360
7 1 .473350 .450978 .016743
ITEM: TIMESTEP
100
ITEM: NUMBER OF ATOMS
7
ITEM: BOX BOUNDS ss ss ss
-2.8899 3.3150
-2.8237 3.3077
-2.0813 1.8934
ITEM: ATOMS id type xs ys zs
1 1 .500611 .993062 .498934
2 1 .992834 .628098 .415220
3 1 .823133 .032812 .457047
4 1 .213696 .006780 .539488
5 1 .008645 .617606 .555503
6 1 .530174 .458805 .991264
7 1 .473055 .450889 .016667
ITEM: TIMESTEP
150
ITEM: NUMBER OF ATOMS
7
ITEM: BOX BOUNDS ss ss ss
-2.8899 3.3188
-2.8202 3.3107
-2.0813 1.8931
ITEM: ATOMS id type xs ys zs
1 1 .500309 .992367 .499064
2 1 .993158 .627731 .415917
3 1 .822754 .032171 .458143
4 1 .214051 .006811 .540235
5 1 .008130 .616836 .556979
6 1 .529879 .457576 .989401
7 1 .472642 .450731 .016943
ITEM: TIMESTEP
200
ITEM: NUMBER OF ATOMS
7
ITEM: BOX BOUNDS ss ss ss
-2.8899 3.3299
-2.8275 3.3029
-2.0813 1.8988
ITEM: ATOMS id type xs ys zs
1 1 .499491 .993417 .498728
2 1 .992493 .629373 .416527
3 1 .821454 .033777 .457762
4 1 .213794 .008694 .540305
5 1 .007657 .618126 .557679
6 1 .529608 .458265 .986457
7 1 .471734 .452694 .017341
ITEM: TIMESTEP
250
ITEM: NUMBER OF ATOMS
7
ITEM: BOX BOUNDS ss ss ss
-2.8907 3.3419
-2.8232 3.3117
-2.0813 1.8826
ITEM: ATOMS id type xs ys zs
1 1 .498431 .991974 .501190
2 1 .990763 .628549 .418700
3 1 .820294 .033287 .459801
4 1 .213374 .008406 .542582
5 1 .007784 .616700 .560951
6 1 .528395 .456858 .989680
7 1 .470970 .452298 .016809
ITEM: TIMESTEP
300
ITEM: NUMBER OF ATOMS
7
ITEM: BOX BOUNDS ss ss ss
-2.8913 3.3383
-2.8157 3.3129
-2.0813 1.8866
ITEM: ATOMS id type xs ys zs
1 1 .498460 .991635 .500497
2 1 .991396 .628333 .418722
3 1 .821257 .032133 .459186
4 1 .213666 .007910 .541979
5 1 .007995 .615591 .561516
6 1 .528848 .455941 .988265
7 1 .471465 .451906 .015824
ITEM: TIMESTEP
350
ITEM: NUMBER OF ATOMS
7
ITEM: BOX BOUNDS ss ss ss
-2.8862 3.3356
-2.8245 3.3129
-2.0813 1.8887
ITEM: ATOMS id type xs ys zs
1 1 .497945 .991260 .499523
2 1 .991959 .629081 .419253
3 1 .821915 .033527 .458553
4 1 .213068 .010077 .541826
5 1 .007008 .616033 .562170
6 1 .528869 .456676 .987513
7 1 .471286 .452954 .015704
ITEM: TIMESTEP
400
ITEM: NUMBER OF ATOMS
7
ITEM: BOX BOUNDS ss ss ss
-2.8871 3.3374
-2.8104 3.3147
-2.0844 1.8892
ITEM: ATOMS id type xs ys zs
1 1 .497321 .990293 .498775
2 1 .991715 .628351 .420120
3 1 .822051 .031396 .458972
4 1 .212855 .008708 .542115
5 1 .006781 .614823 .563464
6 1 .528820 .455257 .987043
7 1 .471279 .451607 .016430
ITEM: TIMESTEP
1
ITEM: NUMBER OF ATOMS
7
ITEM: BOX BOUNDS ss ss ss
-2.8803 3.3146
-2.7829 3.2822
-2.0676 1.8696
ITEM: ATOMS id type xs ys zs
1 1 .499412 .996784 .499705
2 1 .992916 .628034 .415826
3 1 .822774 .026588 .457526
4 1 .211600 .000646 .540808
5 1 .007067 .617161 .557292
6 1 .530015 .457478 .997892
7 1 .472833 .449458 .012923
ITEM: TIMESTEP
50
ITEM: NUMBER OF ATOMS
7
ITEM: BOX BOUNDS ss ss ss
-2.8803 3.3146
-2.8099 3.2928
-2.0676 1.8913
ITEM: ATOMS id type xs ys zs
1 1 .499647 .995491 .497112
2 1 .992612 .628562 .413163
3 1 .822761 .030808 .454953
4 1 .211912 .004225 .537520
5 1 .007256 .618325 .553812
6 1 .529839 .459221 .992887
7 1 .472539 .450923 .013467
ITEM: TIMESTEP
100
ITEM: NUMBER OF ATOMS
7
ITEM: BOX BOUNDS ss ss ss
-2.8803 3.3146
-2.8236 3.3028
-2.0676 1.8963
ITEM: ATOMS id type xs ys zs
1 1 .499840 .994010 .496814
2 1 .992733 .628600 .412693
3 1 .822842 .032855 .454664
4 1 .212204 .006531 .537098
5 1 .007369 .618308 .553543
6 1 .529214 .459110 .990508
7 1 .472242 .451229 .013053
ITEM: TIMESTEP
150
ITEM: NUMBER OF ATOMS
7
ITEM: BOX BOUNDS ss ss ss
-2.8803 3.3146
-2.8229 3.3012
-2.0676 1.8914
ITEM: ATOMS id type xs ys zs
1 1 .499507 .994029 .499539
2 1 .992056 .628429 .413945
3 1 .823576 .032080 .456023
4 1 .212170 .007553 .539152
5 1 .007637 .618184 .555382
6 1 .527505 .457563 .989345
7 1 .472211 .451444 .010562
ITEM: TIMESTEP
200
ITEM: NUMBER OF ATOMS
7
ITEM: BOX BOUNDS ss ss ss
-2.8803 3.3153
-2.8188 3.3086
-2.0710 1.8850
ITEM: ATOMS id type xs ys zs
1 1 .498835 .992478 .502695
2 1 .991168 .626611 .415566
3 1 .823801 .030990 .458170
4 1 .211887 .007912 .540843
5 1 .007199 .616939 .557514
6 1 .526695 .455660 .988565
7 1 .471741 .450715 .009970
ITEM: TIMESTEP
250
ITEM: NUMBER OF ATOMS
7
ITEM: BOX BOUNDS ss ss ss
-2.8803 3.3146
-2.8127 3.3084
-2.0820 1.8834
ITEM: ATOMS id type xs ys zs
1 1 .498785 .992222 .504455
2 1 .991278 .626211 .416951
3 1 .824107 .029722 .460170
4 1 .211586 .007268 .542452
5 1 .006402 .616457 .559053
6 1 .526901 .454792 .987677
7 1 .471443 .449768 .012526
ITEM: TIMESTEP
300
ITEM: NUMBER OF ATOMS
7
ITEM: BOX BOUNDS ss ss ss
-2.8835 3.3146
-2.8189 3.3038
-2.0808 1.8835
ITEM: ATOMS id type xs ys zs
1 1 .499068 .992530 .504341
2 1 .991728 .627009 .416432
3 1 .824440 .030499 .460378
4 1 .211800 .008756 .542271
5 1 .006205 .617159 .559126
6 1 .527188 .455433 .987023
7 1 .471607 .450424 .012153
ITEM: TIMESTEP
350
ITEM: NUMBER OF ATOMS
7
ITEM: BOX BOUNDS ss ss ss
-2.8961 3.3213
-2.8139 3.3129
-2.0859 1.8853
ITEM: ATOMS id type xs ys zs
1 1 .499735 .990697 .504811
2 1 .991047 .625842 .416782
3 1 .824062 .029745 .461318
4 1 .213209 .008208 .542201
5 1 .007772 .616245 .559602
6 1 .527504 .454201 .986019
7 1 .472049 .449263 .012966
ITEM: TIMESTEP
400
ITEM: NUMBER OF ATOMS
7
ITEM: BOX BOUNDS ss ss ss
-2.9048 3.3244
-2.8270 3.3106
-2.0870 1.8841
ITEM: ATOMS id type xs ys zs
1 1 .500277 .990823 .505467
2 1 .990859 .626887 .416620
3 1 .824076 .031824 .462052
4 1 .214198 .010635 .542457
5 1 .008736 .617330 .559755
6 1 .528004 .455646 .985621
7 1 .472570 .450645 .013064
ITEM: TIMESTEP
1
ITEM: NUMBER OF ATOMS
7
ITEM: BOX BOUNDS ss ss ss
-2.8789 3.3217
-2.7912 3.2754
-2.0670 1.8655
ITEM: ATOMS id type xs ys zs
1 1 .498719 .997915 .500149
2 1 .991763 .629246 .416172
3 1 .821784 .027934 .457925
4 1 .211173 .001999 .541301
5 1 .006830 .618375 .557806
6 1 .529295 .458729 .998923
7 1 .472168 .450711 .012809
ITEM: TIMESTEP
50
ITEM: NUMBER OF ATOMS
7
ITEM: BOX BOUNDS ss ss ss
-2.8789 3.3217
-2.8104 3.2921
-2.0670 1.8921
ITEM: ATOMS id type xs ys zs
1 1 .498956 .995664 .496994
2 1 .991459 .628635 .412905
3 1 .821779 .030884 .454668
4 1 .211526 .004281 .537344
5 1 .007038 .618414 .553602
6 1 .529100 .459321 .992769
7 1 .471864 .451009 .013390
ITEM: TIMESTEP
100
ITEM: NUMBER OF ATOMS
7
ITEM: BOX BOUNDS ss ss ss
-2.8789 3.3217
-2.8211 3.3016
-2.0670 1.9039
ITEM: ATOMS id type xs ys zs
1 1 .499252 .994096 .495567
2 1 .991454 .628424 .411791
3 1 .821649 .032550 .453859
4 1 .211807 .006274 .536008
5 1 .006939 .618322 .552635
6 1 .528239 .459370 .988425
7 1 .471293 .451219 .012938
ITEM: TIMESTEP
150
ITEM: NUMBER OF ATOMS
7
ITEM: BOX BOUNDS ss ss ss
-2.8808 3.3217
-2.8215 3.3110
-2.0670 1.8977
ITEM: ATOMS id type xs ys zs
1 1 .499598 .992471 .496649
2 1 .991259 .627785 .412649
3 1 .821671 .032969 .456154
4 1 .212060 .006576 .537813
5 1 .006983 .617847 .555094
6 1 .527068 .458159 .988968
7 1 .470866 .450639 .012080
ITEM: TIMESTEP
200
ITEM: NUMBER OF ATOMS
7
ITEM: BOX BOUNDS ss ss ss
-2.8837 3.3217
-2.8273 3.3129
-2.0745 1.8939
ITEM: ATOMS id type xs ys zs
1 1 .499964 .991930 .497824
2 1 .991347 .627626 .414325
3 1 .821863 .034115 .459579
4 1 .212874 .007167 .539815
5 1 .006810 .618382 .558550
6 1 .526226 .457969 .989298
7 1 .470749 .451086 .013865
ITEM: TIMESTEP
250
ITEM: NUMBER OF ATOMS
7
ITEM: BOX BOUNDS ss ss ss
-2.8975 3.3217
-2.8387 3.3152
-2.0807 1.9119
ITEM: ATOMS id type xs ys zs
1 1 .501051 .991195 .496495
2 1 .991585 .628037 .413277
3 1 .822925 .035981 .460177
4 1 .214701 .009174 .537735
5 1 .008587 .618842 .558276
6 1 .526883 .458238 .983869
7 1 .471776 .451836 .014942
ITEM: TIMESTEP
300
ITEM: NUMBER OF ATOMS
7
ITEM: BOX BOUNDS ss ss ss
-2.8930 3.3233
-2.8290 3.3156
-2.0904 1.8917
ITEM: ATOMS id type xs ys zs
1 1 .500572 .990942 .501328
2 1 .991206 .627769 .416509
3 1 .823227 .034650 .464655
4 1 .214035 .008082 .541241
5 1 .007614 .618442 .563307
6 1 .526493 .456673 .987959
7 1 .470841 .450908 .016791
ITEM: TIMESTEP
350
ITEM: NUMBER OF ATOMS
7
ITEM: BOX BOUNDS ss ss ss
-2.9032 3.3217
-2.8268 3.3157
-2.0834 1.8908
ITEM: ATOMS id type xs ys zs
1 1 .501767 .990502 .501318
2 1 .991231 .627932 .414933
3 1 .824138 .034676 .463570
4 1 .215306 .008139 .541361
5 1 .009232 .618612 .562741
6 1 .527461 .456020 .987551
7 1 .471490 .450495 .014391
ITEM: TIMESTEP
400
ITEM: NUMBER OF ATOMS
7
ITEM: BOX BOUNDS ss ss ss
-2.9121 3.3217
-2.8346 3.3153
-2.0900 1.8875
ITEM: ATOMS id type xs ys zs
1 1 .502542 .990140 .502941
2 1 .991160 .628961 .414686
3 1 .824700 .036301 .463464
4 1 .216368 .010176 .543559
5 1 .011000 .619408 .563633
6 1 .528508 .456303 .987309
7 1 .472160 .450906 .014620
ITEM: TIMESTEP
1
ITEM: NUMBER OF ATOMS
7
ITEM: BOX BOUNDS ss ss ss
-2.8789 3.3217
-2.7912 3.2808
-2.0698 1.8651
ITEM: ATOMS id type xs ys zs
1 1 .498721 .997033 .500564
2 1 .991766 .628691 .416641
3 1 .821782 .027910 .458361
4 1 .211173 .001994 .541692
5 1 .006831 .617828 .558184
6 1 .529297 .458325 .999048
7 1 .472166 .450313 .013508
ITEM: TIMESTEP
50
ITEM: NUMBER OF ATOMS
7
ITEM: BOX BOUNDS ss ss ss
-2.8789 3.3217
-2.8117 3.2954
-2.0698 1.8931
ITEM: ATOMS id type xs ys zs
1 1 .498978 .995137 .497180
2 1 .991402 .628348 .413200
3 1 .821792 .031054 .454914
4 1 .211543 .004353 .537453
5 1 .007003 .618214 .553709
6 1 .529104 .459256 .992623
7 1 .471845 .450892 .014099
ITEM: TIMESTEP
100
ITEM: NUMBER OF ATOMS
7
ITEM: BOX BOUNDS ss ss ss
-2.8789 3.3217
-2.8229 3.3091
-2.0698 1.8968
ITEM: ATOMS id type xs ys zs
1 1 .499384 .992931 .496888
2 1 .991433 .627798 .412968
3 1 .821958 .032804 .455062
4 1 .212092 .006329 .536894
5 1 .006946 .617926 .553260
6 1 .528299 .458818 .990553
7 1 .471615 .450604 .013719
ITEM: TIMESTEP
150
ITEM: NUMBER OF ATOMS
7
ITEM: BOX BOUNDS ss ss ss
-2.8798 3.3217
-2.8278 3.3178
-2.0698 1.8986
ITEM: ATOMS id type xs ys zs
1 1 .499837 .990822 .496521
2 1 .991923 .627599 .413031
3 1 .822241 .033846 .455378
4 1 .212470 .007757 .537577
5 1 .007128 .617305 .552632
6 1 .527711 .458337 .988755
7 1 .472339 .450189 .012938
ITEM: TIMESTEP
200
ITEM: NUMBER OF ATOMS
7
ITEM: BOX BOUNDS ss ss ss
-2.8789 3.3217
-2.8366 3.3036
-2.0698 1.9018
ITEM: ATOMS id type xs ys zs
1 1 .500093 .992329 .496532
2 1 .992483 .629476 .413357
3 1 .822630 .035529 .455503
4 1 .212295 .010229 .537118
5 1 .007280 .618780 .551222
6 1 .527917 .459605 .987067
7 1 .472459 .451735 .011378
ITEM: TIMESTEP
250
ITEM: NUMBER OF ATOMS
7
ITEM: BOX BOUNDS ss ss ss
-2.8889 3.3217
-2.8202 3.3011
-2.0753 1.9013
ITEM: ATOMS id type xs ys zs
1 1 .501662 .991974 .498617
2 1 .992616 .628314 .414930
3 1 .823381 .032832 .457076
4 1 .213873 .008309 .537209
5 1 .009015 .618503 .551491
6 1 .528581 .457232 .986890
7 1 .473110 .450350 .011223
ITEM: TIMESTEP
300
ITEM: NUMBER OF ATOMS
7
ITEM: BOX BOUNDS ss ss ss
-2.8903 3.3217
-2.8258 3.3038
-2.0810 1.8982
ITEM: ATOMS id type xs ys zs
1 1 .501804 .991011 .500696
2 1 .992402 .628252 .416316
3 1 .823803 .033635 .458910
4 1 .213966 .009557 .538202
5 1 .009002 .618738 .552972
6 1 .528011 .457053 .987400
7 1 .473174 .450291 .011536
ITEM: TIMESTEP
350
ITEM: NUMBER OF ATOMS
7
ITEM: BOX BOUNDS ss ss ss
-2.8926 3.3219
-2.8353 3.3067
-2.0876 1.8937
ITEM: ATOMS id type xs ys zs
1 1 .500449 .989482 .503071
2 1 .992565 .629309 .418921
3 1 .825713 .035547 .465320
4 1 .214252 .011239 .540038
5 1 .008240 .618682 .555132
6 1 .527149 .457588 .988197
7 1 .474139 .449458 .014299
ITEM: TIMESTEP
400
ITEM: NUMBER OF ATOMS
7
ITEM: BOX BOUNDS ss ss ss
-2.8955 3.3217
-2.8231 3.2949
-2.0878 1.8864
ITEM: ATOMS id type xs ys zs
1 1 .499438 .990240 .505218
2 1 .993367 .629886 .420373
3 1 .827581 .034110 .471190
4 1 .214567 .009817 .541352
5 1 .007914 .618707 .555711
6 1 .526580 .457398 .989965
7 1 .475246 .448475 .015372
ITEM: TIMESTEP
1
ITEM: NUMBER OF ATOMS
7
ITEM: BOX BOUNDS ss ss ss
-2.8789 3.3217
-2.7912 3.2754
-2.0670 1.8651
ITEM: ATOMS id type xs ys zs
1 1 .498720 .997919 .500206
2 1 .991764 .629247 .416221
3 1 .821782 .027935 .457973
4 1 .211173 .001996 .541365
5 1 .006833 .618376 .557867
6 1 .529297 .458729 .999037
7 1 .472167 .450711 .012809
ITEM: TIMESTEP
50
ITEM: NUMBER OF ATOMS
7
ITEM: BOX BOUNDS ss ss ss
-2.8789 3.3217
-2.8121 3.2951
-2.0670 1.8920
ITEM: ATOMS id type xs ys zs
1 1 .498942 .995215 .496967
2 1 .991389 .628384 .412970
3 1 .821776 .031130 .454682
4 1 .211574 .004365 .537286
5 1 .007075 .618348 .553491
6 1 .529140 .459277 .992980
7 1 .471844 .450942 .013489
ITEM: TIMESTEP
100
ITEM: NUMBER OF ATOMS
7
ITEM: BOX BOUNDS ss ss ss
-2.8789 3.3217
-2.8281 3.3050
-2.0670 1.9020
ITEM: ATOMS id type xs ys zs
1 1 .499213 .993867 .495907
2 1 .991338 .628603 .411950
3 1 .821766 .033554 .453966
4 1 .211964 .006913 .536083
5 1 .007176 .618676 .552417
6 1 .528484 .459624 .989381
7 1 .471570 .451474 .013431
ITEM: TIMESTEP
150
ITEM: NUMBER OF ATOMS
7
ITEM: BOX BOUNDS ss ss ss
-2.8789 3.3217
-2.8347 3.3125
-2.0670 1.9000
ITEM: ATOMS id type xs ys zs
1 1 .499809 .992946 .496170
2 1 .991247 .628656 .411899
3 1 .822266 .034791 .455416
4 1 .212323 .008434 .536914
5 1 .006931 .618570 .553355
6 1 .527602 .459062 .988303
7 1 .471665 .451516 .013057
ITEM: TIMESTEP
200
ITEM: NUMBER OF ATOMS
7
ITEM: BOX BOUNDS ss ss ss
-2.8867 3.3217
-2.8382 3.3187
-2.0690 1.8971
ITEM: ATOMS id type xs ys zs
1 1 .500606 .991854 .497155
2 1 .991236 .628651 .412430
3 1 .823099 .035545 .456825
4 1 .212997 .009430 .537828
5 1 .008018 .617762 .553713
6 1 .527480 .458271 .987892
7 1 .472238 .451185 .012777
ITEM: TIMESTEP
250
ITEM: NUMBER OF ATOMS
7
ITEM: BOX BOUNDS ss ss ss
-2.8838 3.3217
-2.8418 3.3116
-2.0802 1.8888
ITEM: ATOMS id type xs ys zs
1 1 .499702 .992317 .500089
2 1 .991721 .630015 .415062
3 1 .822793 .035635 .458103
4 1 .212242 .010344 .541005
5 1 .007008 .618068 .555207
6 1 .527327 .457802 .988710
7 1 .472139 .452616 .014957
ITEM: TIMESTEP
300
ITEM: NUMBER OF ATOMS
7
ITEM: BOX BOUNDS ss ss ss
-2.8880 3.3230
-2.8258 3.3143
-2.0670 1.8913
ITEM: ATOMS id type xs ys zs
1 1 .499473 .991161 .499581
2 1 .992462 .628488 .411667
3 1 .822870 .031927 .455795
4 1 .213050 .007536 .538639
5 1 .006726 .616717 .552291
6 1 .527466 .455359 .986276
7 1 .472897 .451486 .011576
ITEM: TIMESTEP
350
ITEM: NUMBER OF ATOMS
7
ITEM: BOX BOUNDS ss ss ss
-2.8958 3.3311
-2.8315 3.3177
-2.0696 1.8957
ITEM: ATOMS id type xs ys zs
1 1 .499030 .990179 .500865
2 1 .991592 .628046 .410776
3 1 .822734 .032524 .456107
4 1 .214129 .008252 .538008
5 1 .007010 .617154 .551638
6 1 .526946 .455290 .983290
7 1 .472829 .451385 .011897
ITEM: TIMESTEP
400
ITEM: NUMBER OF ATOMS
7
ITEM: BOX BOUNDS ss ss ss
-2.9041 3.3313
-2.8276 3.3072
-2.0684 1.8943
ITEM: ATOMS id type xs ys zs
1 1 .499407 .991634 .502218
2 1 .991584 .628990 .410062
3 1 .823814 .032435 .456293
4 1 .215410 .007407 .537878
5 1 .007656 .618176 .551528
6 1 .527041 .455579 .982034
7 1 .473156 .451600 .011098
ITEM: TIMESTEP
1
ITEM: NUMBER OF ATOMS
7
ITEM: BOX BOUNDS ss ss ss
-2.8963 3.3217
-2.8083 3.2815
-2.0670 1.8649
ITEM: ATOMS id type xs ys zs
1 1 .500126 .996922 .500230
2 1 .991788 .629660 .416240
3 1 .822280 .030639 .457989
4 1 .213381 .004803 .541381
5 1 .009614 .618832 .557890
6 1 .530616 .459793 .999082
7 1 .473648 .451804 .012813
ITEM: TIMESTEP
50
ITEM: NUMBER OF ATOMS
7
ITEM: BOX BOUNDS ss ss ss
-2.8963 3.3217
-2.8195 3.2952
-2.0670 1.8908
ITEM: ATOMS id type xs ys zs
1 1 .500391 .995256 .497157
2 1 .991408 .628832 .413018
3 1 .822287 .032304 .454750
4 1 .213776 .005516 .537387
5 1 .009834 .618802 .553592
6 1 .530428 .459929 .993331
7 1 .473331 .451587 .013542
ITEM: TIMESTEP
100
ITEM: NUMBER OF ATOMS
7
ITEM: BOX BOUNDS ss ss ss
-2.8963 3.3217
-2.8291 3.3107
-2.0670 1.8950
ITEM: ATOMS id type xs ys zs
1 1 .500850 .993079 .496905
2 1 .991731 .627997 .412246
3 1 .822460 .033854 .455003
4 1 .214171 .007067 .536908
5 1 .010005 .618232 .553625
6 1 .529609 .459287 .991108
7 1 .473106 .451288 .013309
ITEM: TIMESTEP
150
ITEM: NUMBER OF ATOMS
7
ITEM: BOX BOUNDS ss ss ss
-2.8963 3.3217
-2.8360 3.3152
-2.0670 1.8942
ITEM: ATOMS id type xs ys zs
1 1 .502024 .993255 .499094
2 1 .993049 .627873 .412794
3 1 .822799 .034788 .457567
4 1 .214607 .009813 .537856
5 1 .009369 .618491 .553586
6 1 .528335 .460042 .988333
7 1 .473565 .451794 .012554
ITEM: TIMESTEP
200
ITEM: NUMBER OF ATOMS
7
ITEM: BOX BOUNDS ss ss ss
-2.8963 3.3300
-2.8198 3.3162
-2.0670 1.8950
ITEM: ATOMS id type xs ys zs
1 1 .501902 .993435 .500372
2 1 .991651 .626626 .412919
3 1 .822450 .031502 .458750
4 1 .214872 .008633 .538910
5 1 .008629 .617518 .552390
6 1 .526903 .458880 .985935
7 1 .473368 .450496 .012807
ITEM: TIMESTEP
250
ITEM: NUMBER OF ATOMS
7
ITEM: BOX BOUNDS ss ss ss
-2.8963 3.3275
-2.8266 3.3220
-2.0670 1.8910
ITEM: ATOMS id type xs ys zs
1 1 .502085 .992139 .501056
2 1 .991829 .626533 .413413
3 1 .823444 .032727 .459665
4 1 .215212 .009680 .539949
5 1 .008361 .617818 .552854
6 1 .527083 .458772 .986110
7 1 .473275 .450668 .012168
ITEM: TIMESTEP
300
ITEM: NUMBER OF ATOMS
7
ITEM: BOX BOUNDS ss ss ss
-2.9015 3.3293
-2.8291 3.3212
-2.0670 1.8806
ITEM: ATOMS id type xs ys zs
1 1 .502472 .991958 .502770
2 1 .991965 .626473 .414664
3 1 .823539 .033152 .461426
4 1 .215619 .010058 .541919
5 1 .008899 .618356 .554029
6 1 .527259 .458775 .987701
7 1 .473478 .451139 .011744
ITEM: TIMESTEP
350
ITEM: NUMBER OF ATOMS
7
ITEM: BOX BOUNDS ss ss ss
-2.9180 3.3334
-2.8270 3.3322
-2.0701 1.8841
ITEM: ATOMS id type xs ys zs
1 1 .503604 .989591 .503278