ITEM: TIMESTEP
1
ITEM: NUMBER OF ATOMS
7
ITEM: BOX BOUNDS ss ss ss
-2.8969 3.1919
-2.7900 3.3665
-2.0408 1.8409
ITEM: ATOMS id type xs ys zs
1 1 .529563 .999186 .482905
2 1 .999362 .584313 .464555
3 1 .749183 .000823 .441321
4 1 .126197 .066096 .526971
5 1 .000641 .673330 .560470
6 1 .506413 .452640 .998908
7 1 .464125 .467273 .000925
ITEM: TIMESTEP
50
ITEM: NUMBER OF ATOMS
7
ITEM: BOX BOUNDS ss ss ss
-2.9190 3.2131
-2.8178 3.3919
-2.0640 1.8626
ITEM: ATOMS id type xs ys zs
1 1 .529318 .993134 .485387
2 1 .997393 .583289 .464793
3 1 .748134 .006669 .442561
4 1 .129393 .068697 .528490
5 1 .001799 .672575 .560387
6 1 .505983 .452790 .991987
7 1 .463151 .467369 .006148
ITEM: TIMESTEP
100
ITEM: NUMBER OF ATOMS
7
ITEM: BOX BOUNDS ss ss ss
-2.9261 3.2270
-2.8250 3.3966
-2.0749 1.8709
ITEM: ATOMS id type xs ys zs
1 1 .528614 .992080 .490030
2 1 .994708 .581563 .464641
3 1 .746975 .007144 .443608
4 1 .130321 .069369 .527767
5 1 .003852 .672466 .562695
6 1 .505328 .453305 .988069
7 1 .462880 .468804 .009031
ITEM: TIMESTEP
150
ITEM: NUMBER OF ATOMS
7
ITEM: BOX BOUNDS ss ss ss
-2.9324 3.2274
-2.8307 3.3997
-2.0729 1.8748
ITEM: ATOMS id type xs ys zs
1 1 .527282 .991595 .490307
2 1 .993091 .581997 .462099
3 1 .746198 .011107 .445548
4 1 .131221 .072213 .527999
5 1 .003968 .674096 .561979
6 1 .504831 .455958 .987641
7 1 .463169 .470315 .010781
ITEM: TIMESTEP
200
ITEM: NUMBER OF ATOMS
7
ITEM: BOX BOUNDS ss ss ss
-2.9437 3.2362
-2.8324 3.3999
-2.0806 1.8765
ITEM: ATOMS id type xs ys zs
1 1 .526792 .990016 .494876
2 1 .991773 .580846 .465475
3 1 .746806 .009884 .447586
4 1 .132909 .073399 .525214
5 1 .006270 .673124 .565500
6 1 .504325 .457596 .987968
7 1 .462501 .471030 .011931
ITEM: TIMESTEP
250
ITEM: NUMBER OF ATOMS
7
ITEM: BOX BOUNDS ss ss ss
-2.9384 3.2411
-2.8224 3.3916
-2.0821 1.8815
ITEM: ATOMS id type xs ys zs
1 1 .530359 .992088 .492901
2 1 .993545 .581898 .462323
3 1 .747306 .009741 .445543
4 1 .133506 .070045 .523770
5 1 .004674 .672885 .565257
6 1 .505724 .454692 .985374
7 1 .462679 .469839 .009598
ITEM: TIMESTEP
300
ITEM: NUMBER OF ATOMS
7
ITEM: BOX BOUNDS ss ss ss
-2.9515 3.2414
-2.8217 3.3884
-2.0822 1.8799
ITEM: ATOMS id type xs ys zs
1 1 .531826 .992336 .493800
2 1 .994733 .580642 .459521
3 1 .749083 .007950 .445396
4 1 .135294 .069247 .524121
5 1 .006317 .672926 .563610
6 1 .505093 .455859 .982658
7 1 .463534 .469711 .008614
ITEM: TIMESTEP
350
ITEM: NUMBER OF ATOMS
7
ITEM: BOX BOUNDS ss ss ss
-2.9517 3.2450
-2.8215 3.3837
-2.0921 1.8833
ITEM: ATOMS id type xs ys zs
1 1 .531041 .990302 .496070
2 1 .993640 .582467 .461235
3 1 .748632 .010027 .444289
4 1 .134938 .069965 .523162
5 1 .005499 .673490 .566404
6 1 .504222 .456617 .981366
7 1 .462683 .469662 .011554
ITEM: TIMESTEP
400
ITEM: NUMBER OF ATOMS
7
ITEM: BOX BOUNDS ss ss ss
-2.9586 3.2471
-2.8215 3.3902
-2.1051 1.8790
ITEM: ATOMS id type xs ys zs
1 1 .530341 .990774 .499174
2 1 .993595 .581499 .461944
3 1 .748855 .010294 .448794
4 1 .134919 .070722 .527042
5 1 .006637 .672791 .566637
6 1 .506047 .456390 .985099
7 1 .462635 .470320 .015676
ITEM: TIMESTEP
1
ITEM: NUMBER OF ATOMS
7
ITEM: BOX BOUNDS ss ss ss
-2.9606 3.2418
-2.8121 3.3761
-2.0908 1.8770
ITEM: ATOMS id type xs ys zs
1 1 .530128 .997644 .485021
2 1 .991318 .584906 .467073
3 1 .745723 .004399 .444331
4 1 .134136 .069328 .528139
5 1 .010899 .673455 .560890
6 1 .507402 .453893 .989837
7 1 .465879 .468445 .013491
ITEM: TIMESTEP
50
ITEM: NUMBER OF ATOMS
7
ITEM: BOX BOUNDS ss ss ss
-2.9606 3.2418
-2.8185 3.3910
-2.0908 1.8770
ITEM: ATOMS id type xs ys zs
1 1 .530414 .992691 .485591
2 1 .992618 .583250 .463491
3 1 .745484 .006472 .444932
4 1 .134538 .070407 .530586
5 1 .010267 .671993 .560803
6 1 .506406 .453520 .992869
7 1 .464981 .467250 .010860
ITEM: TIMESTEP
100
ITEM: NUMBER OF ATOMS
7
ITEM: BOX BOUNDS ss ss ss
-2.9589 3.2418
-2.8254 3.3965
-2.0908 1.8770
ITEM: ATOMS id type xs ys zs
1 1 .530201 .991166 .490093
2 1 .991002 .582469 .465857
3 1 .748053 .006686 .449582
4 1 .132150 .071225 .525510
5 1 .010347 .673589 .560576
6 1 .505939 .452162 .987321
7 1 .466020 .466266 .010960
ITEM: TIMESTEP
150
ITEM: NUMBER OF ATOMS
7
ITEM: BOX BOUNDS ss ss ss
-2.9589 3.2418
-2.8277 3.4078
-2.0908 1.8823
ITEM: ATOMS id type xs ys zs
1 1 .528812 .990429 .488045
2 1 .990620 .584644 .460896
3 1 .747231 .010109 .443378
4 1 .133809 .071615 .528221
5 1 .009376 .671819 .561849
6 1 .507246 .456668 .991679
7 1 .463113 .467696 .013764
ITEM: TIMESTEP
200
ITEM: NUMBER OF ATOMS
7
ITEM: BOX BOUNDS ss ss ss
-2.9589 3.2407
-2.8306 3.4014
-2.0908 1.8806
ITEM: ATOMS id type xs ys zs
1 1 .531305 .989641 .487044
2 1 .991427 .579450 .464488
3 1 .745563 .011201 .444987
4 1 .133701 .072485 .527841
5 1 .008274 .673779 .562137
6 1 .505117 .457135 .989783
7 1 .464139 .469218 .015597
ITEM: TIMESTEP
250
ITEM: NUMBER OF ATOMS
7
ITEM: BOX BOUNDS ss ss ss
-2.9741 3.2407
-2.8313 3.3974
-2.0908 1.8915
ITEM: ATOMS id type xs ys zs
1 1 .529904 .992016 .489858
2 1 .990697 .581547 .457376
3 1 .748010 .013106 .443727
4 1 .134666 .072954 .526682
5 1 .010307 .672842 .563565
6 1 .508876 .456163 .987993
7 1 .465324 .469107 .010388
ITEM: TIMESTEP
300
ITEM: NUMBER OF ATOMS
7
ITEM: BOX BOUNDS ss ss ss
-2.9559 3.2410
-2.8294 3.3914
-2.0908 1.8904
ITEM: ATOMS id type xs ys zs
1 1 .530894 .989929 .491549
2 1 .991855 .581391 .466567
3 1 .746832 .010722 .445192
4 1 .132525 .072143 .525925
5 1 .007387 .672331 .563447
6 1 .503918 .455723 .989111
7 1 .462505 .470089 .011740
ITEM: TIMESTEP
350
ITEM: NUMBER OF ATOMS
7
ITEM: BOX BOUNDS ss ss ss
-2.9582 3.2380
-2.8208 3.3877
-2.0949 1.8960
ITEM: ATOMS id type xs ys zs
1 1 .532214 .989947 .493604
2 1 .992891 .582037 .464062
3 1 .745503 .012223 .446290
4 1 .130699 .070043 .521328
5 1 .007547 .670786 .564381
6 1 .505058 .456259 .985654
7 1 .464394 .470327 .010070
ITEM: TIMESTEP
400
ITEM: NUMBER OF ATOMS
7
ITEM: BOX BOUNDS ss ss ss
-2.9572 3.2482
-2.8268 3.3870
-2.0873 1.8952
ITEM: ATOMS id type xs ys zs
1 1 .530342 .991322 .491297
2 1 .989143 .579019 .461561
3 1 .746416 .010082 .452899
4 1 .132270 .073811 .522258
5 1 .004668 .676785 .564975
6 1 .503033 .456988 .990952
7 1 .460947 .469838 .015185
ITEM: TIMESTEP
1
ITEM: NUMBER OF ATOMS
7
ITEM: BOX BOUNDS ss ss ss
-2.9661 3.2383
-2.7987 3.3704
-2.0833 1.8912
ITEM: ATOMS id type xs ys zs
1 1 .530845 .998568 .482335
2 1 .991899 .584540 .464405
3 1 .746378 .002235 .441685
4 1 .134990 .067376 .525353
5 1 .011779 .673362 .558072
6 1 .508131 .453118 .986271
7 1 .466627 .467723 .011576
ITEM: TIMESTEP
50
ITEM: NUMBER OF ATOMS
7
ITEM: BOX BOUNDS ss ss ss
-2.9661 3.2383
-2.8135 3.3928
-2.0833 1.8912
ITEM: ATOMS id type xs ys zs
1 1 .531149 .994303 .483798
2 1 .991110 .581894 .464818
3 1 .746013 .007063 .441767
4 1 .135689 .071261 .525650
5 1 .010764 .671876 .558039
6 1 .507168 .454923 .985307
7 1 .467292 .468906 .007735
ITEM: TIMESTEP
100
ITEM: NUMBER OF ATOMS
7
ITEM: BOX BOUNDS ss ss ss
-2.9661 3.2311
-2.8251 3.4053
-2.0798 1.8912
ITEM: ATOMS id type xs ys zs
1 1 .531071 .990354 .485108
2 1 .992851 .580265 .463621
3 1 .748118 .009231 .442180
4 1 .133950 .069791 .524676
5 1 .008962 .670748 .559632
6 1 .507628 .451266 .983928
7 1 .466069 .466338 .008524
ITEM: TIMESTEP
150
ITEM: NUMBER OF ATOMS
7
ITEM: BOX BOUNDS ss ss ss
-2.9554 3.2311
-2.8270 3.3988
-2.0856 1.8912
ITEM: ATOMS id type xs ys zs
1 1 .531320 .989732 .485645
2 1 .994233 .582708 .464897
3 1 .749028 .010418 .445797
4 1 .133564 .069041 .523137
5 1 .008643 .672028 .561936
6 1 .506592 .452967 .986863
7 1 .465400 .468214 .013478
ITEM: TIMESTEP
200
ITEM: NUMBER OF ATOMS
7
ITEM: BOX BOUNDS ss ss ss
-2.9510 3.2339
-2.8285 3.4021
-2.0858 1.8912
ITEM: ATOMS id type xs ys zs
1 1 .529843 .988634 .484156
2 1 .993198 .582315 .459998
3 1 .749525 .008843 .447198
4 1 .132034 .071172 .524755
5 1 .007044 .671780 .555349
6 1 .506894 .454787 .983753
7 1 .463652 .468548 .009680
ITEM: TIMESTEP
250
ITEM: NUMBER OF ATOMS
7
ITEM: BOX BOUNDS ss ss ss
-2.9510 3.2420
-2.8243 3.3958
-2.0972 1.8912
ITEM: ATOMS id type xs ys zs
1 1 .532351 .988476 .489677
2 1 .992427 .583122 .467522
3 1 .748084 .010566 .450661
4 1 .133476 .068553 .522514
5 1 .007503 .671535 .565702
6 1 .503187 .452361 .986618
7 1 .464268 .468754 .015049
ITEM: TIMESTEP
300
ITEM: NUMBER OF ATOMS
7
ITEM: BOX BOUNDS ss ss ss
-2.9510 3.2338
-2.8317 3.3838
-2.0932 1.8912
ITEM: ATOMS id type xs ys zs
1 1 .532399 .990541 .488921
2 1 .993918 .584740 .467382
3 1 .748336 .012799 .450622
4 1 .132713 .070251 .521312
5 1 .006454 .673511 .561961
6 1 .503583 .454522 .986949
7 1 .464439 .469855 .011673
ITEM: TIMESTEP
350
ITEM: NUMBER OF ATOMS
7
ITEM: BOX BOUNDS ss ss ss
-2.9510 3.2378
-2.8225 3.3931
-2.0879 1.8891
ITEM: ATOMS id type xs ys zs
1 1 .529674 .988946 .488235
2 1 .994285 .581329 .468042
3 1 .749509 .011961 .449018
4 1 .135075 .070175 .522072
5 1 .006157 .671947 .562516
6 1 .503165 .454831 .988927
7 1 .464993 .469317 .010343
ITEM: TIMESTEP
400
ITEM: NUMBER OF ATOMS
7
ITEM: BOX BOUNDS ss ss ss
-2.9552 3.2428
-2.8212 3.3797
-2.0845 1.8977
ITEM: ATOMS id type xs ys zs
1 1 .531872 .991198 .492723
2 1 .991721 .581962 .465727
3 1 .748050 .009432 .445284
4 1 .134979 .068582 .520421
5 1 .004954 .671571 .561686
6 1 .503190 .456160 .984031
7 1 .462707 .470683 .014353
ITEM: TIMESTEP
1
ITEM: NUMBER OF ATOMS
7
ITEM: BOX BOUNDS ss ss ss
-2.9526 3.2363
-2.8026 3.3707
-2.0815 1.8857
ITEM: ATOMS id type xs ys zs
1 1 .529991 .998527 .482762
2 1 .992194 .584782 .464792
3 1 .746054 .002866 .442045
4 1 .133131 .067965 .525869
5 1 .009626 .673539 .558619
6 1 .507218 .453455 .987638
7 1 .465601 .468046 .011160
ITEM: TIMESTEP
50
ITEM: NUMBER OF ATOMS
7
ITEM: BOX BOUNDS ss ss ss
-2.9526 3.2336
-2.8164 3.3933
-2.0815 1.8857
ITEM: ATOMS id type xs ys zs
1 1 .528972 .992562 .483311
2 1 .991604 .582671 .462481
3 1 .747202 .005986 .442310
4 1 .134568 .072826 .528119
5 1 .008439 .674002 .561292
6 1 .506776 .455051 .990718
7 1 .464355 .467425 .012188
ITEM: TIMESTEP
100
ITEM: NUMBER OF ATOMS
7
ITEM: BOX BOUNDS ss ss ss
-2.9526 3.2336
-2.8267 3.4007
-2.0815 1.8857
ITEM: ATOMS id type xs ys zs
1 1 .530820 .992507 .483986
2 1 .993255 .581579 .461412
3 1 .747766 .008162 .441203
4 1 .133580 .072783 .529037
5 1 .008428 .673494 .559418
6 1 .506969 .455015 .989458
7 1 .464770 .467747 .011096
ITEM: TIMESTEP
150
ITEM: NUMBER OF ATOMS
7
ITEM: BOX BOUNDS ss ss ss
-2.9526 3.2336
-2.8406 3.4009
-2.0762 1.8857
ITEM: ATOMS id type xs ys zs
1 1 .529945 .990433 .481328
2 1 .993917 .582816 .460009
3 1 .744462 .010474 .443216
4 1 .131253 .074243 .526416
5 1 .006658 .671836 .557785
6 1 .508335 .456667 .986213
7 1 .464100 .471530 .007868
ITEM: TIMESTEP
200
ITEM: NUMBER OF ATOMS
7
ITEM: BOX BOUNDS ss ss ss
-2.9526 3.2336
-2.8486 3.4087
-2.0813 1.8877
ITEM: ATOMS id type xs ys zs
1 1 .533984 .987461 .482806
2 1 .995149 .583254 .456638
3 1 .747748 .011253 .441041
4 1 .136861 .073403 .528922
5 1 .009794 .671769 .565552
6 1 .509073 .454103 .987298
7 1 .464555 .468097 .006933
ITEM: TIMESTEP
250
ITEM: NUMBER OF ATOMS
7
ITEM: BOX BOUNDS ss ss ss
-2.9526 3.2336
-2.8470 3.3922
-2.0803 1.8914
ITEM: ATOMS id type xs ys zs
1 1 .532841 .988872 .481631
2 1 .995129 .583506 .455179
3 1 .747799 .010942 .442333
4 1 .137004 .073685 .527806
5 1 .008989 .673073 .566618
6 1 .509394 .454882 .987534
7 1 .463636 .469761 .005984
ITEM: TIMESTEP
300
ITEM: NUMBER OF ATOMS
7
ITEM: BOX BOUNDS ss ss ss
-2.9533 3.2402
-2.8268 3.3887
-2.0868 1.8979
ITEM: ATOMS id type xs ys zs
1 1 .532587 .989107 .482531
2 1 .993290 .582507 .455569
3 1 .748349 .008381 .442890
4 1 .137267 .070578 .527929
5 1 .008697 .672625 .564015
6 1 .509687 .455226 .986759
7 1 .462831 .468904 .010199
ITEM: TIMESTEP
350
ITEM: NUMBER OF ATOMS
7
ITEM: BOX BOUNDS ss ss ss
-2.9613 3.2398
-2.8227 3.3910
-2.0921 1.8879
ITEM: ATOMS id type xs ys zs
1 1 .535065 .987935 .481866
2 1 .992458 .578722 .452675
3 1 .747807 .009243 .446138
4 1 .135954 .069681 .531371
5 1 .011762 .675111 .566213
6 1 .509869 .454914 .987967
7 1 .463780 .467964 .011781
ITEM: TIMESTEP
400
ITEM: NUMBER OF ATOMS
7
ITEM: BOX BOUNDS ss ss ss
-2.9633 3.2502
-2.8214 3.3869
-2.0936 1.8977
ITEM: ATOMS id type xs ys zs
1 1 .533457 .989013 .489131
2 1 .992280 .582419 .455605
3 1 .746438 .008058 .445179
4 1 .138916 .067940 .525005
5 1 .009795 .670567 .564542
6 1 .509528 .452693 .986208
7 1 .464056 .467378 .012503
ITEM: TIMESTEP
1
ITEM: NUMBER OF ATOMS
7
ITEM: BOX BOUNDS ss ss ss
-2.9426 3.2563
-2.8271 3.3794
-2.0897 1.8857
ITEM: ATOMS id type xs ys zs
1 1 .527527 .997119 .483843
2 1 .988980 .585590 .465895
3 1 .743240 .006795 .443212
4 1 .131317 .071549 .526851
5 1 .008001 .673880 .559535
6 1 .504788 .454975 .987655
7 1 .463243 .469482 .013164
ITEM: TIMESTEP
50
ITEM: NUMBER OF ATOMS
7
ITEM: BOX BOUNDS ss ss ss
-2.9426 3.2563
-2.8271 3.3953
-2.0897 1.8857
ITEM: ATOMS id type xs ys zs
1 1 .527622 .992815 .485242
2 1 .989783 .583786 .464003
3 1 .743975 .007942 .443693
4 1 .132685 .070393 .527460
5 1 .007923 .671491 .557739
6 1 .505250 .452969 .987449
7 1 .463753 .469160 .010957
ITEM: TIMESTEP
100
ITEM: NUMBER OF ATOMS
7
ITEM: BOX BOUNDS ss ss ss
-2.9426 3.2563
-2.8271 3.4068
-2.0897 1.8857
ITEM: ATOMS id type xs ys zs
1 1 .528682 .990425 .485591
2 1 .989749 .583026 .464220
3 1 .743219 .008326 .445013
4 1 .132156 .070481 .522647
5 1 .006275 .671729 .563103
6 1 .503593 .453246 .986928
7 1 .462646 .466535 .012042
ITEM: TIMESTEP
150
ITEM: NUMBER OF ATOMS
7
ITEM: BOX BOUNDS ss ss ss
-2.9426 3.2563
-2.8328 3.4125
-2.0834 1.8857
ITEM: ATOMS id type xs ys zs
1 1 .527462 .988354 .488702
2 1 .991702 .585688 .465163
3 1 .744400 .011999 .441680
4 1 .133245 .070523 .525143
5 1 .005466 .670526 .557304
6 1 .504505 .453862 .988698
7 1 .464420 .467873 .011314
ITEM: TIMESTEP
200
ITEM: NUMBER OF ATOMS
7
ITEM: BOX BOUNDS ss ss ss
-2.9426 3.2563
-2.8329 3.4115
-2.0811 1.8880
ITEM: ATOMS id type xs ys zs
1 1 .528441 .986459 .488719
2 1 .991514 .584246 .464146
3 1 .745546 .013347 .439621
4 1 .132936 .069757 .525079
5 1 .004062 .667908 .556996
6 1 .504248 .455277 .987989
7 1 .465550 .466784 .010884
ITEM: TIMESTEP
250
ITEM: NUMBER OF ATOMS
7
ITEM: BOX BOUNDS ss ss ss
-2.9426 3.2473
-2.8348 3.4040
-2.0876 1.8866
ITEM: ATOMS id type xs ys zs
1 1 .528481 .987760 .490286
2 1 .993027 .584942 .462820
3 1 .746544 .013075 .442897
4 1 .132388 .070529 .525454
5 1 .004639 .668408 .558625
6 1 .504197 .457394 .988174
7 1 .464656 .466410 .014163
ITEM: TIMESTEP
300
ITEM: NUMBER OF ATOMS
7
ITEM: BOX BOUNDS ss ss ss
-2.9528 3.2478
-2.8274 3.4016
-2.0898 1.8912
ITEM: ATOMS id type xs ys zs
1 1 .530375 .987691 .491051
2 1 .990040 .585569 .463142
3 1 .748149 .012847 .444712
4 1 .134896 .068407 .520933
5 1 .005939 .667605 .557526
6 1 .503776 .454850 .986690
7 1 .465089 .468270 .011695
ITEM: TIMESTEP
350
ITEM: NUMBER OF ATOMS
7
ITEM: BOX BOUNDS ss ss ss
-2.9519 3.2580
-2.8241 3.3987
-2.0971 1.8915
ITEM: ATOMS id type xs ys zs
1 1 .529260 .987892 .492996
2 1 .988915 .584516 .463863
3 1 .746517 .011668 .445732
4 1 .136181 .068252 .522864
5 1 .006143 .667886 .559203
6 1 .502361 .455187 .987006
7 1 .462867 .468339 .012921
ITEM: TIMESTEP
400
ITEM: NUMBER OF ATOMS
7
ITEM: BOX BOUNDS ss ss ss
-2.9555 3.2609
-2.8213 3.3815
-2.0909 1.9011
ITEM: ATOMS id type xs ys zs
1 1 .528477 .989739 .490100
2 1 .990270 .585867 .462244
3 1 .747467 .012246 .443799
4 1 .135962 .068155 .523686
5 1 .006762 .669734 .555511
6 1 .503198 .455702 .983746
7 1 .463534 .468693 .011711
ITEM: TIMESTEP
1
ITEM: NUMBER OF ATOMS
7
ITEM: BOX BOUNDS ss ss ss
-2.9484 3.2442
-2.8018 3.3725
-2.0870 1.8953
ITEM: ATOMS id type xs ys zs
1 1 .529003 .998232 .482303
2 1 .990928 .584560 .464410
3 1 .744936 .002745 .441749
4 1 .132370 .067825 .525260
5 1 .008936 .673316 .557875
6 1 .506228 .453252 .985259
7 1 .464651 .467835 .012489
ITEM: TIMESTEP
50
ITEM: NUMBER OF ATOMS
7
ITEM: BOX BOUNDS ss ss ss
-2.9484 3.2442
-2.8188 3.3938
-2.0870 1.8953
ITEM: ATOMS id type xs ys zs
1 1 .529089 .993538 .485156
2 1 .992014 .582325 .463576
3 1 .745011 .005509 .441800
4 1 .132328 .069111 .525741
5 1 .007897 .671372 .557868
6 1 .505768 .452781 .983875
7 1 .464226 .467157 .012262
ITEM: TIMESTEP
100
ITEM: NUMBER OF ATOMS
7
ITEM: BOX BOUNDS ss ss ss
-2.9484 3.2347
-2.8291 3.4068
-2.0870 1.8953
ITEM: ATOMS id type xs ys zs
1 1 .530340 .990299 .483995
2 1 .992534 .582951 .462200
3 1 .745326 .009603 .441003
4 1 .133971 .071170 .529131
5 1 .006854 .669461 .558042
6 1 .508265 .453509 .988111
7 1 .463242 .469438 .013803
ITEM: TIMESTEP
150
ITEM: NUMBER OF ATOMS
7
ITEM: BOX BOUNDS ss ss ss
-2.9484 3.2426
-2.8336 3.4044
-2.0870 1.8953
ITEM: ATOMS id type xs ys zs
1 1 .530123 .992161 .483457
2 1 .992025 .583764 .466070
3 1 .746584 .011665 .445821
4 1 .132630 .073675 .524898
5 1 .009012 .673464 .560419
6 1 .506296 .454960 .986204
7 1 .464056 .467642 .013453
ITEM: TIMESTEP
200
ITEM: NUMBER OF ATOMS
7
ITEM: BOX BOUNDS ss ss ss
-2.9484 3.2347
-2.8345 3.4059
-2.0870 1.8953
ITEM: ATOMS id type xs ys zs
1 1 .529970 .989053 .483080
2 1 .993437 .584575 .463227
3 1 .749570 .009737 .442527
4 1 .136164 .074815 .526534
5 1 .007731 .672112 .562649
6 1 .506113 .454099 .984535
7 1 .464274 .470621 .011702
ITEM: TIMESTEP
250
ITEM: NUMBER OF ATOMS
7
ITEM: BOX BOUNDS ss ss ss
-2.9484 3.2402
-2.8393 3.4031
-2.0927 1.8953
ITEM: ATOMS id type xs ys zs
1 1 .529060 .991177 .484160
2 1 .992981 .584447 .465411
3 1 .749019 .012259 .444316
4 1 .134198 .073214 .527728
5 1 .009140 .671980 .561925
6 1 .506478 .457140 .987998
7 1 .461604 .470047 .015111
ITEM: TIMESTEP
300
ITEM: NUMBER OF ATOMS
7
ITEM: BOX BOUNDS ss ss ss
-2.9484 3.2471
-2.8378 3.4001
-2.1007 1.8953
ITEM: ATOMS id type xs ys zs
1 1 .530126 .991320 .483151
2 1 .991270 .579798 .464191
3 1 .748585 .011714 .444590
4 1 .133826 .069217 .520894
5 1 .008270 .673270 .560175
6 1 .505536 .456244 .982495
7 1 .460750 .467220 .012680
ITEM: TIMESTEP
350
ITEM: NUMBER OF ATOMS
7
ITEM: BOX BOUNDS ss ss ss
-2.9532 3.2481
-2.8495 3.4031
-2.0911 1.8953
ITEM: ATOMS id type xs ys zs
1 1 .529601 .990442 .483459
2 1 .992457 .586454 .461653
3 1 .747801 .013003 .443278
4 1 .132247 .076339 .524162
5 1 .006961 .674258 .560124
6 1 .506830 .457505 .985443
7 1 .464413 .467372 .014541
ITEM: TIMESTEP
400
ITEM: NUMBER OF ATOMS
7
ITEM: BOX BOUNDS ss ss ss
-2.9599 3.2577
-2.8393 3.4088
-2.0870 1.8949
ITEM: ATOMS id type xs ys zs
1 1 .528894 .987004 .484336
2 1 .989803 .583044 .462971
3 1 .745023 .010177 .439012
4 1 .130415 .070831 .520612
5 1 .005700 .675224 .553818
6 1 .500068 .452085 .978907
7 1 .460310 .466205 .011524
ITEM: TIMESTEP
1
ITEM: NUMBER OF ATOMS
7
ITEM: BOX BOUNDS ss ss ss
-2.9484 3.2441
-2.8184 3.3931
-2.0870 1.8949
ITEM: ATOMS id type xs ys zs
1 1 .529008 .994917 .482361
2 1 .990935 .583718 .464461
3 1 .744952 .005419 .441800
4 1 .132380 .070090 .525317
5 1 .008933 .671938 .557945
6 1 .506236 .453216 .985380
7 1 .464651 .467702 .012468
ITEM: TIMESTEP
50
ITEM: NUMBER OF ATOMS
7
ITEM: BOX BOUNDS ss ss ss
-2.9484 3.2441
-2.8198 3.3978
-2.0870 1.8949
ITEM: ATOMS id type xs ys zs
1 1 .529079 .993215 .483354
2 1 .991373 .582383 .464675
3 1 .745280 .005983 .441953
4 1 .133282 .070213 .525349
5 1 .008186 .670956 .558698
6 1 .505651 .453199 .984431
7 1 .464627 .467057 .010675
ITEM: TIMESTEP
100
ITEM: NUMBER OF ATOMS
7
ITEM: BOX BOUNDS ss ss ss
-2.9484 3.2441
-2.8273 3.4064
-2.0870 1.8949
ITEM: ATOMS id type xs ys zs
1 1 .528071 .989578 .483301
2 1 .992989 .582845 .465098
3 1 .744218 .008803 .444431
4 1 .133243 .071594 .524594
5 1 .009833 .670840 .560422
6 1 .506224 .453986 .985660
7 1 .463822 .468237 .014386
ITEM: TIMESTEP
150
ITEM: NUMBER OF ATOMS
7
ITEM: BOX BOUNDS ss ss ss
-2.9484 3.2441
-2.8310 3.4090
-2.0870 1.8949
ITEM: ATOMS id type xs ys zs
1 1 .529082 .988261 .480179
2 1 .994602 .582118 .465190
3 1 .744979 .010849 .449571
4 1 .133808 .071065 .523817
5 1 .009171 .669044 .555911
6 1 .506669 .455519 .985465
7 1 .462777 .465870 .013082
ITEM: TIMESTEP
200
ITEM: NUMBER OF ATOMS
7
ITEM: BOX BOUNDS ss ss ss
-2.9484 3.2441
-2.8385 3.4072
-2.0889 1.8949
ITEM: ATOMS id type xs ys zs
1 1 .528255 .989520 .483931
2 1 .994067 .581557 .465093
3 1 .746070 .012324 .445683
4 1 .130750 .072711 .527381
5 1 .006877 .672546 .563936
6 1 .506060 .453675 .985598
7 1 .464402 .469994 .012326
ITEM: TIMESTEP
250
ITEM: NUMBER OF ATOMS
7
ITEM: BOX BOUNDS ss ss ss
-2.9484 3.2441
-2.8403 3.4063
-2.0871 1.8949
ITEM: ATOMS id type xs ys zs
1 1 .526854 .989087 .484063
2 1 .994978 .581971 .463529
3 1 .747435 .013442 .443673
4 1 .131625 .075792 .526903
5 1 .006776 .671527 .565601
6 1 .506869 .455380 .987153
7 1 .465521 .472056 .012223
ITEM: TIMESTEP
300
ITEM: NUMBER OF ATOMS
7
ITEM: BOX BOUNDS ss ss ss
-2.9484 3.2479
-2.8376 3.4024
-2.0870 1.8949
ITEM: ATOMS id type xs ys zs
1 1 .526938 .988545 .483527
2 1 .992907 .581901 .461931
3 1 .746696 .014280 .444079
4 1 .131313 .074558 .525281
5 1 .007683 .671778 .566598
6 1 .506333 .455049 .987684
7 1 .463742 .470474 .012920
ITEM: TIMESTEP
350
ITEM: NUMBER OF ATOMS
7
ITEM: BOX BOUNDS ss ss ss
-2.9484 3.2562
-2.8248 3.3969
-2.0870 1.8949
ITEM: ATOMS id type xs ys zs
1 1 .526989 .989502 .482469
2 1 .990505 .582454 .463855
3 1 .745237 .011265 .443167
4 1 .132781 .072312 .529723
5 1 .007516 .671854 .560391
6 1 .504094 .455874 .986750
7 1 .464494 .468167 .008487
ITEM: TIMESTEP
400
ITEM: NUMBER OF ATOMS
7
ITEM: BOX BOUNDS ss ss ss
-2.9484 3.2581
-2.8156 3.3952
-2.0870 1.8949
ITEM: ATOMS id type xs ys zs
1 1 .528183 .989193 .485372
2 1 .991906 .580772 .460621
3 1 .746644 .010350 .445031
4 1 .131015 .071730 .528113
5 1 .006936 .672151 .566772
6 1 .505730 .454708 .983178
7 1 .461622 .468431 .012486
ITEM: TIMESTEP
1
ITEM: NUMBER OF ATOMS
7
ITEM: BOX BOUNDS ss ss ss
-2.9484 3.2550
-2.8117 3.3906
-2.0919 1.8949
ITEM: ATOMS id type xs ys zs
1 1 .528091 .995321 .483006
2 1 .989230 .583509 .465126
3 1 .743651 .004325 .442499
4 1 .132155 .069130 .525905
5 1 .008914 .671864 .558505
6 1 .505339 .452815 .985399
7 1 .463840 .467330 .013712
ITEM: TIMESTEP
50
ITEM: NUMBER OF ATOMS
7
ITEM: BOX BOUNDS ss ss ss
-2.9484 3.2550
-2.8163 3.3951
-2.0919 1.8949
ITEM: ATOMS id type xs ys zs
1 1 .528877 .993989 .485267
2 1 .990520 .582262 .463305
3 1 .744316 .004848 .442882
4 1 .133451 .069021 .525734
5 1 .008439 .672583 .559178
6 1 .505801 .453779 .986203
7 1 .463190 .466877 .014354
ITEM: TIMESTEP
100
ITEM: NUMBER OF ATOMS
7
ITEM: BOX BOUNDS ss ss ss
-2.9484 3.2550
-2.8315 3.4097
-2.0919 1.8949
ITEM: ATOMS id type xs ys zs
1 1 .528137 .991778 .484646
2 1 .989850 .582508 .462990
3 1 .743294 .010038 .442338
4 1 .132905 .071110 .525482
5 1 .006911 .671529 .557863
6 1 .503415 .456469 .984454
7 1 .463824 .468119 .014415
ITEM: TIMESTEP
150
ITEM: NUMBER OF ATOMS
7
ITEM: BOX BOUNDS ss ss ss
-2.9484 3.2550
-2.8415 3.4090
-2.0919 1.8949
ITEM: ATOMS id type xs ys zs
1 1 .526166 .989334 .481669
2 1 .988557 .583209 .464232
3 1 .744763 .010556 .445456
4 1 .132963 .072959 .527658
5 1 .004876 .672898 .553593
6 1 .500709 .455049 .987435
7 1 .460931 .467632 .016282
ITEM: TIMESTEP
200
ITEM: NUMBER OF ATOMS
7
ITEM: BOX BOUNDS ss ss ss
-2.9484 3.2550
-2.8358 3.4086
-2.0938 1.8949
ITEM: ATOMS id type xs ys zs
1 1 .525996 .988933 .483293
2 1 .990238 .583149 .465313
3 1 .744426 .010345 .445950
4 1 .132223 .072157 .527119
5 1 .004463 .671890 .554991
6 1 .501377 .455177 .984212
7 1 .461261 .466992 .016674
ITEM: TIMESTEP
250
ITEM: NUMBER OF ATOMS
7
ITEM: BOX BOUNDS ss ss ss
-2.9498 3.2545
-2.8347 3.4030
-2.0919 1.8949
ITEM: ATOMS id type xs ys zs
1 1 .533405 .989057 .484431
2 1 .990829 .582530 .465497
3 1 .746056 .010653 .443741
4 1 .132484 .071505 .530558
5 1 .006083 .673171 .555530
6 1 .500381 .456317 .982829
7 1 .461533 .468960 .012773
ITEM: TIMESTEP
300
ITEM: NUMBER OF ATOMS
7
ITEM: BOX BOUNDS ss ss ss
-2.9647 3.2545
-2.8359 3.4031
-2.0919 1.8949
ITEM: ATOMS id type xs ys zs
1 1 .531848 .988772 .484318
2 1 .989994 .583320 .465680
3 1 .746815 .011371 .444062
4 1 .134842 .073006 .530782
5 1 .008074 .672384 .554099
6 1 .502343 .456414 .983176
7 1 .463025 .468606 .012179
ITEM: TIMESTEP
350
ITEM: NUMBER OF ATOMS
7
ITEM: BOX BOUNDS ss ss ss
-2.9667 3.2545
-2.8203 3.3969
-2.0919 1.8949
ITEM: ATOMS id type xs ys zs
1 1 .532067 .989418 .483975
2 1 .990345 .582239 .466718
3 1 .751043 .011195 .442502
4 1 .135842 .069354 .529166
5 1 .007457 .672879 .554630
6 1 .502971 .454733 .985101
7 1 .461931 .467090 .013343
ITEM: TIMESTEP
400
ITEM: NUMBER OF ATOMS
7
ITEM: BOX BOUNDS ss ss ss
-2.9644 3.2453
-2.8249 3.3955
-2.0899 1.8981
ITEM: ATOMS id type xs ys zs
1 1 .532038 .988984 .482118
2 1 .993425 .581697 .464769
3 1 .752057 .011841 .444396
4 1 .136159 .069052 .528976
5 1 .006904 .673380 .549979
6 1 .503175 .456389 .983022
7 1 .462203 .468506 .013875
ITEM: TIMESTEP
1
ITEM: NUMBER OF ATOMS
7
ITEM: BOX BOUNDS ss ss ss
-2.9681 3.2432
-2.8176 3.3930
-2.0861 1.8818
ITEM: ATOMS id type xs ys zs
1 1 .530603 .994941 .483851
2 1 .991107 .583685 .465870
3 1 .745879 .005268 .443117
4 1 .135168 .069955 .526958
5 1 .012080 .671920 .559690
6 1 .507875 .453137 .988627
7 1 .466433 .467642 .012296
ITEM: TIMESTEP
50
ITEM: NUMBER OF ATOMS
7
ITEM: BOX BOUNDS ss ss ss
-2.9681 3.2432
-2.8176 3.3972
-2.0861 1.8818
ITEM: ATOMS id type xs ys zs
1 1 .531628 .993407 .484796
2 1 .990508 .582868 .464233
3 1 .745680 .005565 .441918
4 1 .136378 .070026 .525663
5 1 .009816 .671161 .559718
6 1 .507702 .453690 .989176
7 1 .464828 .468091 .012139
ITEM: TIMESTEP
100
ITEM: NUMBER OF ATOMS
7
ITEM: BOX BOUNDS ss ss ss
-2.9681 3.2432
-2.8300 3.4109
-2.0861 1.8825
ITEM: ATOMS id type xs ys zs
1 1 .531143 .990747 .483916
2 1 .990987 .582084 .463184
3 1 .745803 .007822 .440160
4 1 .135991 .071944 .527992
5 1 .008855 .670084 .558645
6 1 .507198 .455367 .991498
7 1 .465261 .467921 .013489
ITEM: TIMESTEP
150
ITEM: NUMBER OF ATOMS
7
ITEM: BOX BOUNDS ss ss ss
-2.9681 3.2432
-2.8373 3.4099
-2.0861 1.8823
ITEM: ATOMS id type xs ys zs
1 1 .533206 .989500 .486932
2 1 .991491 .584950 .468802
3 1 .746418 .008635 .443581
4 1 .135320 .071868 .528184
5 1 .008484 .670107 .563587
6 1 .507280 .455644 .983250
7 1 .464503 .465379 .011514
ITEM: TIMESTEP
200
ITEM: NUMBER OF ATOMS
7
ITEM: BOX BOUNDS ss ss ss
-2.9681 3.2432
-2.8439 3.4119
-2.0932 1.8826
ITEM: ATOMS id type xs ys zs
1 1 .530801 .987036 .479208
2 1 .992578 .581637 .469176
3 1 .747253 .011360 .444113
4 1 .136485 .069341 .535327
5 1 .010838 .672003 .562256
6 1 .506691 .456461 .985808
7 1 .464362 .467851 .013061
ITEM: TIMESTEP
250
ITEM: NUMBER OF ATOMS
7
ITEM: BOX BOUNDS ss ss ss
-2.9666 3.2434
-2.8407 3.4137
-2.0928 1.8901
ITEM: ATOMS id type xs ys zs
1 1 .532212 .987622 .477970
2 1 .991588 .580441 .469513
3 1 .748482 .011890 .444670
4 1 .136560 .070011 .533828
5 1 .009649 .673211 .561458
6 1 .504073 .457441 .982376
7 1 .463927 .467918 .013632
ITEM: TIMESTEP
300
ITEM: NUMBER OF ATOMS
7
ITEM: BOX BOUNDS ss ss ss
-2.9661 3.2459
-2.8431 3.4219
-2.0861 1.8833
ITEM: ATOMS id type xs ys zs
1 1 .530704 .983955 .479477
2 1 .992214 .583960 .470245
3 1 .747263 .012973 .445088
4 1 .135349 .070714 .531792
5 1 .007108 .670184 .559918
6 1 .506188 .455845 .987481
7 1 .463053 .467055 .010823
ITEM: TIMESTEP
350
ITEM: NUMBER OF ATOMS
7
ITEM: BOX BOUNDS ss ss ss
-2.9644 3.2371
-2.8444 3.4106
-2.0946 1.8846
ITEM: ATOMS id type xs ys zs
1 1 .531432 .987801 .484154
2 1 .993886 .583293 .468256
3 1 .747412 .013239 .448083
4 1 .133840 .071260 .533388
5 1 .009219 .670416 .560597
6 1 .509002 .456752 .988374
7 1 .464592 .467600 .015014
ITEM: TIMESTEP
400
ITEM: NUMBER OF ATOMS
7
ITEM: BOX BOUNDS ss ss ss
-2.9644 3.2430
-2.8274 3.3976
-2.1028 1.8780
ITEM: ATOMS id type xs ys zs
1 1 .528833 .989361 .485313
2 1 .991855 .585202 .466811
3 1 .748327 .009460 .450870
4 1 .137779 .071088 .530335
5 1 .006371 .675575 .564854
6 1 .507184 .454799 .986535
7 1 .462254 .466341 .012384
ITEM: TIMESTEP
1
ITEM: NUMBER OF ATOMS
7
ITEM: BOX BOUNDS ss ss ss
-2.9644 3.2433
-2.8252 3.3834
-2.0912 1.8807
ITEM: ATOMS id type xs ys zs
1 1 .530294 .996469 .484661
2 1 .991101 .585085 .466700
3 1 .745709 .006476 .443972
4 1 .134647 .071223 .527693
5 1 .011474 .673349 .560409
6 1 .507561 .454490 .988899
7 1 .466078 .469025 .013591
ITEM: TIMESTEP
50
ITEM: NUMBER OF ATOMS
7
ITEM: BOX BOUNDS ss ss ss
-2.9644 3.2433
-2.8168 3.3970
-2.0912 1.8780
ITEM: ATOMS id type xs ys zs
1 1 .530501 .992594 .485502
2 1 .991613 .580754 .465318
3 1 .746076 .003177 .446533
4 1 .135134 .069469 .526712
5 1 .011774 .670175 .561938
6 1 .507575 .454598 .989860
7 1 .465490 .467099 .012765
ITEM: TIMESTEP
100
ITEM: NUMBER OF ATOMS
7
ITEM: BOX BOUNDS ss ss ss
-2.9644 3.2433
-2.8268 3.4077
-2.0912 1.8789
ITEM: ATOMS id type xs ys zs
1 1 .530574 .992846 .483449
2 1 .990994 .583368 .464171
3 1 .746843 .007618 .444192
4 1 .133419 .071225 .527385
5 1 .010186 .672263 .558382
6 1 .506491 .456307 .987996
7 1 .467116 .465875 .010733
ITEM: TIMESTEP
150
ITEM: NUMBER OF ATOMS
7
ITEM: BOX BOUNDS ss ss ss
-2.9644 3.2404
-2.8382 3.4127
-2.0912 1.8860
ITEM: ATOMS id type xs ys zs
1 1 .529706 .990320 .486820
2 1 .988531 .582726 .468419
3 1 .749042 .010606 .441914
4 1 .133356 .071827 .532188
5 1 .009038 .673252 .566149
6 1 .503473 .455599 .986734
7 1 .464212 .466878 .015809
ITEM: TIMESTEP
200
ITEM: NUMBER OF ATOMS
7
ITEM: BOX BOUNDS ss ss ss
-2.9644 3.2404
-2.8469 3.4103
-2.0912 1.8939
ITEM: ATOMS id type xs ys zs
1 1 .528349 .989755 .486377
2 1 .988973 .582922 .466859
3 1 .748708 .013149 .439719
4 1 .133821 .073261 .532400
5 1 .008998 .672312 .566086
6 1 .502765 .455361 .983120
7 1 .462505 .467700 .013979
ITEM: TIMESTEP
250
ITEM: NUMBER OF ATOMS
7
ITEM: BOX BOUNDS ss ss ss
-2.9644 3.2404
-2.8470 3.4162
-2.0912 1.8883
ITEM: ATOMS id type xs ys zs
1 1 .527112 .989602 .487984
2 1 .993023 .582338 .467094
3 1 .748113 .010877 .443644
4 1 .135362 .075910 .525799
5 1 .010141 .671589 .559749
6 1 .506002 .456930 .985236
7 1 .468399 .468814 .013919
ITEM: TIMESTEP
300
ITEM: NUMBER OF ATOMS
7
ITEM: BOX BOUNDS ss ss ss
-2.9644 3.2499
-2.8498 3.4110
-2.0913 1.8873
ITEM: ATOMS id type xs ys zs
1 1 .527699 .990414 .489789
2 1 .993235 .583012 .464083
3 1 .745118 .012221 .443850
4 1 .133331 .076445 .525035
5 1 .009356 .671935 .560112
6 1 .505900 .456116 .985143
7 1 .467111 .468851 .013062
ITEM: TIMESTEP
350
ITEM: NUMBER OF ATOMS
7
ITEM: BOX BOUNDS ss ss ss
-2.9644 3.2493
-2.8451 3.4035
-2.0912 1.8820
ITEM: ATOMS id type xs ys zs
1 1 .528426 .990236 .491358