ITEM: TIMESTEP
1
ITEM: NUMBER OF ATOMS
7
ITEM: BOX BOUNDS ss ss ss
-2.8969 3.1919
-2.7900 3.3665
-2.0408 1.8409
ITEM: ATOMS id type xs ys zs
1 1 .529537 .999339 .482785
2 1 .999330 .584379 .464663
3 1 .749149 .000737 .441218
4 1 .126156 .066091 .527011
5 1 .000710 .673313 .560466
6 1 .506443 .452575 .998930
7 1 .464143 .467260 .000991
ITEM: TIMESTEP
50
ITEM: NUMBER OF ATOMS
7
ITEM: BOX BOUNDS ss ss ss
-2.9190 3.2131
-2.8178 3.3919
-2.0640 1.8626
ITEM: ATOMS id type xs ys zs
1 1 .529326 .995441 .482707
2 1 .995760 .584024 .465520
3 1 .747345 .005022 .441793
4 1 .128797 .069906 .526990
5 1 .004472 .672041 .560110
6 1 .506492 .453016 .993467
7 1 .464593 .467765 .007103
ITEM: TIMESTEP
100
ITEM: NUMBER OF ATOMS
7
ITEM: BOX BOUNDS ss ss ss
-2.9261 3.2270
-2.8250 3.3966
-2.0749 1.8709
ITEM: ATOMS id type xs ys zs
1 1 .528725 .994198 .482976
2 1 .993636 .584166 .466178
3 1 .745947 .006292 .442277
4 1 .129497 .070795 .527187
5 1 .005501 .672061 .560633
6 1 .505775 .453338 .991351
7 1 .464216 .468130 .009759
ITEM: TIMESTEP
150
ITEM: NUMBER OF ATOMS
7
ITEM: BOX BOUNDS ss ss ss
-2.9324 3.2274
-2.8307 3.3997
-2.0729 1.8748
ITEM: ATOMS id type xs ys zs
1 1 .529305 .992851 .482746
2 1 .993957 .584026 .465498
3 1 .746346 .007587 .441630
4 1 .130487 .071455 .526552
5 1 .006068 .672209 .560607
6 1 .506004 .453797 .990022
7 1 .464611 .468459 .009175
ITEM: TIMESTEP
200
ITEM: NUMBER OF ATOMS
7
ITEM: BOX BOUNDS ss ss ss
-2.9437 3.2362
-2.8324 3.3999
-2.0806 1.8765
ITEM: ATOMS id type xs ys zs
1 1 .529397 .991923 .484589
2 1 .992939 .583762 .466233
3 1 .746017 .008278 .442733
4 1 .132029 .071623 .527322
5 1 .007377 .672435 .562099
6 1 .506035 .454211 .989198
7 1 .464756 .468626 .010836
ITEM: TIMESTEP
250
ITEM: NUMBER OF ATOMS
7
ITEM: BOX BOUNDS ss ss ss
-2.9384 3.2411
-2.8224 3.3916
-2.0821 1.8815
ITEM: ATOMS id type xs ys zs
1 1 .528630 .992443 .485442
2 1 .992497 .583644 .466089
3 1 .745321 .007206 .442796
4 1 .131184 .070417 .526650
5 1 .005980 .673103 .562299
6 1 .504893 .454132 .987677
7 1 .463726 .468507 .010994
ITEM: TIMESTEP
300
ITEM: NUMBER OF ATOMS
7
ITEM: BOX BOUNDS ss ss ss
-2.9515 3.2414
-2.8217 3.3884
-2.0822 1.8799
ITEM: ATOMS id type xs ys zs
1 1 .529877 .992321 .486940
2 1 .992630 .583601 .466302
3 1 .745812 .007669 .443521
4 1 .132933 .070676 .526438
5 1 .007645 .673812 .562993
6 1 .505537 .454494 .988083
7 1 .464630 .468833 .010627
ITEM: TIMESTEP
350
ITEM: NUMBER OF ATOMS
7
ITEM: BOX BOUNDS ss ss ss
-2.9517 3.2450
-2.8215 3.3837
-2.0921 1.8833
ITEM: ATOMS id type xs ys zs
1 1 .529982 .992411 .488730
2 1 .992241 .583448 .466815
3 1 .745405 .008238 .445408
4 1 .132888 .070873 .526350
5 1 .007360 .674306 .563869
6 1 .505063 .455225 .987389
7 1 .464162 .469317 .012443
ITEM: TIMESTEP
400
ITEM: NUMBER OF ATOMS
7
ITEM: BOX BOUNDS ss ss ss
-2.9586 3.2471
-2.8215 3.3902
-2.1051 1.8790
ITEM: ATOMS id type xs ys zs
1 1 .530472 .990716 .491928
2 1 .992251 .582261 .468712
3 1 .745766 .008656 .447872
4 1 .133813 .070788 .527564
5 1 .007862 .673414 .566111
6 1 .505185 .455063 .987961
7 1 .464264 .468897 .015224
ITEM: TIMESTEP
1
ITEM: NUMBER OF ATOMS
7
ITEM: BOX BOUNDS ss ss ss
-2.9606 3.2418
-2.8121 3.3761
-2.0908 1.8770
ITEM: ATOMS id type xs ys zs
1 1 .530100 .997793 .484901
2 1 .991291 .584959 .467181
3 1 .745691 .004307 .444239
4 1 .134113 .069326 .528165
5 1 .010965 .673436 .560892
6 1 .507432 .453828 .989857
7 1 .465906 .468435 .013551
ITEM: TIMESTEP
50
ITEM: NUMBER OF ATOMS
7
ITEM: BOX BOUNDS ss ss ss
-2.9606 3.2418
-2.8185 3.3910
-2.0908 1.8770
ITEM: ATOMS id type xs ys zs
1 1 .529988 .995677 .484345
2 1 .991194 .584219 .467547
3 1 .745581 .005066 .443907
4 1 .134032 .070053 .528264
5 1 .011169 .672201 .560988
6 1 .507462 .453114 .989955
7 1 .466039 .467884 .013754
ITEM: TIMESTEP
100
ITEM: NUMBER OF ATOMS
7
ITEM: BOX BOUNDS ss ss ss
-2.9589 3.2418
-2.8254 3.3965
-2.0908 1.8770
ITEM: ATOMS id type xs ys zs
1 1 .529838 .994336 .483950
2 1 .991298 .584344 .467662
3 1 .745466 .006289 .443788
4 1 .133747 .070989 .528315
5 1 .010774 .672240 .561411
6 1 .507179 .453356 .990010
7 1 .466052 .468190 .013733
ITEM: TIMESTEP
150
ITEM: NUMBER OF ATOMS
7
ITEM: BOX BOUNDS ss ss ss
-2.9589 3.2418
-2.8277 3.4078
-2.0908 1.8823
ITEM: ATOMS id type xs ys zs
1 1 .529887 .991834 .483095
2 1 .991553 .583479 .467243
3 1 .745452 .007131 .443142
4 1 .133676 .071246 .527764
5 1 .010407 .671422 .561334
6 1 .506916 .452913 .988639
7 1 .465951 .467641 .013650
ITEM: TIMESTEP
200
ITEM: NUMBER OF ATOMS
7
ITEM: BOX BOUNDS ss ss ss
-2.9589 3.2407
-2.8306 3.4014
-2.0908 1.8806
ITEM: ATOMS id type xs ys zs
1 1 .530056 .992016 .483269
2 1 .992032 .584123 .467558
3 1 .745824 .008565 .443143
4 1 .133579 .071946 .528244
5 1 .009872 .672473 .562335
6 1 .506892 .453978 .989090
7 1 .465683 .468425 .013423
ITEM: TIMESTEP
250
ITEM: NUMBER OF ATOMS
7
ITEM: BOX BOUNDS ss ss ss
-2.9741 3.2407
-2.8313 3.3974
-2.0908 1.8915
ITEM: ATOMS id type xs ys zs
1 1 .531244 .991762 .482097
2 1 .992175 .584051 .466432
3 1 .746681 .009570 .441599
4 1 .135698 .072327 .526644
5 1 .011736 .672946 .561364
6 1 .507839 .454738 .986690
7 1 .466382 .468931 .013315
ITEM: TIMESTEP
300
ITEM: NUMBER OF ATOMS
7
ITEM: BOX BOUNDS ss ss ss
-2.9559 3.2410
-2.8294 3.3914
-2.0908 1.8904
ITEM: ATOMS id type xs ys zs
1 1 .530088 .991756 .483066
2 1 .991925 .583626 .466598
3 1 .746181 .010048 .441345
4 1 .133468 .071964 .526352
5 1 .008267 .673465 .562097
6 1 .505789 .455313 .987544
7 1 .463948 .469414 .013028
ITEM: TIMESTEP
350
ITEM: NUMBER OF ATOMS
7
ITEM: BOX BOUNDS ss ss ss
-2.9582 3.2380
-2.8208 3.3877
-2.0949 1.8960
ITEM: ATOMS id type xs ys zs
1 1 .530735 .991486 .484142
2 1 .991990 .582930 .466402
3 1 .747223 .009768 .441330
4 1 .133898 .070843 .526269
5 1 .007902 .673543 .562732
6 1 .505497 .455133 .986777
7 1 .463621 .469206 .013697
ITEM: TIMESTEP
400
ITEM: NUMBER OF ATOMS
7
ITEM: BOX BOUNDS ss ss ss
-2.9572 3.2482
-2.8268 3.3870
-2.0873 1.8952
ITEM: ATOMS id type xs ys zs
1 1 .529858 .991006 .483687
2 1 .990172 .583217 .465411
3 1 .746491 .011640 .440500
4 1 .133588 .072120 .526008
5 1 .007206 .674291 .562919
6 1 .504307 .455954 .987472
7 1 .462022 .469805 .011338
ITEM: TIMESTEP
1
ITEM: NUMBER OF ATOMS
7
ITEM: BOX BOUNDS ss ss ss
-2.9661 3.2383
-2.7987 3.3704
-2.0833 1.8912
ITEM: ATOMS id type xs ys zs
1 1 .530821 .998718 .482197
2 1 .991864 .584595 .464512
3 1 .746348 .002137 .441598
4 1 .134958 .067362 .525393
5 1 .011849 .673347 .558067
6 1 .508159 .453055 .986306
7 1 .466648 .467712 .011638
ITEM: TIMESTEP
50
ITEM: NUMBER OF ATOMS
7
ITEM: BOX BOUNDS ss ss ss
-2.9661 3.2383
-2.8135 3.3928
-2.0833 1.8912
ITEM: ATOMS id type xs ys zs
1 1 .530683 .995485 .481551
2 1 .991720 .583751 .464940
3 1 .746214 .004178 .441227
4 1 .134865 .069245 .525511
5 1 .012129 .671726 .558253
6 1 .508248 .452460 .986400
7 1 .466818 .467309 .011828
ITEM: TIMESTEP
100
ITEM: NUMBER OF ATOMS
7
ITEM: BOX BOUNDS ss ss ss
-2.9661 3.2311
-2.8251 3.4053
-2.0798 1.8912
ITEM: ATOMS id type xs ys zs
1 1 .531252 .993127 .480721
2 1 .992941 .583570 .464669
3 1 .747004 .006106 .440525
4 1 .134959 .070765 .525103
5 1 .012075 .671135 .558332
6 1 .508719 .452573 .986313
7 1 .467541 .467463 .010939
ITEM: TIMESTEP
150
ITEM: NUMBER OF ATOMS
7
ITEM: BOX BOUNDS ss ss ss
-2.9554 3.2311
-2.8270 3.3988
-2.0856 1.8912
ITEM: ATOMS id type xs ys zs
1 1 .530352 .993176 .481377
2 1 .993198 .584163 .465521
3 1 .746614 .006844 .441225
4 1 .133456 .071160 .525608
5 1 .009875 .672105 .559792
6 1 .507620 .453246 .986131
7 1 .466435 .468113 .012009
ITEM: TIMESTEP
200
ITEM: NUMBER OF ATOMS
7
ITEM: BOX BOUNDS ss ss ss
-2.9510 3.2339
-2.8285 3.4021
-2.0858 1.8912
ITEM: ATOMS id type xs ys zs
1 1 .529707 .991342 .481549
2 1 .992792 .583235 .466004
3 1 .746829 .007697 .441437
4 1 .132638 .071042 .525329
5 1 .008487 .671790 .560998
6 1 .506400 .452723 .986269
7 1 .465187 .467594 .011876
ITEM: TIMESTEP
250
ITEM: NUMBER OF ATOMS
7
ITEM: BOX BOUNDS ss ss ss
-2.9510 3.2420
-2.8243 3.3958
-2.0972 1.8912
ITEM: ATOMS id type xs ys zs
1 1 .529103 .991083 .483459
2 1 .991622 .583101 .467849
3 1 .746530 .007843 .443910
4 1 .132248 .069980 .525816
5 1 .007788 .672226 .563584
6 1 .505123 .452383 .986564
7 1 .464197 .467465 .015094
ITEM: TIMESTEP
300
ITEM: NUMBER OF ATOMS
7
ITEM: BOX BOUNDS ss ss ss
-2.9510 3.2338
-2.8317 3.3838
-2.0932 1.8912
ITEM: ATOMS id type xs ys zs
1 1 .530189 .992090 .483728
2 1 .993375 .584752 .467907
3 1 .748029 .009892 .444394
4 1 .132339 .071037 .524670
5 1 .007420 .673787 .564277
6 1 .505502 .453676 .986988
7 1 .464693 .469008 .014595
ITEM: TIMESTEP
350
ITEM: NUMBER OF ATOMS
7
ITEM: BOX BOUNDS ss ss ss
-2.9510 3.2378
-2.8225 3.3931
-2.0879 1.8891
ITEM: ATOMS id type xs ys zs
1 1 .530162 .989923 .484184
2 1 .993100 .583176 .468094
3 1 .748115 .009342 .445198
4 1 .132571 .069584 .523379
5 1 .006957 .672025 .564569
6 1 .504632 .452378 .988010
7 1 .464356 .467757 .013290
ITEM: TIMESTEP
400
ITEM: NUMBER OF ATOMS
7
ITEM: BOX BOUNDS ss ss ss
-2.9552 3.2428
-2.8212 3.3797
-2.0845 1.8977
ITEM: ATOMS id type xs ys zs
1 1 .530087 .991676 .483526
2 1 .992478 .584024 .467504
3 1 .748341 .010165 .444961
4 1 .133867 .069752 .520733
5 1 .007094 .673027 .562675
6 1 .503989 .454055 .986481
7 1 .464450 .469049 .011820
ITEM: TIMESTEP
1
ITEM: NUMBER OF ATOMS
7
ITEM: BOX BOUNDS ss ss ss
-2.9526 3.2363
-2.8026 3.3707
-2.0815 1.8857
ITEM: ATOMS id type xs ys zs
1 1 .529960 .998674 .482624
2 1 .992154 .584837 .464908
3 1 .746023 .002772 .441958
4 1 .133112 .067950 .525904
5 1 .009698 .673525 .558633
6 1 .507245 .453383 .987656
7 1 .465629 .468030 .011213
ITEM: TIMESTEP
50
ITEM: NUMBER OF ATOMS
7
ITEM: BOX BOUNDS ss ss ss
-2.9526 3.2336
-2.8164 3.3933
-2.0815 1.8857
ITEM: ATOMS id type xs ys zs
1 1 .530055 .995497 .481914
2 1 .992424 .583914 .465431
3 1 .746178 .004599 .441515
4 1 .133061 .069696 .526025
5 1 .010015 .671849 .558823
6 1 .507578 .452653 .987784
7 1 .466009 .467511 .011486
ITEM: TIMESTEP
100
ITEM: NUMBER OF ATOMS
7
ITEM: BOX BOUNDS ss ss ss
-2.9526 3.2336
-2.8267 3.4007
-2.0815 1.8857
ITEM: ATOMS id type xs ys zs
1 1 .529941 .994044 .481417
2 1 .992434 .584118 .465738
3 1 .746103 .006205 .441182
4 1 .132973 .071108 .526163
5 1 .010063 .671876 .559174
6 1 .507461 .452957 .987918
7 1 .466223 .467924 .011502
ITEM: TIMESTEP
150
ITEM: NUMBER OF ATOMS
7
ITEM: BOX BOUNDS ss ss ss
-2.9526 3.2336
-2.8406 3.4009
-2.0762 1.8857
ITEM: ATOMS id type xs ys zs
1 1 .529942 .993234 .480649
2 1 .992620 .585167 .464957
3 1 .746260 .008759 .440275
4 1 .133051 .073344 .525460
5 1 .009711 .672913 .559372
6 1 .507259 .454376 .988103
7 1 .466106 .469086 .010025
ITEM: TIMESTEP
200
ITEM: NUMBER OF ATOMS
7
ITEM: BOX BOUNDS ss ss ss
-2.9526 3.2336
-2.8486 3.4087
-2.0813 1.8877
ITEM: ATOMS id type xs ys zs
1 1 .530058 .991070 .481117
2 1 .992604 .584899 .465256
3 1 .746712 .010409 .440629
4 1 .133411 .074497 .525687
5 1 .009175 .672665 .560588
6 1 .507111 .454565 .987882
7 1 .465730 .469235 .011087
ITEM: TIMESTEP
250
ITEM: NUMBER OF ATOMS
7
ITEM: BOX BOUNDS ss ss ss
-2.9526 3.2336
-2.8470 3.3922
-2.0803 1.8914
ITEM: ATOMS id type xs ys zs
1 1 .530532 .992690 .480315
2 1 .992888 .586199 .463896
3 1 .747221 .010813 .440086
4 1 .133867 .074001 .524976
5 1 .009036 .674154 .560898
6 1 .507148 .455592 .986882
7 1 .465407 .470228 .010327
ITEM: TIMESTEP
300
ITEM: NUMBER OF ATOMS
7
ITEM: BOX BOUNDS ss ss ss
-2.9533 3.2402
-2.8268 3.3887
-2.0868 1.8979
ITEM: ATOMS id type xs ys zs
1 1 .530742 .992274 .479855
2 1 .992379 .584927 .462906
3 1 .746875 .008359 .440353
4 1 .134940 .070467 .525418
5 1 .009495 .673369 .561964
6 1 .507235 .454100 .985478
7 1 .464544 .468487 .011031
ITEM: TIMESTEP
350
ITEM: NUMBER OF ATOMS
7
ITEM: BOX BOUNDS ss ss ss
-2.9613 3.2398
-2.8227 3.3910
-2.0921 1.8879
ITEM: ATOMS id type xs ys zs
1 1 .531927 .991327 .481380
2 1 .992780 .583958 .463452
3 1 .747380 .008131 .442019
4 1 .136547 .069649 .528086
5 1 .010959 .672719 .565257
6 1 .508487 .453930 .987889
7 1 .464887 .467847 .011837
ITEM: TIMESTEP
400
ITEM: NUMBER OF ATOMS
7
ITEM: BOX BOUNDS ss ss ss
-2.9633 3.2502
-2.8214 3.3869
-2.0936 1.8977
ITEM: ATOMS id type xs ys zs
1 1 .532055 .991393 .480039
2 1 .991580 .583259 .461174
3 1 .746209 .008139 .441377
4 1 .136816 .069523 .527505
5 1 .011383 .673218 .565531
6 1 .508298 .454485 .985229
7 1 .463904 .468011 .011975
ITEM: TIMESTEP
1
ITEM: NUMBER OF ATOMS
7
ITEM: BOX BOUNDS ss ss ss
-2.9426 3.2563
-2.8271 3.3794
-2.0897 1.8857
ITEM: ATOMS id type xs ys zs
1 1 .527494 .997274 .483689
2 1 .988942 .585651 .466008
3 1 .743207 .006700 .443104
4 1 .131283 .071529 .526876
5 1 .008070 .673866 .559542
6 1 .504814 .454900 .987677
7 1 .463266 .469467 .013245
ITEM: TIMESTEP
50
ITEM: NUMBER OF ATOMS
7
ITEM: BOX BOUNDS ss ss ss
-2.9426 3.2563
-2.8271 3.3953
-2.0897 1.8857
ITEM: ATOMS id type xs ys zs
1 1 .527344 .995290 .482900
2 1 .988739 .584489 .466576
3 1 .742998 .006259 .442548
4 1 .131155 .071228 .527033
5 1 .008429 .672146 .559654
6 1 .504948 .453383 .987807
7 1 .463478 .468277 .013576
ITEM: TIMESTEP
100
ITEM: NUMBER OF ATOMS
7
ITEM: BOX BOUNDS ss ss ss
-2.9426 3.2563
-2.8271 3.4068
-2.0897 1.8857
ITEM: ATOMS id type xs ys zs
1 1 .527266 .993276 .482208
2 1 .988787 .583710 .466938
3 1 .742868 .006132 .442174
4 1 .131109 .070952 .527142
5 1 .008554 .671018 .560032
6 1 .504871 .452436 .987974
7 1 .463737 .467523 .013670
ITEM: TIMESTEP
150
ITEM: NUMBER OF ATOMS
7
ITEM: BOX BOUNDS ss ss ss
-2.9426 3.2563
-2.8328 3.4125
-2.0834 1.8857
ITEM: ATOMS id type xs ys zs
1 1 .527522 .991544 .481103
2 1 .989166 .583695 .466452
3 1 .742998 .007336 .441085
4 1 .131178 .071713 .526200
5 1 .008319 .670938 .560129
6 1 .504788 .452606 .988086
7 1 .463859 .467596 .012004
ITEM: TIMESTEP
200
ITEM: NUMBER OF ATOMS
7
ITEM: BOX BOUNDS ss ss ss
-2.9426 3.2563
-2.8329 3.4115
-2.0811 1.8880
ITEM: ATOMS id type xs ys zs
1 1 .527975 .990692 .480862
2 1 .989555 .583689 .466273
3 1 .743236 .007837 .440489
4 1 .131273 .071747 .525029
5 1 .007942 .671292 .560322
6 1 .504816 .452817 .987289
7 1 .463545 .467568 .011114
ITEM: TIMESTEP
250
ITEM: NUMBER OF ATOMS
7
ITEM: BOX BOUNDS ss ss ss
-2.9426 3.2473
-2.8348 3.4040
-2.0876 1.8866
ITEM: ATOMS id type xs ys zs
1 1 .529115 .990614 .483289
2 1 .991695 .584689 .467968
3 1 .744245 .008983 .441283
4 1 .131518 .072026 .525246
5 1 .007350 .672030 .561188
6 1 .505270 .453666 .987556
7 1 .464008 .468413 .011954
ITEM: TIMESTEP
300
ITEM: NUMBER OF ATOMS
7
ITEM: BOX BOUNDS ss ss ss
-2.9528 3.2478
-2.8274 3.4016
-2.0898 1.8912
ITEM: ATOMS id type xs ys zs
1 1 .529985 .989938 .484462
2 1 .992085 .584503 .468715
3 1 .744727 .009066 .440700
4 1 .133033 .070435 .524844
5 1 .008413 .671119 .560376
6 1 .505293 .453326 .986683
7 1 .464943 .468196 .011911
ITEM: TIMESTEP
350
ITEM: NUMBER OF ATOMS
7
ITEM: BOX BOUNDS ss ss ss
-2.9519 3.2580
-2.8241 3.3987
-2.0971 1.8915
ITEM: ATOMS id type xs ys zs
1 1 .528745 .989679 .486298
2 1 .990649 .584332 .469871
3 1 .744017 .009783 .441492
4 1 .133009 .069524 .525650
5 1 .007674 .670342 .560549
6 1 .503912 .453364 .986896
7 1 .464127 .468401 .013587
ITEM: TIMESTEP
400
ITEM: NUMBER OF ATOMS
7
ITEM: BOX BOUNDS ss ss ss
-2.9555 3.2609
-2.8213 3.3815
-2.0909 1.9011
ITEM: ATOMS id type xs ys zs
1 1 .528130 .991764 .485182
2 1 .990115 .585956 .467142
3 1 .745035 .010528 .439946
4 1 .134198 .069092 .523587
5 1 .007851 .670944 .556566
6 1 .503828 .454638 .984567
7 1 .464390 .469458 .011376
ITEM: TIMESTEP
1
ITEM: NUMBER OF ATOMS
7
ITEM: BOX BOUNDS ss ss ss
-2.9484 3.2442
-2.8018 3.3725
-2.0870 1.8953
ITEM: ATOMS id type xs ys zs
1 1 .528965 .998388 .482168
2 1 .990889 .584618 .464523
3 1 .744900 .002645 .441658
4 1 .132347 .067813 .525284
5 1 .009010 .673293 .557889
6 1 .506265 .453184 .985279
7 1 .464674 .467828 .012555
ITEM: TIMESTEP
50
ITEM: NUMBER OF ATOMS
7
ITEM: BOX BOUNDS ss ss ss
-2.9484 3.2442
-2.8188 3.3938
-2.0870 1.8953
ITEM: ATOMS id type xs ys zs
1 1 .528780 .995575 .481328
2 1 .990680 .584125 .465142
3 1 .744698 .004867 .441147
4 1 .132215 .069988 .525428
5 1 .009393 .671860 .558030
6 1 .506390 .452751 .985411
7 1 .464877 .467675 .012966
ITEM: TIMESTEP
100
ITEM: NUMBER OF ATOMS
7
ITEM: BOX BOUNDS ss ss ss
-2.9484 3.2347
-2.8291 3.4068
-2.0870 1.8953
ITEM: ATOMS id type xs ys zs
1 1 .529491 .993366 .480640
2 1 .992235 .583925 .465548
3 1 .745791 .006401 .440666
4 1 .132380 .071231 .525372
5 1 .009442 .671216 .558420
6 1 .507135 .452546 .985427
7 1 .465841 .467617 .013172
ITEM: TIMESTEP
150
ITEM: NUMBER OF ATOMS
7
ITEM: BOX BOUNDS ss ss ss
-2.9484 3.2426
-2.8336 3.4044
-2.0870 1.8953
ITEM: ATOMS id type xs ys zs
1 1 .528964 .993042 .480113
2 1 .991182 .584630 .465878
3 1 .745166 .007339 .440235
4 1 .132308 .072063 .525087
5 1 .009232 .672176 .558905
6 1 .506303 .453112 .985275
7 1 .465451 .468250 .013085
ITEM: TIMESTEP
200
ITEM: NUMBER OF ATOMS
7
ITEM: BOX BOUNDS ss ss ss
-2.9484 3.2347
-2.8345 3.4059
-2.0870 1.8953
ITEM: ATOMS id type xs ys zs
1 1 .529737 .992372 .479549
2 1 .992475 .584884 .466301
3 1 .746564 .007835 .439967
4 1 .132525 .072480 .524646
5 1 .009137 .672702 .559741
6 1 .506781 .453036 .985131
7 1 .465850 .468222 .012849
ITEM: TIMESTEP
250
ITEM: NUMBER OF ATOMS
7
ITEM: BOX BOUNDS ss ss ss
-2.9484 3.2402
-2.8393 3.4031
-2.0927 1.8953
ITEM: ATOMS id type xs ys zs
1 1 .529394 .992603 .480093
2 1 .991812 .585765 .467599
3 1 .746316 .008951 .440839
4 1 .132368 .073443 .524978
5 1 .008925 .673743 .561326
6 1 .506268 .453654 .985185
7 1 .465199 .468893 .014492
ITEM: TIMESTEP
300
ITEM: NUMBER OF ATOMS
7
ITEM: BOX BOUNDS ss ss ss
-2.9484 3.2471
-2.8378 3.4001
-2.1007 1.8953
ITEM: ATOMS id type xs ys zs
1 1 .528651 .992596 .481234
2 1 .991036 .585834 .469193
3 1 .745971 .008963 .442115
4 1 .132016 .073270 .525708
5 1 .008392 .674206 .562988
6 1 .505494 .453672 .984896
7 1 .464421 .468966 .016688
ITEM: TIMESTEP
350
ITEM: NUMBER OF ATOMS
7
ITEM: BOX BOUNDS ss ss ss
-2.9532 3.2481
-2.8495 3.4031
-2.0911 1.8953
ITEM: ATOMS id type xs ys zs
1 1 .528419 .991213 .479881
2 1 .990955 .586353 .467723
3 1 .746529 .011212 .440897
4 1 .132237 .074952 .523424
5 1 .008701 .674461 .563013
6 1 .505643 .454340 .984301
7 1 .464576 .469214 .013564
ITEM: TIMESTEP
400
ITEM: NUMBER OF ATOMS
7
ITEM: BOX BOUNDS ss ss ss
-2.9599 3.2577
-2.8393 3.4088
-2.0870 1.8949
ITEM: ATOMS id type xs ys zs
1 1 .527466 .989771 .478581
2 1 .989116 .585085 .467621
3 1 .745697 .010335 .440824
4 1 .133159 .073594 .521654
5 1 .009526 .673124 .563963
6 1 .505204 .453241 .984662
7 1 .464024 .467923 .011224
ITEM: TIMESTEP
1
ITEM: NUMBER OF ATOMS
7
ITEM: BOX BOUNDS ss ss ss
-2.9484 3.2441
-2.8184 3.3931
-2.0870 1.8949
ITEM: ATOMS id type xs ys zs
1 1 .528974 .995076 .482221
2 1 .990896 .583785 .464581
3 1 .744908 .005295 .441710
4 1 .132348 .070078 .525343
5 1 .009013 .671927 .557958
6 1 .506268 .453134 .985397
7 1 .464679 .467692 .012556
ITEM: TIMESTEP
50
ITEM: NUMBER OF ATOMS
7
ITEM: BOX BOUNDS ss ss ss
-2.9484 3.2441
-2.8198 3.3978
-2.0870 1.8949
ITEM: ATOMS id type xs ys zs
1 1 .528787 .995001 .481319
2 1 .990665 .583809 .465222
3 1 .744678 .004996 .441167
4 1 .132188 .070119 .525526
5 1 .009436 .671489 .558135
6 1 .506433 .452530 .985496
7 1 .464919 .467453 .012938
ITEM: TIMESTEP
100
ITEM: NUMBER OF ATOMS
7
ITEM: BOX BOUNDS ss ss ss
-2.9484 3.2441
-2.8273 3.4064
-2.0870 1.8949
ITEM: ATOMS id type xs ys zs
1 1 .528662 .993603 .480484
2 1 .990675 .583831 .465661
3 1 .744511 .005996 .440778
4 1 .132083 .071008 .525628
5 1 .009632 .671190 .558507
6 1 .506375 .452375 .985642
7 1 .465205 .467570 .013029
ITEM: TIMESTEP
150
ITEM: NUMBER OF ATOMS
7
ITEM: BOX BOUNDS ss ss ss
-2.9484 3.2441
-2.8310 3.4090
-2.0870 1.8949
ITEM: ATOMS id type xs ys zs
1 1 .528609 .992770 .479783
2 1 .990844 .584045 .465904
3 1 .744536 .006731 .440566
4 1 .132046 .071508 .525950
5 1 .009498 .671438 .558906
6 1 .506283 .452481 .985576
7 1 .465292 .467647 .013210
ITEM: TIMESTEP
200
ITEM: NUMBER OF ATOMS
7
ITEM: BOX BOUNDS ss ss ss
-2.9484 3.2441
-2.8385 3.4072
-2.0889 1.8949
ITEM: ATOMS id type xs ys zs
1 1 .528346 .992459 .479494
2 1 .991219 .584908 .466573
3 1 .744610 .008196 .441052
4 1 .131926 .072707 .526216
5 1 .009276 .672288 .559966
6 1 .506171 .453271 .985353
7 1 .465315 .468511 .013677
ITEM: TIMESTEP
250
ITEM: NUMBER OF ATOMS
7
ITEM: BOX BOUNDS ss ss ss
-2.9484 3.2441
-2.8403 3.4063
-2.0871 1.8949
ITEM: ATOMS id type xs ys zs
1 1 .528385 .991918 .478807
2 1 .992169 .584331 .466486
3 1 .744667 .009467 .441317
4 1 .131826 .073398 .526240
5 1 .009123 .672466 .561468
6 1 .506260 .453589 .985362
7 1 .465404 .469135 .012699
ITEM: TIMESTEP
300
ITEM: NUMBER OF ATOMS
7
ITEM: BOX BOUNDS ss ss ss
-2.9484 3.2479
-2.8376 3.4024
-2.0870 1.8949
ITEM: ATOMS id type xs ys zs
1 1 .527996 .991753 .479063
2 1 .992860 .583145 .466025
3 1 .744768 .010443 .442494
4 1 .131308 .073748 .526947
5 1 .008789 .672668 .563664
6 1 .506617 .453775 .985405
7 1 .465012 .469668 .012727
ITEM: TIMESTEP
350
ITEM: NUMBER OF ATOMS
7
ITEM: BOX BOUNDS ss ss ss
-2.9484 3.2562
-2.8248 3.3969
-2.0870 1.8949
ITEM: ATOMS id type xs ys zs
1 1 .527452 .991690 .479589
2 1 .992164 .582330 .466202
3 1 .744207 .009084 .442426
4 1 .130729 .072563 .527366
5 1 .008347 .672368 .564710
6 1 .506327 .453198 .985482
7 1 .464385 .469090 .012699
ITEM: TIMESTEP
400
ITEM: NUMBER OF ATOMS
7
ITEM: BOX BOUNDS ss ss ss
-2.9484 3.2581
-2.8156 3.3952
-2.0870 1.8949
ITEM: ATOMS id type xs ys zs
1 1 .527467 .990950 .479949
2 1 .992247 .581967 .466444
3 1 .744166 .007910 .441742
4 1 .130556 .071506 .527306
5 1 .007958 .671975 .565237
6 1 .506176 .452747 .985768
7 1 .464324 .468156 .012554
ITEM: TIMESTEP
1
ITEM: NUMBER OF ATOMS
7
ITEM: BOX BOUNDS ss ss ss
-2.9484 3.2550
-2.8117 3.3906
-2.0919 1.8949
ITEM: ATOMS id type xs ys zs
1 1 .528049 .995483 .482859
2 1 .989169 .583575 .465241
3 1 .743609 .004224 .442392
4 1 .132120 .069100 .525938
5 1 .008995 .671848 .558498
6 1 .505388 .452731 .985414
7 1 .463869 .467310 .013778
ITEM: TIMESTEP
50
ITEM: NUMBER OF ATOMS
7
ITEM: BOX BOUNDS ss ss ss
-2.9484 3.2550
-2.8163 3.3951
-2.0919 1.8949
ITEM: ATOMS id type xs ys zs
1 1 .527829 .995467 .481909
2 1 .988923 .583846 .465977
3 1 .743388 .004391 .441774
4 1 .131963 .069628 .526077
5 1 .009444 .671556 .558648
6 1 .505558 .452398 .985575
7 1 .464101 .467342 .014145
ITEM: TIMESTEP
100
ITEM: NUMBER OF ATOMS
7
ITEM: BOX BOUNDS ss ss ss
-2.9484 3.2550
-2.8315 3.4097
-2.0919 1.8949
ITEM: ATOMS id type xs ys zs
1 1 .527747 .993142 .481072
2 1 .988847 .583885 .466628
3 1 .743247 .006573 .441296
4 1 .131919 .071613 .526190
5 1 .009654 .671025 .559119
6 1 .505490 .452463 .985725
7 1 .464454 .467648 .014326
ITEM: TIMESTEP
150
ITEM: NUMBER OF ATOMS
7
ITEM: BOX BOUNDS ss ss ss
-2.9484 3.2550
-2.8415 3.4090
-2.0919 1.8949
ITEM: ATOMS id type xs ys zs
1 1 .527737 .992731 .480572
2 1 .989032 .584973 .467302
3 1 .743331 .008407 .440874
4 1 .132025 .073113 .526277
5 1 .009621 .671976 .559843
6 1 .505311 .453298 .986001
7 1 .464499 .468550 .014325
ITEM: TIMESTEP
200
ITEM: NUMBER OF ATOMS
7
ITEM: BOX BOUNDS ss ss ss
-2.9484 3.2550
-2.8358 3.4086
-2.0938 1.8949
ITEM: ATOMS id type xs ys zs
1 1 .527519 .991888 .480877
2 1 .989101 .584564 .468084
3 1 .743904 .008123 .440983
4 1 .132394 .072154 .526595
5 1 .008904 .671948 .560528
6 1 .504686 .452665 .986216
7 1 .463859 .468218 .015057
ITEM: TIMESTEP
250
ITEM: NUMBER OF ATOMS
7
ITEM: BOX BOUNDS ss ss ss
-2.9498 3.2545
-2.8347 3.4030
-2.0919 1.8949
ITEM: ATOMS id type xs ys zs
1 1 .527658 .992057 .480863
2 1 .989232 .585093 .467619
3 1 .744615 .009023 .441348
4 1 .132928 .071740 .525520
5 1 .007378 .672663 .560323
6 1 .503891 .453470 .985835
7 1 .462758 .468659 .014910
ITEM: TIMESTEP
300
ITEM: NUMBER OF ATOMS
7
ITEM: BOX BOUNDS ss ss ss
-2.9647 3.2545
-2.8359 3.4031
-2.0919 1.8949
ITEM: ATOMS id type xs ys zs
1 1 .529014 .991417 .480954
2 1 .989602 .585961 .467744
3 1 .746425 .010657 .442028
4 1 .134990 .072064 .524364
5 1 .008416 .673110 .561049
6 1 .504865 .454471 .985251
7 1 .463256 .468835 .015333
ITEM: TIMESTEP
350
ITEM: NUMBER OF ATOMS
7
ITEM: BOX BOUNDS ss ss ss
-2.9667 3.2545
-2.8203 3.3969
-2.0919 1.8949
ITEM: ATOMS id type xs ys zs
1 1 .529307 .991965 .480838
2 1 .989875 .585580 .468501
3 1 .746969 .008580 .442473
4 1 .134996 .069968 .524508
5 1 .008254 .673318 .561000
6 1 .504710 .453998 .984528
7 1 .463592 .467759 .015316
ITEM: TIMESTEP
400
ITEM: NUMBER OF ATOMS
7
ITEM: BOX BOUNDS ss ss ss
-2.9644 3.2453
-2.8249 3.3955
-2.0899 1.8981
ITEM: ATOMS id type xs ys zs
1 1 .530125 .991724 .479605
2 1 .991707 .585415 .468822
3 1 .748070 .009385 .442340
4 1 .134666 .070932 .524484
5 1 .007725 .673744 .560115
6 1 .505004 .454810 .983567
7 1 .464270 .468125 .014529
ITEM: TIMESTEP
1
ITEM: NUMBER OF ATOMS
7
ITEM: BOX BOUNDS ss ss ss
-2.9681 3.2432
-2.8176 3.3930
-2.0861 1.8818
ITEM: ATOMS id type xs ys zs
1 1 .530554 .995100 .483698
2 1 .991078 .583741 .465993
3 1 .745834 .005157 .443041
4 1 .135133 .069948 .526970
5 1 .012168 .671894 .559700
6 1 .507921 .453066 .988644
7 1 .466456 .467630 .012385
ITEM: TIMESTEP
50
ITEM: NUMBER OF ATOMS
7
ITEM: BOX BOUNDS ss ss ss
-2.9681 3.2432
-2.8176 3.3972
-2.0861 1.8818
ITEM: ATOMS id type xs ys zs
1 1 .530325 .995230 .482674
2 1 .990813 .583800 .466730
3 1 .745581 .004559 .442383
4 1 .134933 .069792 .527168
5 1 .012660 .671393 .559867
6 1 .508091 .452315 .988753
7 1 .466708 .467262 .012808
ITEM: TIMESTEP
100
ITEM: NUMBER OF ATOMS
7
ITEM: BOX BOUNDS ss ss ss
-2.9681 3.2432
-2.8300 3.4109
-2.0861 1.8825
ITEM: ATOMS id type xs ys zs
1 1 .530242 .993082 .481717
2 1 .990822 .583836 .467113
3 1 .745355 .006289 .441765
4 1 .134798 .071320 .527111
5 1 .012975 .670787 .560285
6 1 .508100 .452127 .988741
7 1 .466940 .467366 .013099
ITEM: TIMESTEP
150
ITEM: NUMBER OF ATOMS
7
ITEM: BOX BOUNDS ss ss ss
-2.9681 3.2432
-2.8373 3.4099
-2.0861 1.8823
ITEM: ATOMS id type xs ys zs
1 1 .530449 .992702 .480974
2 1 .991150 .584847 .467379
3 1 .745364 .007760 .441346
4 1 .134500 .072200 .526747
5 1 .013071 .671500 .561289
6 1 .508079 .452609 .988800
7 1 .466925 .468146 .012862
ITEM: TIMESTEP
200
ITEM: NUMBER OF ATOMS
7
ITEM: BOX BOUNDS ss ss ss
-2.9681 3.2432
-2.8439 3.4119
-2.0932 1.8826
ITEM: ATOMS id type xs ys zs
1 1 .530723 .991857 .480746
2 1 .991465 .585490 .468806
3 1 .745598 .009210 .441621
4 1 .134212 .072817 .527273
5 1 .013041 .671686 .563044
6 1 .508180 .452869 .988320
7 1 .466799 .468457 .014594
ITEM: TIMESTEP
250
ITEM: NUMBER OF ATOMS
7
ITEM: BOX BOUNDS ss ss ss
-2.9666 3.2434
-2.8407 3.4137
-2.0928 1.8901
ITEM: ATOMS id type xs ys zs
1 1 .530882 .991166 .478707
2 1 .991706 .585302 .468143
3 1 .745957 .008867 .439996
4 1 .134092 .071974 .526558
5 1 .012714 .671614 .562504
6 1 .508002 .452328 .986148
7 1 .466391 .467822 .014675
ITEM: TIMESTEP
300
ITEM: NUMBER OF ATOMS
7
ITEM: BOX BOUNDS ss ss ss
-2.9661 3.2459
-2.8431 3.4219
-2.0861 1.8833
ITEM: ATOMS id type xs ys zs
1 1 .531054 .989088 .477611
2 1 .991381 .584500 .468919
3 1 .746326 .009576 .439537
4 1 .134364 .071994 .527803
5 1 .012259 .671267 .563347
6 1 .507484 .452292 .987748
7 1 .465652 .466949 .013022
ITEM: TIMESTEP
350
ITEM: NUMBER OF ATOMS
7
ITEM: BOX BOUNDS ss ss ss
-2.9644 3.2371
-2.8444 3.4106
-2.0946 1.8846
ITEM: ATOMS id type xs ys zs
1 1 .531122 .989080 .477738
2 1 .993236 .584663 .471758
3 1 .747917 .011237 .441906
4 1 .134851 .071959 .532053
5 1 .010138 .672639 .564153
6 1 .507368 .454633 .986812
7 1 .464575 .467496 .014197
ITEM: TIMESTEP
400
ITEM: NUMBER OF ATOMS
7
ITEM: BOX BOUNDS ss ss ss
-2.9644 3.2430
-2.8274 3.3976
-2.1028 1.8780
ITEM: ATOMS id type xs ys zs
1 1 .529718 .990096 .479345
2 1 .992641 .584564 .474888
3 1 .746630 .009263 .445178
4 1 .134731 .069203 .535359
5 1 .008737 .673048 .564926
6 1 .506210 .455223 .987935
7 1 .463324 .466733 .015805
ITEM: TIMESTEP
1
ITEM: NUMBER OF ATOMS
7
ITEM: BOX BOUNDS ss ss ss
-2.9644 3.2433
-2.8252 3.3834
-2.0912 1.8807
ITEM: ATOMS id type xs ys zs
1 1 .530262 .996642 .484500
2 1 .991060 .585150 .466816
3 1 .745672 .006389 .443877
4 1 .134608 .071197 .527729
5 1 .011569 .673334 .560421
6 1 .507615 .454437 .988933
7 1 .466126 .469005 .013659
ITEM: TIMESTEP
50
ITEM: NUMBER OF ATOMS
7
ITEM: BOX BOUNDS ss ss ss
-2.9644 3.2433
-2.8168 3.3970
-2.0912 1.8780
ITEM: ATOMS id type xs ys zs
1 1 .530048 .995297 .483764
2 1 .990808 .583761 .467960
3 1 .745364 .004393 .443515
4 1 .134399 .069675 .528336
5 1 .012084 .671391 .560944
6 1 .507813 .452236 .989725
7 1 .466382 .467207 .014125
ITEM: TIMESTEP
100
ITEM: NUMBER OF ATOMS
7
ITEM: BOX BOUNDS ss ss ss
-2.9644 3.2433
-2.8268 3.4077
-2.0912 1.8789
ITEM: ATOMS id type xs ys zs
1 1 .529905 .993714 .482590
2 1 .990670 .583848 .468426
3 1 .745180 .005599 .442918
4 1 .134267 .070902 .528326
5 1 .012364 .670902 .561098
6 1 .507736 .452005 .989754
7 1 .466727 .467321 .014382
ITEM: TIMESTEP
150
ITEM: NUMBER OF ATOMS
7
ITEM: BOX BOUNDS ss ss ss
-2.9644 3.2404
-2.8382 3.4127
-2.0912 1.8860
ITEM: ATOMS id type xs ys zs
1 1 .530022 .992670 .480640
2 1 .991184 .584455 .468043
3 1 .745371 .007386 .441506
4 1 .134222 .072330 .527421
5 1 .012358 .671133 .560869
6 1 .507762 .452560 .988216
7 1 .467184 .467982 .014651
ITEM: TIMESTEP
200
ITEM: NUMBER OF ATOMS
7
ITEM: BOX BOUNDS ss ss ss
-2.9644 3.2404
-2.8469 3.4103
-2.0912 1.8939
ITEM: ATOMS id type xs ys zs
1 1 .529659 .992690 .479132
2 1 .991315 .585524 .467333
3 1 .745588 .008876 .440086
4 1 .134227 .073447 .526364
5 1 .012038 .672073 .560451
6 1 .507536 .453764 .985995
7 1 .467213 .468712 .014990
ITEM: TIMESTEP
250
ITEM: NUMBER OF ATOMS
7
ITEM: BOX BOUNDS ss ss ss
-2.9644 3.2404
-2.8470 3.4162
-2.0912 1.8883
ITEM: ATOMS id type xs ys zs
1 1 .529003 .991201 .480627
2 1 .991524 .584999 .468895
3 1 .746619 .009010 .440506
4 1 .134594 .073374 .527657
5 1 .011273 .672070 .561738
6 1 .506945 .453974 .986807
7 1 .467151 .467991 .015707
ITEM: TIMESTEP
300
ITEM: NUMBER OF ATOMS
7
ITEM: BOX BOUNDS ss ss ss
-2.9644 3.2499
-2.8498 3.4110
-2.0913 1.8873
ITEM: ATOMS id type xs ys zs
1 1 .528146 .991490 .481922
2 1 .989990 .584732 .470497
3 1 .746543 .009886 .439937
4 1 .134439 .074076 .528271
5 1 .010396 .673330 .562409
6 1 .505202 .454781 .986983
7 1 .466232 .468466 .015782
ITEM: TIMESTEP
350
ITEM: NUMBER OF ATOMS
7
ITEM: BOX BOUNDS ss ss ss
-2.9644 3.2493
-2.8451 3.4035
-2.0912 1.8820
ITEM: ATOMS id type xs ys zs
1 1 .527969 .991993 .483457