ITEM: TIMESTEP
1
ITEM: NUMBER OF ATOMS
7
ITEM: BOX BOUNDS ss ss ss
-2.8969 3.1919
-2.7900 3.3665
-2.0408 1.8409
ITEM: ATOMS id type xs ys zs
1 1 .529720 .999481 .482271
2 1 .999209 .584306 .464688
3 1 .749008 .000726 .440971
4 1 .126070 .066223 .527762
5 1 .001018 .673541 .560180
6 1 .506638 .452447 .998586
7 1 .464277 .467341 .000752
ITEM: TIMESTEP
50
ITEM: NUMBER OF ATOMS
7
ITEM: BOX BOUNDS ss ss ss
-2.9190 3.2131
-2.8178 3.3919
-2.0640 1.8626
ITEM: ATOMS id type xs ys zs
1 1 .528328 .994661 .481914
2 1 .995736 .583275 .465515
3 1 .746328 .004386 .442477
4 1 .131089 .070020 .528974
5 1 .003618 .672939 .558522
6 1 .506134 .452403 .994410
7 1 .465895 .466012 .004900
ITEM: TIMESTEP
100
ITEM: NUMBER OF ATOMS
7
ITEM: BOX BOUNDS ss ss ss
-2.9261 3.2270
-2.8250 3.3966
-2.0749 1.8709
ITEM: ATOMS id type xs ys zs
1 1 .527772 .992821 .483407
2 1 .990926 .584277 .464120
3 1 .746531 .003361 .444422
4 1 .130826 .072485 .528060
5 1 .004925 .671913 .560768
6 1 .506014 .453318 .993467
7 1 .466194 .467644 .008511
ITEM: TIMESTEP
150
ITEM: NUMBER OF ATOMS
7
ITEM: BOX BOUNDS ss ss ss
-2.9324 3.2274
-2.8307 3.3997
-2.0729 1.8748
ITEM: ATOMS id type xs ys zs
1 1 .528639 .993154 .481707
2 1 .994602 .583898 .464014
3 1 .742691 .006121 .438590
4 1 .131796 .072318 .532181
5 1 .003895 .668530 .562671
6 1 .507735 .453552 .988960
7 1 .464894 .466167 .007418
ITEM: TIMESTEP
200
ITEM: NUMBER OF ATOMS
7
ITEM: BOX BOUNDS ss ss ss
-2.9437 3.2362
-2.8324 3.3999
-2.0806 1.8765
ITEM: ATOMS id type xs ys zs
1 1 .530333 .991099 .482805
2 1 .994795 .582465 .461486
3 1 .746413 .008253 .445196
4 1 .130696 .073016 .530091
5 1 .004145 .672105 .557729
6 1 .503522 .453417 .987375
7 1 .465973 .469934 .013449
ITEM: TIMESTEP
250
ITEM: NUMBER OF ATOMS
7
ITEM: BOX BOUNDS ss ss ss
-2.9384 3.2411
-2.8224 3.3916
-2.0821 1.8815
ITEM: ATOMS id type xs ys zs
1 1 .528978 .991387 .483655
2 1 .994943 .583649 .458085
3 1 .744746 .006469 .445285
4 1 .131222 .071951 .528864
5 1 .004674 .673197 .559531
6 1 .502848 .453008 .983111
7 1 .465130 .469548 .013704
ITEM: TIMESTEP
300
ITEM: NUMBER OF ATOMS
7
ITEM: BOX BOUNDS ss ss ss
-2.9515 3.2414
-2.8217 3.3884
-2.0822 1.8799
ITEM: ATOMS id type xs ys zs
1 1 .531650 .993782 .488964
2 1 .989687 .581895 .462646
3 1 .746303 .008299 .450567
4 1 .134541 .072375 .521086
5 1 .010453 .669795 .565195
6 1 .506637 .455731 .987132
7 1 .469235 .470188 .012886
ITEM: TIMESTEP
350
ITEM: NUMBER OF ATOMS
7
ITEM: BOX BOUNDS ss ss ss
-2.9517 3.2450
-2.8215 3.3837
-2.0921 1.8833
ITEM: ATOMS id type xs ys zs
1 1 .528363 .991640 .480418
2 1 .994317 .587398 .460446
3 1 .742153 .007722 .448098
4 1 .127193 .069026 .528446
5 1 .005575 .671975 .564236
6 1 .503888 .451360 .986197
7 1 .463146 .466103 .010772
ITEM: TIMESTEP
400
ITEM: NUMBER OF ATOMS
7
ITEM: BOX BOUNDS ss ss ss
-2.9586 3.2471
-2.8215 3.3902
-2.1051 1.8790
ITEM: ATOMS id type xs ys zs
1 1 .531655 .990656 .501810
2 1 .992959 .580373 .466157
3 1 .750490 .010949 .446061
4 1 .136004 .069637 .522327
5 1 .003882 .671261 .576390
6 1 .506405 .454708 .985399
7 1 .462312 .469381 .014107
ITEM: TIMESTEP
1
ITEM: NUMBER OF ATOMS
7
ITEM: BOX BOUNDS ss ss ss
-2.9606 3.2418
-2.8121 3.3761
-2.0908 1.8770
ITEM: ATOMS id type xs ys zs
1 1 .530023 .997708 .485246
2 1 .991481 .584945 .467041
3 1 .745776 .004387 .444364
4 1 .134117 .069598 .528769
5 1 .011042 .673401 .560727
6 1 .507283 .453864 .989505
7 1 .466161 .468378 .013815
ITEM: TIMESTEP
50
ITEM: NUMBER OF ATOMS
7
ITEM: BOX BOUNDS ss ss ss
-2.9606 3.2418
-2.8185 3.3910
-2.0908 1.8770
ITEM: ATOMS id type xs ys zs
1 1 .528623 .995935 .485235
2 1 .991100 .585197 .468747
3 1 .746431 .006372 .444667
4 1 .133579 .069827 .529838
5 1 .012126 .672242 .563536
6 1 .507988 .453762 .985921
7 1 .466693 .467494 .014444
ITEM: TIMESTEP
100
ITEM: NUMBER OF ATOMS
7
ITEM: BOX BOUNDS ss ss ss
-2.9589 3.2418
-2.8254 3.3965
-2.0908 1.8770
ITEM: ATOMS id type xs ys zs
1 1 .526517 .996696 .485196
2 1 .990391 .585473 .469335
3 1 .744586 .006132 .445876
4 1 .134927 .071523 .530440
5 1 .010349 .672045 .561094
6 1 .506724 .452353 .985960
7 1 .465323 .469819 .011270
ITEM: TIMESTEP
150
ITEM: NUMBER OF ATOMS
7
ITEM: BOX BOUNDS ss ss ss
-2.9589 3.2418
-2.8277 3.4078
-2.0908 1.8823
ITEM: ATOMS id type xs ys zs
1 1 .526253 .990633 .484280
2 1 .988337 .582300 .464847
3 1 .742411 .005859 .446254
4 1 .137753 .072696 .527972
5 1 .006441 .670788 .556620
6 1 .508427 .453317 .987800
7 1 .467487 .466314 .012207
ITEM: TIMESTEP
200
ITEM: NUMBER OF ATOMS
7
ITEM: BOX BOUNDS ss ss ss
-2.9589 3.2407
-2.8306 3.4014
-2.0908 1.8806
ITEM: ATOMS id type xs ys zs
1 1 .529108 .993974 .487215
2 1 .989428 .583587 .471527
3 1 .744102 .007379 .441842
4 1 .131352 .072319 .528286
5 1 .008853 .669889 .561290
6 1 .502403 .454106 .993931
7 1 .463401 .469037 .011187
ITEM: TIMESTEP
250
ITEM: NUMBER OF ATOMS
7
ITEM: BOX BOUNDS ss ss ss
-2.9741 3.2407
-2.8313 3.3974
-2.0908 1.8915
ITEM: ATOMS id type xs ys zs
1 1 .533054 .988468 .487611
2 1 .994443 .585098 .464871
3 1 .745770 .008645 .440313
4 1 .137537 .072193 .532181
5 1 .013657 .672115 .564323
6 1 .509214 .452289 .982755
7 1 .464795 .468498 .012775
ITEM: TIMESTEP
300
ITEM: NUMBER OF ATOMS
7
ITEM: BOX BOUNDS ss ss ss
-2.9559 3.2410
-2.8294 3.3914
-2.0908 1.8904
ITEM: ATOMS id type xs ys zs
1 1 .531017 .988235 .487796
2 1 .993291 .585176 .467302
3 1 .745418 .008670 .441491
4 1 .137093 .073191 .530572
5 1 .009054 .670059 .563782
6 1 .508256 .452417 .983464
7 1 .463112 .467703 .010568
ITEM: TIMESTEP
350
ITEM: NUMBER OF ATOMS
7
ITEM: BOX BOUNDS ss ss ss
-2.9582 3.2380
-2.8208 3.3877
-2.0949 1.8960
ITEM: ATOMS id type xs ys zs
1 1 .528506 .987350 .485920
2 1 .988892 .583289 .465206
3 1 .744877 .010815 .439039
4 1 .132632 .072690 .528732
5 1 .004784 .676576 .566542
6 1 .506528 .454857 .988031
7 1 .462303 .469140 .013321
ITEM: TIMESTEP
400
ITEM: NUMBER OF ATOMS
7
ITEM: BOX BOUNDS ss ss ss
-2.9572 3.2482
-2.8268 3.3870
-2.0873 1.8952
ITEM: ATOMS id type xs ys zs
1 1 .527428 .988042 .482349
2 1 .988739 .584644 .459999
3 1 .746599 .013045 .437169
4 1 .130841 .071403 .523794
5 1 .002824 .677586 .565876
6 1 .505223 .454489 .984946
7 1 .457551 .471523 .011818
ITEM: TIMESTEP
1
ITEM: NUMBER OF ATOMS
7
ITEM: BOX BOUNDS ss ss ss
-2.9661 3.2383
-2.7987 3.3704
-2.0833 1.8912
ITEM: ATOMS id type xs ys zs
1 1 .530792 .998629 .481977
2 1 .991727 .584878 .464486
3 1 .746273 .002225 .441989
4 1 .134573 .067156 .525256
5 1 .011867 .673102 .558248
6 1 .508471 .453550 .986372
7 1 .466787 .467874 .011914
ITEM: TIMESTEP
50
ITEM: NUMBER OF ATOMS
7
ITEM: BOX BOUNDS ss ss ss
-2.9661 3.2383
-2.8135 3.3928
-2.0833 1.8912
ITEM: ATOMS id type xs ys zs
1 1 .531665 .994518 .483508
2 1 .992762 .585141 .467591
3 1 .746051 .004462 .443347
4 1 .134765 .066377 .525897
5 1 .013501 .671561 .558884
6 1 .509107 .453541 .986425
7 1 .467664 .467852 .012219
ITEM: TIMESTEP
100
ITEM: NUMBER OF ATOMS
7
ITEM: BOX BOUNDS ss ss ss
-2.9661 3.2311
-2.8251 3.4053
-2.0798 1.8912
ITEM: ATOMS id type xs ys zs
1 1 .533364 .995147 .486809
2 1 .992644 .586493 .466330
3 1 .747496 .005373 .441855
4 1 .133130 .067391 .527660
5 1 .013782 .671643 .556952
6 1 .509784 .452445 .985575
7 1 .466716 .467419 .007370
ITEM: TIMESTEP
150
ITEM: NUMBER OF ATOMS
7
ITEM: BOX BOUNDS ss ss ss
-2.9554 3.2311
-2.8270 3.3988
-2.0856 1.8912
ITEM: ATOMS id type xs ys zs
1 1 .528455 .993902 .483296
2 1 .993910 .584997 .468187
3 1 .744880 .006528 .438617
4 1 .133845 .071492 .521532
5 1 .007213 .674822 .557059
6 1 .505552 .456174 .989418
7 1 .467057 .470909 .013462
ITEM: TIMESTEP
200
ITEM: NUMBER OF ATOMS
7
ITEM: BOX BOUNDS ss ss ss
-2.9510 3.2339
-2.8285 3.4021
-2.0858 1.8912
ITEM: ATOMS id type xs ys zs
1 1 .527695 .995726 .483486
2 1 .993132 .585286 .469171
3 1 .744194 .005935 .434813
4 1 .133643 .073075 .522073
5 1 .006961 .674425 .558434
6 1 .503667 .455763 .993100
7 1 .467834 .470077 .010372
ITEM: TIMESTEP
250
ITEM: NUMBER OF ATOMS
7
ITEM: BOX BOUNDS ss ss ss
-2.9510 3.2420
-2.8243 3.3958
-2.0972 1.8912
ITEM: ATOMS id type xs ys zs
1 1 .531536 .989781 .481021
2 1 .992789 .581821 .460889
3 1 .748685 .007064 .443187
4 1 .130243 .071232 .525259
5 1 .005582 .675615 .566730
6 1 .504299 .451157 .979331
7 1 .462673 .463682 .020216
ITEM: TIMESTEP
300
ITEM: NUMBER OF ATOMS
7
ITEM: BOX BOUNDS ss ss ss
-2.9510 3.2338
-2.8317 3.3838
-2.0932 1.8912
ITEM: ATOMS id type xs ys zs
1 1 .528677 .991624 .487139
2 1 .992594 .586147 .465583
3 1 .747736 .013597 .449425
4 1 .131014 .073563 .520687
5 1 .009128 .673739 .561739
6 1 .503777 .455001 .989623
7 1 .462222 .470204 .011538
ITEM: TIMESTEP
350
ITEM: NUMBER OF ATOMS
7
ITEM: BOX BOUNDS ss ss ss
-2.9510 3.2378
-2.8225 3.3931
-2.0879 1.8891
ITEM: ATOMS id type xs ys zs
1 1 .526703 .991046 .487473
2 1 .992928 .583580 .464316
3 1 .745653 .011286 .448604
4 1 .129527 .071617 .522512
5 1 .008529 .671796 .559792
6 1 .503526 .456287 .991698
7 1 .459989 .470440 .012072
ITEM: TIMESTEP
400
ITEM: NUMBER OF ATOMS
7
ITEM: BOX BOUNDS ss ss ss
-2.9552 3.2428
-2.8212 3.3797
-2.0845 1.8977
ITEM: ATOMS id type xs ys zs
1 1 .530314 .989503 .482353
2 1 .994126 .583747 .469503
3 1 .751779 .008783 .450965
4 1 .131949 .070987 .516141
5 1 .005101 .673517 .560502
6 1 .502981 .452543 .984789
7 1 .463759 .468746 .016029
ITEM: TIMESTEP
1
ITEM: NUMBER OF ATOMS
7
ITEM: BOX BOUNDS ss ss ss
-2.9526 3.2363
-2.8026 3.3707
-2.0815 1.8857
ITEM: ATOMS id type xs ys zs
1 1 .529827 .998667 .482416
2 1 .992166 .584811 .465033
3 1 .746196 .002756 .441493
4 1 .133284 .067901 .525666
5 1 .009658 .673630 .558397
6 1 .507258 .453649 .987696
7 1 .465744 .468163 .011591
ITEM: TIMESTEP
50
ITEM: NUMBER OF ATOMS
7
ITEM: BOX BOUNDS ss ss ss
-2.9526 3.2336
-2.8164 3.3933
-2.0815 1.8857
ITEM: ATOMS id type xs ys zs
1 1 .529558 .995637 .479577
2 1 .991555 .585227 .465012
3 1 .745406 .005471 .443746
4 1 .133511 .069893 .526184
5 1 .008874 .669187 .557317
6 1 .508160 .453491 .984046
7 1 .468299 .465496 .014435
ITEM: TIMESTEP
100
ITEM: NUMBER OF ATOMS
7
ITEM: BOX BOUNDS ss ss ss
-2.9526 3.2336
-2.8267 3.4007
-2.0815 1.8857
ITEM: ATOMS id type xs ys zs
1 1 .532231 .992461 .481439
2 1 .992990 .586129 .462597
3 1 .747991 .006057 .440761
4 1 .132187 .070301 .523474
5 1 .008647 .672869 .563079
6 1 .506460 .453011 .985131
7 1 .467814 .470155 .009485
ITEM: TIMESTEP
150
ITEM: NUMBER OF ATOMS
7
ITEM: BOX BOUNDS ss ss ss
-2.9526 3.2336
-2.8406 3.4009
-2.0762 1.8857
ITEM: ATOMS id type xs ys zs
1 1 .530439 .995247 .478675
2 1 .991408 .583715 .463633
3 1 .745012 .009236 .437204
4 1 .133740 .073406 .527065
5 1 .011631 .673912 .560052
6 1 .508316 .456434 .991166
7 1 .462850 .468136 .010610
ITEM: TIMESTEP
200
ITEM: NUMBER OF ATOMS
7
ITEM: BOX BOUNDS ss ss ss
-2.9526 3.2336
-2.8486 3.4087
-2.0813 1.8877
ITEM: ATOMS id type xs ys zs
1 1 .530405 .991009 .481144
2 1 .991360 .586032 .462752
3 1 .748253 .009848 .440635
4 1 .133601 .073815 .526602
5 1 .010407 .671937 .561312
6 1 .508363 .451438 .983795
7 1 .467831 .465934 .008703
ITEM: TIMESTEP
250
ITEM: NUMBER OF ATOMS
7
ITEM: BOX BOUNDS ss ss ss
-2.9526 3.2336
-2.8470 3.3922
-2.0803 1.8914
ITEM: ATOMS id type xs ys zs
1 1 .533220 .996393 .480548
2 1 .993857 .588052 .461999
3 1 .748456 .011635 .438036
4 1 .132627 .073005 .522813
5 1 .010832 .672962 .556888
6 1 .509875 .455829 .981917
7 1 .465454 .473863 .013685
ITEM: TIMESTEP
300
ITEM: NUMBER OF ATOMS
7
ITEM: BOX BOUNDS ss ss ss
-2.9533 3.2402
-2.8268 3.3887
-2.0868 1.8979
ITEM: ATOMS id type xs ys zs
1 1 .525065 .994971 .479790
2 1 .991250 .587237 .467834
3 1 .750205 .010362 .445349
4 1 .135275 .071121 .519825
5 1 .010217 .672174 .559365
6 1 .506143 .459342 .993248
7 1 .465024 .470683 .014478
ITEM: TIMESTEP
350
ITEM: NUMBER OF ATOMS
7
ITEM: BOX BOUNDS ss ss ss
-2.9613 3.2398
-2.8227 3.3910
-2.0921 1.8879
ITEM: ATOMS id type xs ys zs
1 1 .532581 .989621 .481960
2 1 .992473 .585598 .459815
3 1 .748975 .004968 .444818
4 1 .140707 .070974 .527911
5 1 .010069 .673156 .571159
6 1 .509755 .456244 .990737
7 1 .461323 .465937 .010532
ITEM: TIMESTEP
400
ITEM: NUMBER OF ATOMS
7
ITEM: BOX BOUNDS ss ss ss
-2.9633 3.2502
-2.8214 3.3869
-2.0936 1.8977
ITEM: ATOMS id type xs ys zs
1 1 .533655 .993232 .477616
2 1 .990244 .578608 .455645
3 1 .747988 .006887 .442598
4 1 .137457 .071432 .529364
5 1 .015778 .676989 .560808
6 1 .506966 .454158 .983216
7 1 .462751 .464176 .014991
ITEM: TIMESTEP
1
ITEM: NUMBER OF ATOMS
7
ITEM: BOX BOUNDS ss ss ss
-2.9426 3.2563
-2.8271 3.3794
-2.0897 1.8857
ITEM: ATOMS id type xs ys zs
1 1 .527480 .997180 .483717
2 1 .988941 .585742 .465873
3 1 .743316 .006615 .443273
4 1 .131217 .072028 .527476
5 1 .008022 .673945 .559506
6 1 .504820 .455380 .987378
7 1 .463208 .469516 .013190
ITEM: TIMESTEP
50
ITEM: NUMBER OF ATOMS
7
ITEM: BOX BOUNDS ss ss ss
-2.9426 3.2563
-2.8271 3.3953
-2.0897 1.8857
ITEM: ATOMS id type xs ys zs
1 1 .526468 .995340 .483357
2 1 .988782 .583195 .463404
3 1 .743308 .004939 .442131
4 1 .130638 .071381 .524885
5 1 .007581 .671190 .558885
6 1 .503949 .451261 .985373
7 1 .462513 .468482 .013860
ITEM: TIMESTEP
100
ITEM: NUMBER OF ATOMS
7
ITEM: BOX BOUNDS ss ss ss
-2.9426 3.2563
-2.8271 3.4068
-2.0897 1.8857
ITEM: ATOMS id type xs ys zs
1 1 .527047 .995005 .483155
2 1 .991336 .583049 .465176
3 1 .744808 .005676 .442718
4 1 .130674 .069968 .521421
5 1 .008242 .671742 .556177
6 1 .505961 .449928 .984930
7 1 .461686 .468355 .012781
ITEM: TIMESTEP
150
ITEM: NUMBER OF ATOMS
7
ITEM: BOX BOUNDS ss ss ss
-2.9426 3.2563
-2.8328 3.4125
-2.0834 1.8857
ITEM: ATOMS id type xs ys zs
1 1 .530058 .991284 .481358
2 1 .992348 .581171 .471109
3 1 .741392 .006253 .440092
4 1 .132358 .071162 .523723
5 1 .007244 .673214 .559046
6 1 .502877 .451011 .984983
7 1 .463490 .466182 .006837
ITEM: TIMESTEP
200
ITEM: NUMBER OF ATOMS
7
ITEM: BOX BOUNDS ss ss ss
-2.9426 3.2563
-2.8329 3.4115
-2.0811 1.8880
ITEM: ATOMS id type xs ys zs
1 1 .529894 .986669 .481268
2 1 .991213 .580469 .469462
3 1 .744105 .008078 .432561
4 1 .127866 .073168 .521043
5 1 .007101 .672255 .555824
6 1 .503675 .453370 .985150
7 1 .460993 .465900 .016160
ITEM: TIMESTEP
250
ITEM: NUMBER OF ATOMS
7
ITEM: BOX BOUNDS ss ss ss
-2.9426 3.2473
-2.8348 3.4040
-2.0876 1.8866
ITEM: ATOMS id type xs ys zs
1 1 .528623 .988626 .482375
2 1 .993712 .586693 .467972
3 1 .745296 .007277 .436204
4 1 .127213 .074299 .522578
5 1 .007718 .671820 .557218
6 1 .507318 .454797 .976974
7 1 .463113 .465597 .013607
ITEM: TIMESTEP
300
ITEM: NUMBER OF ATOMS
7
ITEM: BOX BOUNDS ss ss ss
-2.9528 3.2478
-2.8274 3.4016
-2.0898 1.8912
ITEM: ATOMS id type xs ys zs
1 1 .526853 .988403 .485547
2 1 .993678 .584691 .474772
3 1 .746690 .011858 .436149
4 1 .134181 .069666 .525929
5 1 .009395 .670720 .558050
6 1 .502975 .449819 .986324
7 1 .465978 .466013 .007981
ITEM: TIMESTEP
350
ITEM: NUMBER OF ATOMS
7
ITEM: BOX BOUNDS ss ss ss
-2.9519 3.2580
-2.8241 3.3987
-2.0971 1.8915
ITEM: ATOMS id type xs ys zs
1 1 .525276 .988410 .485652
2 1 .992768 .586168 .476926
3 1 .745488 .011947 .435710
4 1 .133866 .068926 .525827
5 1 .008242 .671186 .559857
6 1 .500935 .450206 .984280
7 1 .466325 .465250 .011476
ITEM: TIMESTEP
400
ITEM: NUMBER OF ATOMS
7
ITEM: BOX BOUNDS ss ss ss
-2.9555 3.2609
-2.8213 3.3815
-2.0909 1.9011
ITEM: ATOMS id type xs ys zs
1 1 .526008 .995203 .487126
2 1 .991116 .588659 .475301
3 1 .742198 .008053 .438469
4 1 .132611 .068830 .520908
5 1 .007309 .672751 .560687
6 1 .506264 .454810 .980365
7 1 .462026 .471785 .014070
ITEM: TIMESTEP
1
ITEM: NUMBER OF ATOMS
7
ITEM: BOX BOUNDS ss ss ss
-2.9484 3.2442
-2.8018 3.3725
-2.0870 1.8953
ITEM: ATOMS id type xs ys zs
1 1 .528932 .998427 .482294
2 1 .990864 .584569 .465092
3 1 .744894 .002699 .441639
4 1 .132358 .067676 .525365
5 1 .009172 .673223 .557909
6 1 .506559 .453223 .985331
7 1 .464783 .467679 .012512
ITEM: TIMESTEP
50
ITEM: NUMBER OF ATOMS
7
ITEM: BOX BOUNDS ss ss ss
-2.9484 3.2442
-2.8188 3.3938
-2.0870 1.8953
ITEM: ATOMS id type xs ys zs
1 1 .528441 .997374 .480239
2 1 .989787 .582830 .466937
3 1 .746105 .003934 .439938
4 1 .131027 .070544 .523057
5 1 .008043 .668724 .556132
6 1 .506871 .452832 .985130
7 1 .466110 .466789 .013275
ITEM: TIMESTEP
100
ITEM: NUMBER OF ATOMS
7
ITEM: BOX BOUNDS ss ss ss
-2.9484 3.2347
-2.8291 3.4068
-2.0870 1.8953
ITEM: ATOMS id type xs ys zs
1 1 .533638 .991861 .482833
2 1 .992761 .586120 .464837
3 1 .747194 .005650 .446765
4 1 .129358 .075232 .519608
5 1 .010744 .668678 .553998
6 1 .504649 .454156 .982315
7 1 .464574 .463453 .009976
ITEM: TIMESTEP
150
ITEM: NUMBER OF ATOMS
7
ITEM: BOX BOUNDS ss ss ss
-2.9484 3.2426
-2.8336 3.4044
-2.0870 1.8953
ITEM: ATOMS id type xs ys zs
1 1 .527025 .991897 .482586
2 1 .992079 .584049 .466327
3 1 .744467 .006327 .442055
4 1 .131594 .075084 .522825
5 1 .008801 .670515 .563447
6 1 .508548 .456527 .987484
7 1 .464174 .469902 .010651
ITEM: TIMESTEP
200
ITEM: NUMBER OF ATOMS
7
ITEM: BOX BOUNDS ss ss ss
-2.9484 3.2347
-2.8345 3.4059
-2.0870 1.8953
ITEM: ATOMS id type xs ys zs
1 1 .533584 .990706 .475649
2 1 .994376 .584074 .470028
3 1 .745111 .006384 .439050
4 1 .131530 .075309 .520361
5 1 .008631 .671890 .563642
6 1 .506968 .452482 .979864
7 1 .467082 .471051 .009471
ITEM: TIMESTEP
250
ITEM: NUMBER OF ATOMS
7
ITEM: BOX BOUNDS ss ss ss
-2.9484 3.2402
-2.8393 3.4031
-2.0927 1.8953
ITEM: ATOMS id type xs ys zs
1 1 .533831 .993261 .474680
2 1 .992700 .583751 .469675
3 1 .745248 .007707 .438399
4 1 .132945 .075900 .523661
5 1 .009505 .673284 .565795
6 1 .506187 .450154 .977963
7 1 .465229 .472721 .010349
ITEM: TIMESTEP
300
ITEM: NUMBER OF ATOMS
7
ITEM: BOX BOUNDS ss ss ss
-2.9484 3.2471
-2.8378 3.4001
-2.1007 1.8953
ITEM: ATOMS id type xs ys zs
1 1 .528422 .990724 .480277
2 1 .989984 .586968 .462053
3 1 .742194 .009495 .434145
4 1 .133111 .071975 .529110
5 1 .011136 .675676 .563904
6 1 .504571 .453829 .987161
7 1 .462854 .474135 .009251
ITEM: TIMESTEP
350
ITEM: NUMBER OF ATOMS
7
ITEM: BOX BOUNDS ss ss ss
-2.9532 3.2481
-2.8495 3.4031
-2.0911 1.8953
ITEM: ATOMS id type xs ys zs
1 1 .524271 .994115 .483097
2 1 .992791 .584175 .468342
3 1 .745965 .010600 .445373
4 1 .131828 .075720 .526803
5 1 .004256 .673095 .560230
6 1 .502317 .454788 .981853
7 1 .466291 .471105 .022342
ITEM: TIMESTEP
400
ITEM: NUMBER OF ATOMS
7
ITEM: BOX BOUNDS ss ss ss
-2.9599 3.2577
-2.8393 3.4088
-2.0870 1.8949
ITEM: ATOMS id type xs ys zs
1 1 .528056 .986426 .479306
2 1 .986906 .584362 .463734
3 1 .750978 .007621 .433553
4 1 .129888 .076648 .518625
5 1 .011134 .674782 .566701
6 1 .505570 .451998 .981086
7 1 .466574 .465614 .012313
ITEM: TIMESTEP
1
ITEM: NUMBER OF ATOMS
7
ITEM: BOX BOUNDS ss ss ss
-2.9484 3.2441
-2.8184 3.3931
-2.0870 1.8949
ITEM: ATOMS id type xs ys zs
1 1 .529079 .995000 .482127
2 1 .990855 .583550 .464514
3 1 .744877 .005272 .441724
4 1 .132178 .070058 .525292
5 1 .008945 .671803 .558208
6 1 .506172 .453173 .985144
7 1 .464629 .467533 .012995
ITEM: TIMESTEP
50
ITEM: NUMBER OF ATOMS
7
ITEM: BOX BOUNDS ss ss ss
-2.9484 3.2441
-2.8198 3.3978
-2.0870 1.8949
ITEM: ATOMS id type xs ys zs
1 1 .530760 .994678 .482368
2 1 .988451 .583356 .465392
3 1 .742155 .004046 .439756
4 1 .132792 .069578 .524710
5 1 .007715 .670926 .559806
6 1 .505051 .451856 .982706
7 1 .465908 .467527 .012749
ITEM: TIMESTEP
100
ITEM: NUMBER OF ATOMS
7
ITEM: BOX BOUNDS ss ss ss
-2.9484 3.2441
-2.8273 3.4064
-2.0870 1.8949
ITEM: ATOMS id type xs ys zs
1 1 .526894 .993050 .482073
2 1 .990463 .582203 .462141
3 1 .748267 .007507 .440726
4 1 .133940 .071728 .524382
5 1 .006695 .669574 .558451
6 1 .504758 .454016 .982052
7 1 .464848 .467188 .012483
ITEM: TIMESTEP
150
ITEM: NUMBER OF ATOMS
7
ITEM: BOX BOUNDS ss ss ss
-2.9484 3.2441
-2.8310 3.4090
-2.0870 1.8949
ITEM: ATOMS id type xs ys zs
1 1 .528613 .994266 .480111
2 1 .989331 .583492 .464192
3 1 .748688 .008974 .440593
4 1 .133729 .072575 .522245
5 1 .008224 .670867 .557204
6 1 .507432 .453433 .980752
7 1 .464728 .466773 .015335
ITEM: TIMESTEP
200
ITEM: NUMBER OF ATOMS
7
ITEM: BOX BOUNDS ss ss ss
-2.9484 3.2441
-2.8385 3.4072
-2.0889 1.8949
ITEM: ATOMS id type xs ys zs
1 1 .528340 .992690 .481606
2 1 .988139 .581161 .468902
3 1 .743409 .009029 .440705
4 1 .132246 .073049 .528744
5 1 .007482 .670700 .561958
6 1 .504988 .452508 .984552
7 1 .467677 .469371 .014394
ITEM: TIMESTEP
250
ITEM: NUMBER OF ATOMS
7
ITEM: BOX BOUNDS ss ss ss
-2.9484 3.2441
-2.8403 3.4063
-2.0871 1.8949
ITEM: ATOMS id type xs ys zs
1 1 .528625 .992518 .477519
2 1 .993196 .583947 .465234
3 1 .745577 .007894 .435408
4 1 .133234 .074640 .522440
5 1 .010218 .671191 .567129
6 1 .506652 .452842 .986794
7 1 .465437 .470896 .008578
ITEM: TIMESTEP
300
ITEM: NUMBER OF ATOMS
7
ITEM: BOX BOUNDS ss ss ss
-2.9484 3.2479
-2.8376 3.4024
-2.0870 1.8949
ITEM: ATOMS id type xs ys zs
1 1 .528719 .992044 .482449
2 1 .991918 .585088 .464842
3 1 .746845 .009595 .444930
4 1 .128913 .072918 .521995
5 1 .006282 .673446 .560156
6 1 .507045 .449131 .979677
7 1 .463251 .473587 .009970
ITEM: TIMESTEP
350
ITEM: NUMBER OF ATOMS
7
ITEM: BOX BOUNDS ss ss ss
-2.9484 3.2562
-2.8248 3.3969
-2.0870 1.8949
ITEM: ATOMS id type xs ys zs
1 1 .530029 .987613 .478022
2 1 .993257 .582558 .470249
3 1 .745466 .010453 .442279
4 1 .132054 .076409 .531869
5 1 .009543 .670804 .556565
6 1 .508274 .455220 .988592
7 1 .467305 .469303 .009213
ITEM: TIMESTEP
400
ITEM: NUMBER OF ATOMS
7
ITEM: BOX BOUNDS ss ss ss
-2.9484 3.2581
-2.8156 3.3952
-2.0870 1.8949
ITEM: ATOMS id type xs ys zs
1 1 .531242 .990637 .478648
2 1 .992742 .580277 .471238
3 1 .746910 .009214 .438891
4 1 .132495 .075101 .533234
5 1 .010478 .670068 .557711
6 1 .508504 .453246 .989941
7 1 .466491 .467328 .009653
ITEM: TIMESTEP
1
ITEM: NUMBER OF ATOMS
7
ITEM: BOX BOUNDS ss ss ss
-2.9484 3.2550
-2.8117 3.3906
-2.0919 1.8949
ITEM: ATOMS id type xs ys zs
1 1 .528124 .995568 .482911
2 1 .989215 .583383 .465631
3 1 .743664 .004072 .442524
4 1 .132129 .068868 .525797
5 1 .009374 .671823 .558851
6 1 .505319 .452631 .985083
7 1 .464035 .467066 .013809
ITEM: TIMESTEP
50
ITEM: NUMBER OF ATOMS
7
ITEM: BOX BOUNDS ss ss ss
-2.9484 3.2550
-2.8163 3.3951
-2.0919 1.8949
ITEM: ATOMS id type xs ys zs
1 1 .526998 .994407 .485129
2 1 .988976 .583760 .468701
3 1 .741068 .006231 .441764
4 1 .131644 .069679 .527758
5 1 .010073 .669903 .559996
6 1 .504022 .452477 .987859
7 1 .465682 .467920 .013456
ITEM: TIMESTEP
100
ITEM: NUMBER OF ATOMS
7
ITEM: BOX BOUNDS ss ss ss
-2.9484 3.2550
-2.8315 3.4097
-2.0919 1.8949
ITEM: ATOMS id type xs ys zs
1 1 .524846 .993505 .485270
2 1 .989027 .583014 .470955
3 1 .740503 .006713 .440458
4 1 .130607 .070521 .529120
5 1 .010891 .669082 .561035
6 1 .503646 .449471 .986979
7 1 .465702 .468476 .012838
ITEM: TIMESTEP
150
ITEM: NUMBER OF ATOMS
7
ITEM: BOX BOUNDS ss ss ss
-2.9484 3.2550
-2.8415 3.4090
-2.0919 1.8949
ITEM: ATOMS id type xs ys zs
1 1 .528605 .990681 .479467
2 1 .992671 .585268 .470795
3 1 .743773 .010519 .441208
4 1 .130375 .075627 .526376
5 1 .008084 .670932 .566644
6 1 .503215 .453654 .987333
7 1 .465742 .470026 .014497
ITEM: TIMESTEP
200
ITEM: NUMBER OF ATOMS
7
ITEM: BOX BOUNDS ss ss ss
-2.9484 3.2550
-2.8358 3.4086
-2.0938 1.8949
ITEM: ATOMS id type xs ys zs
1 1 .530053 .989388 .484786
2 1 .991057 .583115 .464272
3 1 .742528 .007518 .446214
4 1 .131980 .070651 .527159
5 1 .006900 .670892 .561053
6 1 .505869 .451343 .986032
7 1 .462008 .468351 .014397
ITEM: TIMESTEP
250
ITEM: NUMBER OF ATOMS
7
ITEM: BOX BOUNDS ss ss ss
-2.9498 3.2545
-2.8347 3.4030
-2.0919 1.8949
ITEM: ATOMS id type xs ys zs
1 1 .528677 .992836 .481677
2 1 .992607 .583927 .463835
3 1 .743668 .006594 .448810
4 1 .132628 .072489 .528101
5 1 .006317 .670163 .561009
6 1 .505435 .450032 .986515
7 1 .463144 .469000 .013003
ITEM: TIMESTEP
300
ITEM: NUMBER OF ATOMS
7
ITEM: BOX BOUNDS ss ss ss
-2.9647 3.2545
-2.8359 3.4031
-2.0919 1.8949
ITEM: ATOMS id type xs ys zs
1 1 .525005 .993837 .482848
2 1 .988963 .579351 .465791
3 1 .745065 .010667 .445275
4 1 .131821 .067871 .524650
5 1 .006920 .671251 .557629
6 1 .503325 .456823 .979774
7 1 .462030 .470249 .021298
ITEM: TIMESTEP
350
ITEM: NUMBER OF ATOMS
7
ITEM: BOX BOUNDS ss ss ss
-2.9667 3.2545
-2.8203 3.3969
-2.0919 1.8949
ITEM: ATOMS id type xs ys zs
1 1 .525047 .992422 .480634
2 1 .990101 .588474 .468795
3 1 .746954 .007232 .449875
4 1 .132078 .067674 .526029
5 1 .003434 .671286 .558546
6 1 .501742 .455392 .982652
7 1 .462212 .465920 .016816
ITEM: TIMESTEP
400
ITEM: NUMBER OF ATOMS
7
ITEM: BOX BOUNDS ss ss ss
-2.9644 3.2453
-2.8249 3.3955
-2.0899 1.8981
ITEM: ATOMS id type xs ys zs
1 1 .531022 .989663 .483618
2 1 .995101 .587495 .465524
3 1 .749006 .008990 .447782
4 1 .134366 .073058 .527385
5 1 .004228 .671174 .554379
6 1 .503852 .456491 .984932
7 1 .467796 .467467 .016682
ITEM: TIMESTEP
1
ITEM: NUMBER OF ATOMS
7
ITEM: BOX BOUNDS ss ss ss
-2.9681 3.2432
-2.8176 3.3930
-2.0861 1.8818
ITEM: ATOMS id type xs ys zs
1 1 .530541 .994930 .483415
2 1 .990780 .583779 .465824
3 1 .746006 .004918 .442694
4 1 .135105 .069740 .527359
5 1 .012142 .671632 .559893
6 1 .507602 .452927 .988536
7 1 .466661 .467536 .012353
ITEM: TIMESTEP
50
ITEM: NUMBER OF ATOMS
7
ITEM: BOX BOUNDS ss ss ss
-2.9681 3.2432
-2.8176 3.3972
-2.0861 1.8818
ITEM: ATOMS id type xs ys zs
1 1 .527999 .996361 .482461
2 1 .990759 .585364 .465261
3 1 .747185 .006400 .440062
4 1 .134594 .070599 .531000
5 1 .009753 .671153 .559649
6 1 .508202 .452942 .988841
7 1 .466355 .465708 .016616
ITEM: TIMESTEP
100
ITEM: NUMBER OF ATOMS
7
ITEM: BOX BOUNDS ss ss ss
-2.9681 3.2432
-2.8300 3.4109
-2.0861 1.8825
ITEM: ATOMS id type xs ys zs
1 1 .532171 .992137 .477379
2 1 .989197 .582527 .466935
3 1 .746608 .003895 .443915
4 1 .135581 .070465 .525653
5 1 .007071 .670588 .562369
6 1 .509129 .453695 .988987
7 1 .467852 .467888 .016915
ITEM: TIMESTEP
150
ITEM: NUMBER OF ATOMS
7
ITEM: BOX BOUNDS ss ss ss
-2.9681 3.2432
-2.8373 3.4099
-2.0861 1.8823
ITEM: ATOMS id type xs ys zs
1 1 .534847 .988509 .478015
2 1 .990286 .584873 .465426
3 1 .742136 .009927 .437316
4 1 .132458 .073685 .527307
5 1 .013844 .672389 .567153
6 1 .507981 .449917 .992283
7 1 .466718 .468035 .014623
ITEM: TIMESTEP
200
ITEM: NUMBER OF ATOMS
7
ITEM: BOX BOUNDS ss ss ss
-2.9681 3.2432
-2.8439 3.4119
-2.0932 1.8826
ITEM: ATOMS id type xs ys zs
1 1 .531025 .989446 .475965
2 1 .989053 .583997 .466797
3 1 .745921 .007613 .444454
4 1 .136103 .071434 .527456
5 1 .011435 .670037 .566212
6 1 .506861 .455958 .985847
7 1 .464192 .469060 .018565
ITEM: TIMESTEP
250
ITEM: NUMBER OF ATOMS
7
ITEM: BOX BOUNDS ss ss ss
-2.9666 3.2434
-2.8407 3.4137
-2.0928 1.8901
ITEM: ATOMS id type xs ys zs
1 1 .531838 .996213 .472835
2 1 .989198 .589711 .463486
3 1 .744363 .010755 .442396
4 1 .130303 .071108 .529262
5 1 .016444 .670583 .564428
6 1 .509592 .450481 .986418
7 1 .465165 .467368 .013555
ITEM: TIMESTEP
300
ITEM: NUMBER OF ATOMS
7
ITEM: BOX BOUNDS ss ss ss
-2.9661 3.2459
-2.8431 3.4219
-2.0861 1.8833
ITEM: ATOMS id type xs ys zs
1 1 .527804 .984846 .478595
2 1 .989088 .583274 .467323
3 1 .748259 .009500 .436468
4 1 .134371 .073759 .517167
5 1 .009372 .670759 .562093
6 1 .507883 .453953 .988769
7 1 .463658 .468435 .018670
ITEM: TIMESTEP
350
ITEM: NUMBER OF ATOMS
7
ITEM: BOX BOUNDS ss ss ss
-2.9644 3.2371
-2.8444 3.4106
-2.0946 1.8846
ITEM: ATOMS id type xs ys zs
1 1 .529835 .985857 .477854
2 1 .993514 .584283 .470602
3 1 .748380 .013763 .445478
4 1 .134921 .071719 .532264
5 1 .009137 .673002 .565551
6 1 .507907 .455375 .984445
7 1 .463698 .467615 .012717
ITEM: TIMESTEP
400
ITEM: NUMBER OF ATOMS
7
ITEM: BOX BOUNDS ss ss ss
-2.9644 3.2430
-2.8274 3.3976
-2.1028 1.8780
ITEM: ATOMS id type xs ys zs
1 1 .528946 .988037 .479986
2 1 .992364 .585492 .474701
3 1 .746495 .012641 .447319
4 1 .134449 .069101 .538186
5 1 .010899 .672849 .564872
6 1 .505528 .453942 .984325
7 1 .463699 .466869 .020604
ITEM: TIMESTEP
1
ITEM: NUMBER OF ATOMS
7
ITEM: BOX BOUNDS ss ss ss
-2.9644 3.2433
-2.8252 3.3834
-2.0912 1.8807
ITEM: ATOMS id type xs ys zs
1 1 .530204 .996646 .484474
2 1 .990820 .585088 .466812
3 1 .745642 .006653 .443445
4 1 .134580 .071207 .527857
5 1 .011339 .673252 .560483
6 1 .508169 .454570 .989020
7 1 .466330 .469243 .013582
ITEM: TIMESTEP
50
ITEM: NUMBER OF ATOMS
7
ITEM: BOX BOUNDS ss ss ss
-2.9644 3.2433
-2.8168 3.3970
-2.0912 1.8780
ITEM: ATOMS id type xs ys zs
1 1 .528114 .993393 .484425
2 1 .991449 .586016 .467739
3 1 .746941 .004538 .441649
4 1 .134267 .069953 .528643
5 1 .011654 .670274 .565008
6 1 .510534 .451435 .988737
7 1 .466709 .466906 .010970
ITEM: TIMESTEP
100
ITEM: NUMBER OF ATOMS
7
ITEM: BOX BOUNDS ss ss ss
-2.9644 3.2433
-2.8268 3.4077
-2.0912 1.8789
ITEM: ATOMS id type xs ys zs
1 1 .526913 .992436 .486704
2 1 .989469 .584877 .468782
3 1 .747313 .004704 .441200
4 1 .135253 .069550 .526261
5 1 .011375 .669582 .564181
6 1 .510726 .451063 .986474
7 1 .465928 .467574 .007901
ITEM: TIMESTEP
150
ITEM: NUMBER OF ATOMS
7
ITEM: BOX BOUNDS ss ss ss
-2.9644 3.2404
-2.8382 3.4127
-2.0912 1.8860
ITEM: ATOMS id type xs ys zs
1 1 .525287 .991043 .482728
2 1 .988648 .585589 .468298
3 1 .750532 .006160 .438190
4 1 .136239 .072982 .525025
5 1 .013519 .669525 .563976
6 1 .514067 .452010 .986580
7 1 .467763 .468652 .010792
ITEM: TIMESTEP
200
ITEM: NUMBER OF ATOMS
7
ITEM: BOX BOUNDS ss ss ss
-2.9644 3.2404
-2.8469 3.4103
-2.0912 1.8939
ITEM: ATOMS id type xs ys zs
1 1 .530324 .993258 .482940
2 1 .988696 .587500 .466434
3 1 .745910 .007033 .434913
4 1 .135811 .071881 .522830
5 1 .015657 .675139 .563106
6 1 .506834 .451698 .982599
7 1 .464748 .468377 .016165
ITEM: TIMESTEP
250
ITEM: NUMBER OF ATOMS
7
ITEM: BOX BOUNDS ss ss ss
-2.9644 3.2404
-2.8470 3.4162
-2.0912 1.8883
ITEM: ATOMS id type xs ys zs
1 1 .526676 .992239 .486097
2 1 .990329 .584118 .467954
3 1 .746802 .008657 .446156
4 1 .137167 .073648 .527442
5 1 .010072 .675151 .563914
6 1 .506605 .457177 .983934
7 1 .465552 .467865 .017094
ITEM: TIMESTEP
300
ITEM: NUMBER OF ATOMS
7
ITEM: BOX BOUNDS ss ss ss
-2.9644 3.2499
-2.8498 3.4110
-2.0913 1.8873
ITEM: ATOMS id type xs ys zs
1 1 .527772 .989592 .477871
2 1 .991692 .586012 .465137
3 1 .744405 .008427 .438605
4 1 .134549 .075390 .524451
5 1 .006797 .673209 .561988
6 1 .506784 .453529 .988476
7 1 .465221 .467580 .019517
ITEM: TIMESTEP
350
ITEM: NUMBER OF ATOMS
7
ITEM: BOX BOUNDS ss ss ss
-2.9644 3.2493
-2.8451 3.4035
-2.0912 1.8820
ITEM: ATOMS id type xs ys zs
1 1 .531849 .992626 .476383