ITEM: TIMESTEP
1
ITEM: NUMBER OF ATOMS
7
ITEM: BOX BOUNDS ss ss ss
-9.1262 9.4886
-8.5881 9.3125
-5.9090 5.6825
ITEM: ATOMS id type xs ys zs
1 1 .492693 .666667 .524704
2 1 .666668 .549571 .500567
3 1 .610158 .343308 .458086
4 1 .406701 .333333 .499287
5 1 .333333 .531762 .515423
6 1 .508934 .476812 .666666
7 1 .497401 .495837 .333334
ITEM: TIMESTEP
50
ITEM: NUMBER OF ATOMS
7
ITEM: BOX BOUNDS ss ss ss
-9.1262 9.4886
-8.5881 9.3125
-5.9090 5.6825
ITEM: ATOMS id type xs ys zs
1 1 .492657 .666684 .524693
2 1 .666684 .549559 .500686
3 1 .610138 .343279 .457881
4 1 .406701 .333325 .499486
5 1 .333323 .531749 .515310
6 1 .508947 .476835 .666659
7 1 .497424 .495865 .333369
ITEM: TIMESTEP
100
ITEM: NUMBER OF ATOMS
7
ITEM: BOX BOUNDS ss ss ss
-9.1262 9.4886
-8.5881 9.3125
-5.9090 5.6825
ITEM: ATOMS id type xs ys zs
1 1 .492685 .666723 .524711
2 1 .666723 .549488 .500689
3 1 .610159 .343405 .457895
4 1 .406684 .333296 .499526
5 1 .333329 .531747 .515297
6 1 .508963 .476828 .666667
7 1 .497384 .495924 .333399
ITEM: TIMESTEP
150
ITEM: NUMBER OF ATOMS
7
ITEM: BOX BOUNDS ss ss ss
-9.1262 9.4886
-8.5881 9.3125
-5.9090 5.6825
ITEM: ATOMS id type xs ys zs
1 1 .492868 .666752 .524792
2 1 .666825 .549434 .500620
3 1 .610269 .343565 .457925
4 1 .406641 .333324 .499452
5 1 .333255 .531770 .515218
6 1 .508971 .476840 .666749
7 1 .497365 .496010 .333575
ITEM: TIMESTEP
200
ITEM: NUMBER OF ATOMS
7
ITEM: BOX BOUNDS ss ss ss
-9.1262 9.4886
-8.5881 9.3125
-5.9090 5.6825
ITEM: ATOMS id type xs ys zs
1 1 .492989 .666739 .524953
2 1 .666779 .549461 .500593
3 1 .610257 .343657 .458087
4 1 .406681 .333388 .499513
5 1 .333239 .531785 .515195
6 1 .508958 .476848 .667015
7 1 .497397 .496002 .333714
ITEM: TIMESTEP
250
ITEM: NUMBER OF ATOMS
7
ITEM: BOX BOUNDS ss ss ss
-9.1262 9.4886
-8.5881 9.3125
-5.9090 5.6825
ITEM: ATOMS id type xs ys zs
1 1 .492967 .666700 .524987
2 1 .666729 .549442 .500788
3 1 .610256 .343720 .458156
4 1 .406670 .333345 .499532
5 1 .333360 .531726 .515193
6 1 .508905 .476828 .667124
7 1 .497414 .495993 .333627
ITEM: TIMESTEP
300
ITEM: NUMBER OF ATOMS
7
ITEM: BOX BOUNDS ss ss ss
-9.1262 9.4886
-8.5881 9.3125
-5.9090 5.6825
ITEM: ATOMS id type xs ys zs
1 1 .492749 .666575 .524958
2 1 .666562 .549509 .501101
3 1 .610133 .343702 .458346
4 1 .406621 .333342 .499239
5 1 .333494 .531594 .515546
6 1 .508734 .476616 .667198
7 1 .497373 .496131 .333190
ITEM: TIMESTEP
350
ITEM: NUMBER OF ATOMS
7
ITEM: BOX BOUNDS ss ss ss
-9.1262 9.4886
-8.5881 9.3125
-5.9090 5.6825
ITEM: ATOMS id type xs ys zs
1 1 .492698 .666607 .524888
2 1 .666481 .549550 .501250
3 1 .610074 .343777 .458416
4 1 .406567 .333288 .499214
5 1 .333465 .531469 .515767
6 1 .508723 .476601 .667225
7 1 .497325 .496185 .333149
ITEM: TIMESTEP
400
ITEM: NUMBER OF ATOMS
7
ITEM: BOX BOUNDS ss ss ss
-9.1262 9.4886
-8.5881 9.3125
-5.9090 5.6825
ITEM: ATOMS id type xs ys zs
1 1 .492789 .666686 .524848
2 1 .666497 .549568 .501183
3 1 .609929 .343909 .458720
4 1 .406580 .333214 .499210
5 1 .333502 .531328 .515726
6 1 .508664 .476718 .667257
7 1 .497372 .496242 .333137
ITEM: TIMESTEP
1
ITEM: NUMBER OF ATOMS
7
ITEM: BOX BOUNDS ss ss ss
-9.1262 9.4886
-8.5881 9.3125
-5.9090 5.6825
ITEM: ATOMS id type xs ys zs
1 1 .492693 .666667 .524704
2 1 .666668 .549571 .500568
3 1 .610158 .343307 .458085
4 1 .406701 .333334 .499288
5 1 .333333 .531762 .515422
6 1 .508934 .476812 .666666
7 1 .497401 .495837 .333335
ITEM: TIMESTEP
50
ITEM: NUMBER OF ATOMS
7
ITEM: BOX BOUNDS ss ss ss
-9.1262 9.4886
-8.5881 9.3125
-5.9090 5.6825
ITEM: ATOMS id type xs ys zs
1 1 .492641 .666694 .524701
2 1 .666705 .549567 .500718
3 1 .610134 .343266 .457818
4 1 .406702 .333329 .499522
5 1 .333314 .531737 .515289
6 1 .508952 .476842 .666659
7 1 .497432 .495870 .333372
ITEM: TIMESTEP
100
ITEM: NUMBER OF ATOMS
7
ITEM: BOX BOUNDS ss ss ss
-9.1262 9.4886
-8.5881 9.3125
-5.9090 5.6825
ITEM: ATOMS id type xs ys zs
1 1 .492591 .666741 .524684
2 1 .666678 .549538 .500736
3 1 .610122 .343301 .457778
4 1 .406715 .333411 .499542
5 1 .333299 .531664 .515211
6 1 .508974 .476849 .666748
7 1 .497439 .495945 .333379
ITEM: TIMESTEP
150
ITEM: NUMBER OF ATOMS
7
ITEM: BOX BOUNDS ss ss ss
-9.1262 9.4886
-8.5881 9.3125
-5.9090 5.6825
ITEM: ATOMS id type xs ys zs
1 1 .492546 .666760 .524623
2 1 .666685 .549529 .500727
3 1 .610154 .343385 .457687
4 1 .406715 .333403 .499613
5 1 .333296 .531605 .515121
6 1 .508959 .476840 .666818
7 1 .497463 .495992 .333358
ITEM: TIMESTEP
200
ITEM: NUMBER OF ATOMS
7
ITEM: BOX BOUNDS ss ss ss
-9.1262 9.4886
-8.5881 9.3125
-5.9090 5.6825
ITEM: ATOMS id type xs ys zs
1 1 .492619 .666717 .524467
2 1 .666641 .549607 .500874
3 1 .610226 .343565 .457591
4 1 .406647 .333408 .499672
5 1 .333361 .531631 .515005
6 1 .508958 .476805 .666954
7 1 .497447 .495999 .333250
ITEM: TIMESTEP
250
ITEM: NUMBER OF ATOMS
7
ITEM: BOX BOUNDS ss ss ss
-9.1262 9.4886
-8.5881 9.3125
-5.9090 5.6825
ITEM: ATOMS id type xs ys zs
1 1 .492686 .666707 .524524
2 1 .666580 .549578 .500857
3 1 .610288 .343707 .457492
4 1 .406693 .333362 .499757
5 1 .333413 .531619 .514730
6 1 .508978 .476809 .667134
7 1 .497406 .496023 .333288
ITEM: TIMESTEP
300
ITEM: NUMBER OF ATOMS
7
ITEM: BOX BOUNDS ss ss ss
-9.1262 9.4886
-8.5881 9.3125
-5.9090 5.6825
ITEM: ATOMS id type xs ys zs
1 1 .492676 .666747 .524766
2 1 .666535 .549354 .500766
3 1 .610167 .343698 .457227
4 1 .406795 .333293 .499923
5 1 .333402 .531650 .514717
6 1 .508928 .476853 .667316
7 1 .497303 .496080 .333358
ITEM: TIMESTEP
350
ITEM: NUMBER OF ATOMS
7
ITEM: BOX BOUNDS ss ss ss
-9.1262 9.4886
-8.5881 9.3125
-5.9090 5.6825
ITEM: ATOMS id type xs ys zs
1 1 .492664 .666739 .525013
2 1 .666486 .549226 .500833
3 1 .610130 .343729 .457042
4 1 .406893 .333262 .500044
5 1 .333327 .531648 .514765
6 1 .508848 .476899 .667448
7 1 .497207 .496161 .333415
ITEM: TIMESTEP
400
ITEM: NUMBER OF ATOMS
7
ITEM: BOX BOUNDS ss ss ss
-9.1262 9.4886
-8.5881 9.3125
-5.9090 5.6825
ITEM: ATOMS id type xs ys zs
1 1 .492657 .666707 .525258
2 1 .666379 .549221 .500916
3 1 .610125 .343840 .456822
4 1 .406890 .333267 .500161
5 1 .333273 .531672 .514932
6 1 .508809 .476839 .667567
7 1 .497035 .496212 .333331
ITEM: TIMESTEP
450
ITEM: NUMBER OF ATOMS
7
ITEM: BOX BOUNDS ss ss ss
-9.1262 9.4886
-8.5881 9.3125
-5.9090 5.6825
ITEM: ATOMS id type xs ys zs
1 1 .492687 .666705 .525407
2 1 .666283 .549200 .501077
3 1 .610148 .343860 .456692
4 1 .406853 .333247 .500267
5 1 .333303 .531671 .515043
6 1 .508709 .476783 .667475
7 1 .497014 .496214 .333153
ITEM: TIMESTEP
500
ITEM: NUMBER OF ATOMS
7
ITEM: BOX BOUNDS ss ss ss
-9.1262 9.4886
-8.5881 9.3125
-5.9090 5.6825
ITEM: ATOMS id type xs ys zs
1 1 .492580 .666741 .525660
2 1 .666147 .549090 .501358
3 1 .610134 .343932 .456879
4 1 .406738 .333308 .500208
5 1 .333331 .531700 .515338
6 1 .508495 .476693 .667300
7 1 .497017 .496327 .332958
ITEM: TIMESTEP
550
ITEM: NUMBER OF ATOMS
7
ITEM: BOX BOUNDS ss ss ss
-9.1262 9.4886
-8.5881 9.3125
-5.9090 5.6825
ITEM: ATOMS id type xs ys zs
1 1 .492748 .666756 .525423
2 1 .666183 .548837 .501582
3 1 .610057 .343919 .457027
4 1 .406682 .333247 .500383
5 1 .333315 .531757 .515544
6 1 .508379 .476671 .667337
7 1 .496925 .496323 .333060
ITEM: TIMESTEP
600
ITEM: NUMBER OF ATOMS
7
ITEM: BOX BOUNDS ss ss ss
-9.1262 9.4886
-8.5881 9.3125
-5.9090 5.6825
ITEM: ATOMS id type xs ys zs
1 1 .492830 .666802 .525376
2 1 .666173 .548816 .501586
3 1 .610017 .343903 .456878
4 1 .406721 .333135 .500512
5 1 .333349 .531761 .515501
6 1 .508395 .476732 .667397
7 1 .496881 .496320 .333129
ITEM: TIMESTEP
650
ITEM: NUMBER OF ATOMS
7
ITEM: BOX BOUNDS ss ss ss
-9.1262 9.4886
-8.5881 9.3125
-5.9090 5.6825
ITEM: ATOMS id type xs ys zs
1 1 .492914 .666856 .525370
2 1 .666158 .548797 .501663
3 1 .609931 .343912 .456754
4 1 .406717 .333084 .500586
5 1 .333347 .531809 .515444
6 1 .508376 .476804 .667402
7 1 .496857 .496388 .333141
ITEM: TIMESTEP
700
ITEM: NUMBER OF ATOMS
7
ITEM: BOX BOUNDS ss ss ss
-9.1262 9.4886
-8.5881 9.3125
-5.9090 5.6825
ITEM: ATOMS id type xs ys zs
1 1 .492973 .666869 .525351
2 1 .666166 .548809 .501630
3 1 .609825 .344016 .456642
4 1 .406768 .333040 .500740
5 1 .333353 .531862 .515277
6 1 .508336 .476867 .667513
7 1 .496839 .496452 .333061
ITEM: TIMESTEP
750
ITEM: NUMBER OF ATOMS
7
ITEM: BOX BOUNDS ss ss ss
-9.1262 9.4886
-8.5881 9.3125
-5.9090 5.6825
ITEM: ATOMS id type xs ys zs
1 1 .492989 .666879 .525299
2 1 .666197 .548780 .501663
3 1 .609773 .344066 .456546
4 1 .406779 .333062 .500934
5 1 .333331 .531901 .515183
6 1 .508270 .476934 .667592
7 1 .496826 .496542 .333075
ITEM: TIMESTEP
800
ITEM: NUMBER OF ATOMS
7
ITEM: BOX BOUNDS ss ss ss
-9.1262 9.4886
-8.5881 9.3125
-5.9090 5.6825
ITEM: ATOMS id type xs ys zs
1 1 .493033 .666873 .525396
2 1 .666229 .548769 .501652
3 1 .609701 .344095 .456505
4 1 .406750 .333087 .501055
5 1 .333272 .531945 .515021
6 1 .508309 .476929 .667595
7 1 .496799 .496628 .333118
ITEM: TIMESTEP
850
ITEM: NUMBER OF ATOMS
7
ITEM: BOX BOUNDS ss ss ss
-9.1262 9.4886
-8.5881 9.3125
-5.9090 5.6825
ITEM: ATOMS id type xs ys zs
1 1 .493005 .666919 .525452
2 1 .666269 .548743 .501768
3 1 .609663 .344176 .456513
4 1 .406686 .333058 .501185
5 1 .333255 .531910 .514797
6 1 .508233 .476954 .667605
7 1 .496836 .496713 .333117
ITEM: TIMESTEP
900
ITEM: NUMBER OF ATOMS
7
ITEM: BOX BOUNDS ss ss ss
-9.1262 9.4886
-8.5881 9.3125
-5.9090 5.6825
ITEM: ATOMS id type xs ys zs
1 1 .492963 .667054 .525548
2 1 .666277 .548710 .501880
3 1 .609611 .344352 .456688
4 1 .406556 .332987 .501323
5 1 .333321 .531873 .514508
6 1 .508016 .476985 .667617
7 1 .497003 .496936 .332912
ITEM: TIMESTEP
950
ITEM: NUMBER OF ATOMS
7
ITEM: BOX BOUNDS ss ss ss
-9.1262 9.4886
-8.5881 9.3125
-5.9090 5.6825
ITEM: ATOMS id type xs ys zs
1 1 .493014 .667024 .525729
2 1 .666260 .548594 .502001
3 1 .609583 .344490 .456610
4 1 .406517 .332993 .501372
5 1 .333325 .531907 .514329
6 1 .507917 .476948 .667704
7 1 .496925 .497007 .332696
ITEM: TIMESTEP
1000
ITEM: NUMBER OF ATOMS
7
ITEM: BOX BOUNDS ss ss ss
-9.1262 9.4886
-8.5881 9.3125
-5.9090 5.6825
ITEM: ATOMS id type xs ys zs
1 1 .493021 .666970 .525827
2 1 .666233 .548510 .501990
3 1 .609553 .344593 .456384
4 1 .406594 .332956 .501450
5 1 .333342 .531987 .514173
6 1 .507894 .476946 .667765
7 1 .496802 .496994 .332617
ITEM: TIMESTEP
1050
ITEM: NUMBER OF ATOMS
7
ITEM: BOX BOUNDS ss ss ss
-9.1262 9.4886
-8.5881 9.3125
-5.9090 5.6825
ITEM: ATOMS id type xs ys zs
1 1 .493023 .666966 .525866
2 1 .666226 .548464 .501990
3 1 .609526 .344603 .456155
4 1 .406677 .332886 .501573
5 1 .333311 .532024 .514059
6 1 .507904 .476971 .667755
7 1 .496732 .496974 .332611
ITEM: TIMESTEP
1100
ITEM: NUMBER OF ATOMS
7
ITEM: BOX BOUNDS ss ss ss
-9.1262 9.4886
-8.5881 9.3125
-5.9090 5.6825
ITEM: ATOMS id type xs ys zs
1 1 .493050 .666954 .525832
2 1 .666191 .548514 .501985
3 1 .609428 .344584 .456013
4 1 .406700 .332818 .501702
5 1 .333197 .532036 .513895
6 1 .507857 .477094 .667668
7 1 .496592 .496981 .332456
ITEM: TIMESTEP
1150
ITEM: NUMBER OF ATOMS
7
ITEM: BOX BOUNDS ss ss ss
-9.1262 9.4886
-8.5881 9.3125
-5.9090 5.6825
ITEM: ATOMS id type xs ys zs
1 1 .493052 .667016 .525817
2 1 .666074 .548538 .501828
3 1 .609224 .344584 .455914
4 1 .406662 .332829 .501791
5 1 .333072 .532090 .513701
6 1 .507759 .477253 .667491
7 1 .496442 .497027 .332304
ITEM: TIMESTEP
1200
ITEM: NUMBER OF ATOMS
7
ITEM: BOX BOUNDS ss ss ss
-9.1262 9.4886
-8.5881 9.3125
-5.9090 5.6825
ITEM: ATOMS id type xs ys zs
1 1 .493116 .666991 .525809
2 1 .665987 .548415 .501794
3 1 .609196 .344557 .455974
4 1 .406589 .332843 .502024
5 1 .333022 .532052 .513475
6 1 .507658 .477270 .667480
7 1 .496410 .497033 .332340
ITEM: TIMESTEP
1250
ITEM: NUMBER OF ATOMS
7
ITEM: BOX BOUNDS ss ss ss
-9.1262 9.4886
-8.5881 9.3125
-5.9090 5.6825
ITEM: ATOMS id type xs ys zs
1 1 .493138 .666993 .525845
2 1 .665955 .548343 .501812
3 1 .609180 .344511 .455990
4 1 .406644 .332813 .502276
5 1 .332963 .532020 .513349
6 1 .507616 .477293 .667565
7 1 .496418 .497028 .332303
ITEM: TIMESTEP
1300
ITEM: NUMBER OF ATOMS
7
ITEM: BOX BOUNDS ss ss ss
-9.1262 9.4886
-8.5881 9.3125
-5.9090 5.6825
ITEM: ATOMS id type xs ys zs
1 1 .493130 .666976 .525917
2 1 .665928 .548256 .501876
3 1 .609152 .344525 .455862
4 1 .406742 .332810 .502399
5 1 .332915 .532008 .513287
6 1 .507561 .477397 .667624
7 1 .496446 .497060 .332266
ITEM: TIMESTEP
1350
ITEM: NUMBER OF ATOMS
7
ITEM: BOX BOUNDS ss ss ss
-9.1262 9.4886
-8.5881 9.3125
-5.9090 5.6825
ITEM: ATOMS id type xs ys zs
1 1 .493210 .666963 .526015
2 1 .665962 .548155 .501837
3 1 .609049 .344603 .455529
4 1 .406740 .332821 .502211
5 1 .332894 .532010 .513177
6 1 .507489 .477424 .667647
7 1 .496416 .497130 .332203
ITEM: TIMESTEP
1400
ITEM: NUMBER OF ATOMS
7
ITEM: BOX BOUNDS ss ss ss
-9.1262 9.4886
-8.5881 9.3125
-5.9090 5.6825
ITEM: ATOMS id type xs ys zs
1 1 .493465 .666950 .525955
2 1 .666046 .548000 .501764
3 1 .608970 .344600 .455176
4 1 .406804 .332873 .501913
5 1 .332914 .532006 .512930
6 1 .507428 .477403 .667669
7 1 .496357 .497184 .331993
ITEM: TIMESTEP
1450
ITEM: NUMBER OF ATOMS
7
ITEM: BOX BOUNDS ss ss ss
-9.1262 9.4886
-8.5881 9.3125
-5.9090 5.6825
ITEM: ATOMS id type xs ys zs
1 1 .493542 .666990 .525884
2 1 .666045 .547921 .501881
3 1 .608948 .344650 .455115
4 1 .406830 .332850 .501976
5 1 .332927 .532012 .512908
6 1 .507338 .477478 .667814
7 1 .496326 .497239 .331952
ITEM: TIMESTEP
1500
ITEM: NUMBER OF ATOMS
7
ITEM: BOX BOUNDS ss ss ss
-9.1262 9.4886
-8.5881 9.3125
-5.9090 5.6825
ITEM: ATOMS id type xs ys zs
1 1 .493568 .667021 .525929
2 1 .666068 .547863 .501883
3 1 .608955 .344625 .454986
4 1 .406866 .332846 .502166
5 1 .332922 .532014 .512894
6 1 .507313 .477587 .667870
7 1 .496323 .497302 .332041
ITEM: TIMESTEP
1550
ITEM: NUMBER OF ATOMS
7
ITEM: BOX BOUNDS ss ss ss
-9.1262 9.4886
-8.5881 9.3125
-5.9090 5.6825
ITEM: ATOMS id type xs ys zs
1 1 .493549 .667073 .526168
2 1 .666157 .547798 .501729
3 1 .609043 .344568 .454845
4 1 .406995 .332864 .502295
5 1 .332888 .532017 .512831
6 1 .507377 .477713 .667859
7 1 .496364 .497320 .332177
ITEM: TIMESTEP
1600
ITEM: NUMBER OF ATOMS
7
ITEM: BOX BOUNDS ss ss ss
-9.1262 9.4886
-8.5881 9.3125
-5.9090 5.6825
ITEM: ATOMS id type xs ys zs
1 1 .493508 .667079 .526249
2 1 .666192 .547729 .501606
3 1 .609145 .344521 .454672
4 1 .407175 .332872 .502392
5 1 .332843 .532015 .512630
6 1 .507378 .477802 .667945
7 1 .496432 .497344 .332228
ITEM: TIMESTEP
1650
ITEM: NUMBER OF ATOMS
7
ITEM: BOX BOUNDS ss ss ss
-9.1262 9.4886
-8.5881 9.3125
-5.9090 5.6825
ITEM: ATOMS id type xs ys zs
1 1 .493484 .667112 .526259
2 1 .666145 .547669 .501538
3 1 .609135 .344454 .454546
4 1 .407233 .332898 .502513
5 1 .332853 .531973 .512391
6 1 .507356 .477913 .668034
7 1 .496491 .497363 .332159
ITEM: TIMESTEP
1700
ITEM: NUMBER OF ATOMS
7
ITEM: BOX BOUNDS ss ss ss
-9.1262 9.4886
-8.5881 9.3125
-5.9090 5.6825
ITEM: ATOMS id type xs ys zs
1 1 .493511 .667163 .526262
2 1 .666051 .547625 .501049
3 1 .609095 .344383 .454312
4 1 .407144 .332956 .502657
5 1 .332787 .531992 .512341
6 1 .507320 .477945 .668056
7 1 .496308 .497351 .332352
ITEM: TIMESTEP
1750
ITEM: NUMBER OF ATOMS
7
ITEM: BOX BOUNDS ss ss ss
-9.1262 9.4886
-8.5881 9.3125
-5.9090 5.6825
ITEM: ATOMS id type xs ys zs
1 1 .493676 .667253 .526357
2 1 .665988 .547535 .500632
3 1 .609133 .344337 .454078
4 1 .407069 .333018 .502798
5 1 .332640 .532033 .512396
6 1 .507340 .477904 .668068
7 1 .496145 .497322 .332609
ITEM: TIMESTEP
1800
ITEM: NUMBER OF ATOMS
7
ITEM: BOX BOUNDS ss ss ss
-9.1262 9.4886
-8.5881 9.3125
-5.9090 5.6825
ITEM: ATOMS id type xs ys zs
1 1 .493748 .667265 .526450
2 1 .665976 .547440 .500588
3 1 .609121 .344349 .453988
4 1 .407145 .333016 .502947
5 1 .332579 .532076 .512282
6 1 .507326 .477939 .668117
7 1 .496118 .497352 .332613
ITEM: TIMESTEP
1850
ITEM: NUMBER OF ATOMS
7
ITEM: BOX BOUNDS ss ss ss
-9.1262 9.4886
-8.5881 9.3125
-5.9090 5.6825
ITEM: ATOMS id type xs ys zs
1 1 .493781 .667277 .526489
2 1 .666028 .547389 .500560
3 1 .609078 .344408 .453903
4 1 .407193 .332969 .503186
5 1 .332572 .532078 .512135
6 1 .507292 .478035 .668027
7 1 .496097 .497378 .332490
ITEM: TIMESTEP
1900
ITEM: NUMBER OF ATOMS
7
ITEM: BOX BOUNDS ss ss ss
-9.1262 9.4886
-8.5881 9.3125
-5.9090 5.6825
ITEM: ATOMS id type xs ys zs
1 1 .493789 .667297 .526397
2 1 .666067 .547387 .500547
3 1 .609118 .344459 .453820
4 1 .407147 .332951 .503385
5 1 .332581 .532014 .512156
6 1 .507237 .478136 .667879
7 1 .496122 .497372 .332324
ITEM: TIMESTEP
1950
ITEM: NUMBER OF ATOMS
7
ITEM: BOX BOUNDS ss ss ss
-9.1262 9.4886
-8.5881 9.3125
-5.9090 5.6825
ITEM: ATOMS id type xs ys zs
1 1 .493678 .667230 .526442
2 1 .666066 .547384 .500645
3 1 .609308 .344364 .453457
4 1 .407241 .332964 .503404
5 1 .332491 .531867 .512529
6 1 .507366 .478133 .667807
7 1 .496139 .497324 .332360
ITEM: TIMESTEP
2000
ITEM: NUMBER OF ATOMS
7
ITEM: BOX BOUNDS ss ss ss
-9.1262 9.4886
-8.5881 9.3125
-5.9090 5.6825
ITEM: ATOMS id type xs ys zs
1 1 .493681 .667168 .526444
2 1 .666111 .547352 .500742
3 1 .609422 .344346 .453154
4 1 .407367 .332864 .503507
5 1 .332446 .531820 .512659
6 1 .507409 .478124 .667826
7 1 .496097 .497280 .332422
ITEM: TIMESTEP
2050
ITEM: NUMBER OF ATOMS
7
ITEM: BOX BOUNDS ss ss ss
-9.1262 9.4886
-8.5881 9.3125
-5.9090 5.6825
ITEM: ATOMS id type xs ys zs
1 1 .493723 .667181 .526386
2 1 .666115 .547331 .500850
3 1 .609467 .344341 .452930
4 1 .407481 .332810 .503600
5 1 .332426 .531799 .512579
6 1 .507414 .478147 .667868
7 1 .496060 .497265 .332451
ITEM: TIMESTEP
2100
ITEM: NUMBER OF ATOMS
7
ITEM: BOX BOUNDS ss ss ss
-9.1262 9.4886
-8.5881 9.3125
-5.9090 5.6825
ITEM: ATOMS id type xs ys zs
1 1 .493749 .667160 .526315
2 1 .666114 .547268 .500912
3 1 .609550 .344329 .452648
4 1 .407594 .332777 .503671
5 1 .332368 .531745 .512466
6 1 .507379 .478164 .667955
7 1 .496020 .497252 .332518
ITEM: TIMESTEP
2150
ITEM: NUMBER OF ATOMS
7
ITEM: BOX BOUNDS ss ss ss
-9.1262 9.4886
-8.5881 9.3125
-5.9090 5.6825
ITEM: ATOMS id type xs ys zs
1 1 .493821 .667212 .526328
2 1 .666128 .547199 .500868
3 1 .609531 .344219 .452368
4 1 .407691 .332665 .503754
5 1 .332391 .531684 .512376
6 1 .507368 .478122 .667938
7 1 .496029 .497268 .332625
ITEM: TIMESTEP
2200
ITEM: NUMBER OF ATOMS
7
ITEM: BOX BOUNDS ss ss ss
-9.1262 9.4886
-8.5881 9.3125
-5.9090 5.6825
ITEM: ATOMS id type xs ys zs
1 1 .493885 .667231 .526231
2 1 .666107 .547160 .500767
3 1 .609552 .344148 .452065
4 1 .407812 .332697 .503867
5 1 .332443 .531661 .512396
6 1 .507367 .478169 .668031
7 1 .496083 .497251 .332662
ITEM: TIMESTEP
2250
ITEM: NUMBER OF ATOMS
7
ITEM: BOX BOUNDS ss ss ss
-9.1262 9.4886
-8.5881 9.3125
-5.9090 5.6825
ITEM: ATOMS id type xs ys zs
1 1 .493894 .667216 .526166
2 1 .666059 .547106 .500828
3 1 .609641 .344157 .451756
4 1 .407845 .332776 .504038
5 1 .332475 .531685 .512380
6 1 .507382 .478231 .668188
7 1 .496089 .497262 .332603
ITEM: TIMESTEP
2300
ITEM: NUMBER OF ATOMS
7
ITEM: BOX BOUNDS ss ss ss
-9.1262 9.4886
-8.5881 9.3125
-5.9090 5.6825
ITEM: ATOMS id type xs ys zs
1 1 .493868 .667162 .525980
2 1 .665963 .547087 .500924
3 1 .609660 .344198 .451452
4 1 .407850 .332784 .504137
5 1 .332484 .531666 .512260
6 1 .507335 .478260 .668254
7 1 .496090 .497299 .332369
ITEM: TIMESTEP
2350
ITEM: NUMBER OF ATOMS
7
ITEM: BOX BOUNDS ss ss ss
-9.1262 9.4886
-8.5881 9.3125
-5.9090 5.6825
ITEM: ATOMS id type xs ys zs
1 1 .493897 .667135 .526051
2 1 .666011 .547041 .500900
3 1 .609692 .344273 .451168
4 1 .407901 .332758 .504250
5 1 .332508 .531631 .512131
6 1 .507347 .478277 .668308
7 1 .496084 .497330 .332307
ITEM: TIMESTEP
2400
ITEM: NUMBER OF ATOMS
7
ITEM: BOX BOUNDS ss ss ss
-9.1262 9.4886
-8.5881 9.3125
-5.9090 5.6825
ITEM: ATOMS id type xs ys zs
1 1 .493844 .667159 .526052
2 1 .666061 .546971 .500956
3 1 .609666 .344290 .450956
4 1 .407926 .332721 .504342
5 1 .332477 .531602 .511982
6 1 .507313 .478277 .668319
7 1 .496074 .497390 .332297
ITEM: TIMESTEP
2450
ITEM: NUMBER OF ATOMS
7
ITEM: BOX BOUNDS ss ss ss
-9.1262 9.4886
-8.5881 9.3125
-5.9090 5.6825
ITEM: ATOMS id type xs ys zs
1 1 .493738 .667184 .526083
2 1 .666082 .546974 .501061
3 1 .609632 .344242 .450751
4 1 .407934 .332658 .504514
5 1 .332428 .531574 .511832
6 1 .507312 .478276 .668181
7 1 .496062 .497432 .332237
ITEM: TIMESTEP
2500
ITEM: NUMBER OF ATOMS
7
ITEM: BOX BOUNDS ss ss ss
-9.1262 9.4886
-8.5881 9.3125
-5.9090 5.6825
ITEM: ATOMS id type xs ys zs
1 1 .493561 .667218 .525958
2 1 .665948 .547093 .501178
3 1 .609658 .344335 .450532
4 1 .407931 .332730 .504645
5 1 .332401 .531568 .511753
6 1 .507289 .478350 .668105
7 1 .495957 .497393 .332095
ITEM: TIMESTEP
2550
ITEM: NUMBER OF ATOMS
7
ITEM: BOX BOUNDS ss ss ss
-9.1262 9.4886
-8.5881 9.3125
-5.9090 5.6825
ITEM: ATOMS id type xs ys zs
1 1 .493472 .667358 .526093
2 1 .665845 .547131 .501321
3 1 .609775 .344325 .450421
4 1 .407994 .332676 .504514
5 1 .332457 .531504 .511704
6 1 .507305 .478361 .668143
7 1 .495896 .497383 .332138
ITEM: TIMESTEP
2600
ITEM: NUMBER OF ATOMS
7
ITEM: BOX BOUNDS ss ss ss
-9.1262 9.4886
-8.5881 9.3125
-5.9090 5.6825
ITEM: ATOMS id type xs ys zs
1 1 .493501 .667456 .526166
2 1 .665818 .547058 .501392
3 1 .609804 .344269 .450196
4 1 .408062 .332648 .504503
5 1 .332472 .531501 .511703
6 1 .507312 .478391 .668193
7 1 .495925 .497419 .332200
ITEM: TIMESTEP
2650
ITEM: NUMBER OF ATOMS
7
ITEM: BOX BOUNDS ss ss ss
-9.1262 9.4886
-8.5881 9.3125
-5.9090 5.6825
ITEM: ATOMS id type xs ys zs
1 1 .493471 .667491 .526160
2 1 .665873 .547036 .501445
3 1 .609792 .344251 .449901
4 1 .408142 .332547 .504593
5 1 .332548 .531478 .511671
6 1 .507260 .478470 .668239
7 1 .496016 .497442 .332243
ITEM: TIMESTEP
2700
ITEM: NUMBER OF ATOMS
7
ITEM: BOX BOUNDS ss ss ss
-9.1262 9.4886
-8.5881 9.3125
-5.9090 5.6825
ITEM: ATOMS id type xs ys zs
1 1 .493535 .667484 .526146
2 1 .665816 .547016 .501467
3 1 .609682 .344199 .449655
4 1 .408206 .332432 .504762
5 1 .332493 .531263 .511625
6 1 .507182 .478525 .668332
7 1 .496041 .497542 .332166
ITEM: TIMESTEP
2750
ITEM: NUMBER OF ATOMS
7
ITEM: BOX BOUNDS ss ss ss
-9.1262 9.4886
-8.5881 9.3125
-5.9090 5.6825
ITEM: ATOMS id type xs ys zs
1 1 .493656 .667443 .526126
2 1 .665799 .546943 .501703
3 1 .609454 .344117 .449600
4 1 .408291 .332361 .504904
5 1 .332325 .530966 .511755
6 1 .507148 .478508 .668374
7 1 .495941 .497626 .332100
ITEM: TIMESTEP
2800
ITEM: NUMBER OF ATOMS
7
ITEM: BOX BOUNDS ss ss ss
-9.1262 9.4886
-8.5881 9.3125
-5.9090 5.6825
ITEM: ATOMS id type xs ys zs
1 1 .493643 .667408 .526104
2 1 .665809 .546855 .501833
3 1 .609383 .344075 .449424
4 1 .408335 .332349 .505097
5 1 .332314 .530880 .511706
6 1 .507132 .478526 .668517
7 1 .495948 .497635 .332189
ITEM: TIMESTEP
2850
ITEM: NUMBER OF ATOMS
7
ITEM: BOX BOUNDS ss ss ss
-9.1262 9.4886
-8.5881 9.3125
-5.9090 5.6825
ITEM: ATOMS id type xs ys zs
1 1 .493619 .667403 .526046
2 1 .665789 .546728 .502094
3 1 .609358 .344038 .449137
4 1 .408376 .332289 .505210
5 1 .332353 .530878 .511638
6 1 .506999 .478586 .668674
7 1 .495987 .497681 .332198
ITEM: TIMESTEP
2900
ITEM: NUMBER OF ATOMS
7
ITEM: BOX BOUNDS ss ss ss
-9.1262 9.4886
-8.5881 9.3125
-5.9090 5.6825
ITEM: ATOMS id type xs ys zs
1 1 .493532 .667455 .526006
2 1 .665772 .546578 .502230
3 1 .609343 .344008 .448775
4 1 .408441 .332254 .505338
5 1 .332332 .530909 .511538
6 1 .506876 .478679 .668752
7 1 .495987 .497731 .332202
ITEM: TIMESTEP
2950
ITEM: NUMBER OF ATOMS
7
ITEM: BOX BOUNDS ss ss ss
-9.1262 9.4886
-8.5881 9.3125
-5.9090 5.6825
ITEM: ATOMS id type xs ys zs
1 1 .493469 .667501 .526032
2 1 .665750 .546470 .502356
3 1 .609309 .343939 .448355
4 1 .408543 .332219 .505399
5 1 .332289 .530901 .511486
6 1 .506770 .478767 .668826
7 1 .496010 .497828 .332264
ITEM: TIMESTEP
3000
ITEM: NUMBER OF ATOMS
7
ITEM: BOX BOUNDS ss ss ss
-9.1262 9.4886
-8.5881 9.3125
-5.9090 5.6825
ITEM: ATOMS id type xs ys zs
1 1 .493513 .667564 .526014
2 1 .665717 .546388 .502460
3 1 .609355 .343961 .447964
4 1 .408649 .332201 .505465
5 1 .332222 .530912 .511469
6 1 .506692 .478836 .668818
7 1 .495953 .497875 .332318
ITEM: TIMESTEP
3050
ITEM: NUMBER OF ATOMS
7
ITEM: BOX BOUNDS ss ss ss
-9.1262 9.4886
-8.5881 9.3125
-5.9090 5.6825
ITEM: ATOMS id type xs ys zs
1 1 .493615 .667612 .525895
2 1 .665695 .546393 .502533
3 1 .609383 .343935 .447519
4 1 .408721 .332269 .505455
5 1 .332117 .531014 .511316
6 1 .506612 .478963 .668800
7 1 .495848 .497832 .332353
ITEM: TIMESTEP
3100
ITEM: NUMBER OF ATOMS
7
ITEM: BOX BOUNDS ss ss ss
-9.1262 9.4886
-8.5881 9.3125
-5.9090 5.6825
ITEM: ATOMS id type xs ys zs
1 1 .493669 .667681 .525795
2 1 .665678 .546387 .502626
3 1 .609412 .343886 .447065
4 1 .408759 .332344 .505505
5 1 .331970 .531126 .511170
6 1 .506527 .479083 .668843
7 1 .495775 .497804 .332446
ITEM: TIMESTEP
3150
ITEM: NUMBER OF ATOMS
7
ITEM: BOX BOUNDS ss ss ss
-9.1262 9.4886
-8.5881 9.3125
-5.9090 5.6825
ITEM: ATOMS id type xs ys zs
1 1 .493644 .667902 .525754
2 1 .665604 .546550 .502402
3 1 .609312 .343966 .447224
4 1 .408727 .332497 .505591
5 1 .331967 .531107 .511209
6 1 .506572 .479319 .668714
7 1 .495747 .497909 .332484
ITEM: TIMESTEP
3200
ITEM: NUMBER OF ATOMS
7
ITEM: BOX BOUNDS ss ss ss
-9.1262 9.4886
-8.5881 9.3125
-5.9090 5.6825
ITEM: ATOMS id type xs ys zs
1 1 .493626 .667995 .525709
2 1 .665642 .546493 .502445
3 1 .609308 .343958 .446985
4 1 .408790 .332463 .505815
5 1 .331885 .531080 .511154
6 1 .506458 .479454 .668817
7 1 .495785 .498078 .332531
ITEM: TIMESTEP
3201
ITEM: NUMBER OF ATOMS
7
ITEM: BOX BOUNDS ss ss ss
-9.1262 9.4886
-8.5881 9.3125
-5.9090 5.6825
ITEM: ATOMS id type xs ys zs
1 1 .493625 .667990 .525706
2 1 .665639 .546502 .502425
3 1 .609311 .343962 .447030
4 1 .408783 .332467 .505776
5 1 .331890 .531085 .511178
6 1 .506462 .479443 .668811
7 1 .495783 .498072 .332529
ITEM: TIMESTEP
3250
ITEM: NUMBER OF ATOMS
7
ITEM: BOX BOUNDS ss ss ss
-9.1262 9.4886
-8.5881 9.3125
-5.9090 5.6825
ITEM: ATOMS id type xs ys zs
1 1 .493609 .667883 .525636
2 1 .665595 .546710 .501933
3 1 .609384 .344071 .448137
4 1 .408603 .332548 .504821
5 1 .332018 .531211 .511778
6 1 .506565 .479179 .668675
7 1 .495724 .497924 .332488
ITEM: TIMESTEP
3300
ITEM: NUMBER OF ATOMS
7
ITEM: BOX BOUNDS ss ss ss
-9.1262 9.4886
-8.5881 9.3125
-5.9090 5.6825
ITEM: ATOMS id type xs ys zs
1 1 .493598 .667925 .525570
2 1 .665621 .546633 .501988
3 1 .609414 .344024 .447840
4 1 .408647 .332526 .504980
5 1 .331995 .531185 .511661
6 1 .506505 .479255 .668770
7 1 .495746 .497956 .332523
ITEM: TIMESTEP
3350
ITEM: NUMBER OF ATOMS
7
ITEM: BOX BOUNDS ss ss ss
-9.1262 9.4886
-8.5881 9.3125
-5.9090 5.6825
ITEM: ATOMS id type xs ys zs
1 1 .493552 .667945 .525475
2 1 .665669 .546532 .502029
3 1 .609435 .343954 .447541
4 1 .408733 .332459 .505088
5 1 .331930 .531121 .511620
6 1 .506451 .479335 .668822
7 1 .495764 .497995 .332593
ITEM: TIMESTEP
3400
ITEM: NUMBER OF ATOMS
7
ITEM: BOX BOUNDS ss ss ss
-9.1262 9.4886
-8.5881 9.3125
-5.9090 5.6825
ITEM: ATOMS id type xs ys zs
1 1 .493548 .667961 .525460
2 1 .665702 .546458 .502157
3 1 .609452 .343958 .447303
4 1 .408805 .332417 .505243
5 1 .331924 .531135 .511486
6 1 .506369 .479406 .668895
7 1 .495741 .498001 .332700
ITEM: TIMESTEP
3450
ITEM: NUMBER OF ATOMS
7
ITEM: BOX BOUNDS ss ss ss
-9.1262 9.4886
-8.5881 9.3125
-5.9090 5.6825
ITEM: ATOMS id type xs ys zs
1 1 .493629 .668023 .525550
2 1 .665709 .546456 .502488
3 1 .609523 .344037 .447177
4 1 .408802 .332488 .505404
5 1 .331890 .531206 .511378
6 1 .506288 .479545 .669120
7 1 .495718 .498008 .332876
ITEM: TIMESTEP
3500
ITEM: NUMBER OF ATOMS
7
ITEM: BOX BOUNDS ss ss ss
-9.1262 9.4886
-8.5881 9.3125
-5.9090 5.6825
ITEM: ATOMS id type xs ys zs
1 1 .493664 .668085 .525590
2 1 .665733 .546389 .502728
3 1 .609536 .344019 .446989
4 1 .408826 .332509 .505641
5 1 .331843 .531223 .511330
6 1 .506202 .479609 .669176
7 1 .495743 .498023 .332918
ITEM: TIMESTEP
3550
ITEM: NUMBER OF ATOMS
7
ITEM: BOX BOUNDS ss ss ss
-9.1262 9.4886
-8.5881 9.3125
-5.9090 5.6825
ITEM: ATOMS id type xs ys zs
1 1 .493757 .668120 .525555
2 1 .665750 .546286 .503024
3 1 .609488 .343998 .446840
4 1 .408798 .332533 .505961
5 1 .331801 .531251 .511334
6 1 .506109 .479661 .669267
7 1 .495723 .498092 .332935
ITEM: TIMESTEP
3600
ITEM: NUMBER OF ATOMS
7
ITEM: BOX BOUNDS ss ss ss
-9.1262 9.4886
-8.5881 9.3125
-5.9090 5.6825
ITEM: ATOMS id type xs ys zs
1 1 .493816 .668177 .525484
2 1 .665729 .546166 .503206
3 1 .609450 .343963 .446626
4 1 .408823 .332599 .506308
5 1 .331766 .531334 .511415
6 1 .506056 .479765 .669439
7 1 .495714 .498166 .332922
ITEM: TIMESTEP
3650
ITEM: NUMBER OF ATOMS
7
ITEM: BOX BOUNDS ss ss ss
-9.1262 9.4886
-8.5881 9.3125
-5.9090 5.6825
ITEM: ATOMS id type xs ys zs
1 1 .493813 .668076 .525477
2 1 .665617 .546101 .503388
3 1 .609340 .343901 .446451
4 1 .408753 .332528 .506534
5 1 .331761 .531340 .511258
6 1 .505954 .479707 .669545
7 1 .495738 .498155 .332766
ITEM: TIMESTEP
3700
ITEM: NUMBER OF ATOMS
7
ITEM: BOX BOUNDS ss ss ss
-9.1262 9.4886
-8.5881 9.3125
-5.9090 5.6825
ITEM: ATOMS id type xs ys zs
1 1 .493825 .667955 .525546
2 1 .665598 .545899 .503581
3 1 .609284 .343834 .446324
4 1 .408786 .332500 .506610
5 1 .331815 .531379 .511095
6 1 .505839 .479722 .669741
7 1 .495828 .498189 .332777
ITEM: TIMESTEP
3750
ITEM: NUMBER OF ATOMS
7
ITEM: BOX BOUNDS ss ss ss
-9.1262 9.4886
-8.5881 9.3125
-5.9090 5.6825
ITEM: ATOMS id type xs ys zs
1 1 .493757 .668007 .525481
2 1 .665627 .545720 .503845
3 1 .609263 .343819 .446122
4 1 .408909 .332510 .506619
5 1 .331804 .531347 .510965
6 1 .505753 .479793 .669920
7 1 .495891 .498305 .332767
ITEM: TIMESTEP
3800
ITEM: NUMBER OF ATOMS
7
ITEM: BOX BOUNDS ss ss ss
-9.1262 9.4886
-8.5881 9.3125
-5.9090 5.6825
ITEM: ATOMS id type xs ys zs
1 1 .493723 .668136 .525520
2 1 .665636 .545566 .504119
3 1 .609294 .343766 .445754
4 1 .409037 .332534 .506665
5 1 .331766 .531330 .510935
6 1 .505658 .479970 .670087
7 1 .495896 .498398 .332860
ITEM: TIMESTEP
3850
ITEM: NUMBER OF ATOMS
7
ITEM: BOX BOUNDS ss ss ss
-9.1262 9.4886
-8.5881 9.3125
-5.9090 5.6825
ITEM: ATOMS id type xs ys zs
1 1 .493680 .668204 .525829
2 1 .665667 .545315 .504169
3 1 .609292 .343560 .445424
4 1 .409119 .332567 .506728
5 1 .331637 .531355 .510942
6 1 .505530 .480146 .670346
7 1 .495933 .498484 .333196
ITEM: TIMESTEP
3900
ITEM: NUMBER OF ATOMS
7
ITEM: BOX BOUNDS ss ss ss
-9.1262 9.4886
-8.5881 9.3125
-5.9090 5.6825