ITEM: TIMESTEP
1
ITEM: NUMBER OF ATOMS
7
ITEM: BOX BOUNDS ss ss ss
-3.1119 3.1142
-2.4865 3.4427
-1.9581 1.9108
ITEM: ATOMS id type xs ys zs
1 1 .492985 .999220 .605026
2 1 .999320 .634957 .539051
3 1 .812104 .000677 .450476
4 1 .205215 .014717 .405368
5 1 .000786 .615389 .506621
6 1 .495173 .418870 .999185
7 1 .516579 .490556 .001173
ITEM: TIMESTEP
50
ITEM: NUMBER OF ATOMS
7
ITEM: BOX BOUNDS ss ss ss
-3.1377 3.1359
-2.5097 3.4723
-1.9824 1.9355
ITEM: ATOMS id type xs ys zs
1 1 .492469 .993962 .600183
2 1 .998094 .632465 .540850
3 1 .808745 .003528 .452147
4 1 .208585 .015707 .404909
5 1 .005279 .614560 .505261
6 1 .494758 .417800 .991586
7 1 .516251 .490894 .004168
ITEM: TIMESTEP
100
ITEM: NUMBER OF ATOMS
7
ITEM: BOX BOUNDS ss ss ss
-3.1416 3.1463
-2.5211 3.4744
-1.9887 1.9391
ITEM: ATOMS id type xs ys zs
1 1 .493765 .991585 .604756
2 1 .993104 .632959 .541411
3 1 .809721 .009154 .449532
4 1 .208776 .017949 .407110
5 1 .005496 .612090 .509197
6 1 .495298 .421868 .994906
7 1 .517302 .490018 .008537
ITEM: TIMESTEP
150
ITEM: NUMBER OF ATOMS
7
ITEM: BOX BOUNDS ss ss ss
-3.1391 3.1481
-2.5217 3.4812
-1.9911 1.9442
ITEM: ATOMS id type xs ys zs
1 1 .494683 .992300 .606960
2 1 .996443 .630185 .543859
3 1 .807639 .007626 .451920
4 1 .207286 .019340 .406636
5 1 .002362 .617063 .504381
6 1 .499691 .419786 .985744
7 1 .516977 .493352 .009917
ITEM: TIMESTEP
200
ITEM: NUMBER OF ATOMS
7
ITEM: BOX BOUNDS ss ss ss
-3.1447 3.1487
-2.5133 3.4832
-1.9925 1.9522
ITEM: ATOMS id type xs ys zs
1 1 .493676 .991273 .595953
2 1 .995789 .629343 .542365
3 1 .809664 .006936 .455039
4 1 .206554 .019918 .400702
5 1 .007170 .612677 .509327
6 1 .496961 .417790 .987440
7 1 .519717 .488977 .014094
ITEM: TIMESTEP
250
ITEM: NUMBER OF ATOMS
7
ITEM: BOX BOUNDS ss ss ss
-3.1550 3.1472
-2.5105 3.4873
-1.9972 1.9509
ITEM: ATOMS id type xs ys zs
1 1 .493877 .991446 .601620
2 1 .988832 .624637 .539456
3 1 .808671 .009830 .451585
4 1 .207421 .014965 .407451
5 1 .008213 .613455 .503806
6 1 .499308 .418414 .993859
7 1 .512196 .488924 .006461
ITEM: TIMESTEP
300
ITEM: NUMBER OF ATOMS
7
ITEM: BOX BOUNDS ss ss ss
-3.1455 3.1563
-2.5030 3.4911
-2.0129 1.9556
ITEM: ATOMS id type xs ys zs
1 1 .492295 .988151 .604502
2 1 .991633 .621828 .539147
3 1 .805263 .003828 .458903
4 1 .201444 .018207 .410561
5 1 .010274 .614864 .505833
6 1 .499080 .415484 .990768
7 1 .515254 .486469 .018118
ITEM: TIMESTEP
350
ITEM: NUMBER OF ATOMS
7
ITEM: BOX BOUNDS ss ss ss
-3.1419 3.1504
-2.5023 3.4937
-2.0100 1.9567
ITEM: ATOMS id type xs ys zs
1 1 .490940 .989879 .600516
2 1 .993860 .620565 .537428
3 1 .807638 .010893 .455252
4 1 .202074 .012317 .409885
5 1 .006935 .610066 .507473
6 1 .495807 .415792 .986152
7 1 .511921 .483475 .014677
ITEM: TIMESTEP
400
ITEM: NUMBER OF ATOMS
7
ITEM: BOX BOUNDS ss ss ss
-3.1411 3.1492
-2.4865 3.4919
-2.0040 1.9579
ITEM: ATOMS id type xs ys zs
1 1 .489921 .991785 .598119
2 1 .994622 .618617 .537394
3 1 .806674 .008288 .455303
4 1 .200620 .012044 .408085
5 1 .008124 .608816 .508065
6 1 .495599 .415523 .984796
7 1 .511757 .481160 .012986
ITEM: TIMESTEP
1
ITEM: NUMBER OF ATOMS
7
ITEM: BOX BOUNDS ss ss ss
-3.1150 3.1249
-2.4864 3.4658
-1.9882 1.9437
ITEM: ATOMS id type xs ys zs
1 1 .492409 .995049 .603766
2 1 .997638 .632504 .538008
3 1 .810249 .000456 .450632
4 1 .205117 .014193 .406354
5 1 .001162 .612765 .505860
6 1 .494731 .417093 .991182
7 1 .515672 .489041 .008400
ITEM: TIMESTEP
50
ITEM: NUMBER OF ATOMS
7
ITEM: BOX BOUNDS ss ss ss
-3.1357 3.1352
-2.5118 3.4670
-1.9882 1.9437
ITEM: ATOMS id type xs ys zs
1 1 .492724 .995955 .606353
2 1 .998772 .634098 .537982
3 1 .810887 .001743 .449837
4 1 .204677 .018505 .406020
5 1 .003521 .614847 .508572
6 1 .495994 .420181 .994265
7 1 .514772 .490964 .008881
ITEM: TIMESTEP
100
ITEM: NUMBER OF ATOMS
7
ITEM: BOX BOUNDS ss ss ss
-3.1430 3.1442
-2.5171 3.4706
-1.9921 1.9437
ITEM: ATOMS id type xs ys zs
1 1 .492863 .996798 .603560
2 1 .992337 .636293 .539054
3 1 .806687 .006851 .449201
4 1 .210062 .017268 .405215
5 1 .005543 .611886 .510203
6 1 .494453 .419754 .987246
7 1 .517149 .492051 .008100
ITEM: TIMESTEP
150
ITEM: NUMBER OF ATOMS
7
ITEM: BOX BOUNDS ss ss ss
-3.1436 3.1436
-2.5141 3.4757
-1.9882 1.9437
ITEM: ATOMS id type xs ys zs
1 1 .494319 .993014 .602427
2 1 .992364 .629504 .542418
3 1 .809408 .007424 .452484
4 1 .205213 .017228 .410477
5 1 .008623 .614831 .507724
6 1 .499738 .418525 .986287
7 1 .515724 .491804 .009708
ITEM: TIMESTEP
200
ITEM: NUMBER OF ATOMS
7
ITEM: BOX BOUNDS ss ss ss
-3.1399 3.1535
-2.5196 3.4801
-1.9906 1.9437
ITEM: ATOMS id type xs ys zs
1 1 .493242 .993100 .600227
2 1 .995996 .631664 .540329
3 1 .807999 .012046 .449367
4 1 .204862 .019671 .412947
5 1 .005911 .616782 .510180
6 1 .499633 .422320 .987113
7 1 .517889 .492036 .011623
ITEM: TIMESTEP
250
ITEM: NUMBER OF ATOMS
7
ITEM: BOX BOUNDS ss ss ss
-3.1348 3.1618
-2.5026 3.4862
-1.9963 1.9544
ITEM: ATOMS id type xs ys zs
1 1 .493285 .989721 .601346
2 1 .995690 .625639 .539446
3 1 .805500 .010747 .451744
4 1 .205007 .014951 .403556
5 1 .007959 .610369 .508114
6 1 .496390 .416376 .987111
7 1 .514313 .493840 .012604
ITEM: TIMESTEP
300
ITEM: NUMBER OF ATOMS
7
ITEM: BOX BOUNDS ss ss ss
-3.1364 3.1668
-2.4867 3.4823
-1.9913 1.9528
ITEM: ATOMS id type xs ys zs
1 1 .492417 .990773 .601966
2 1 .996176 .625341 .538932
3 1 .803622 .008876 .453042
4 1 .202568 .012524 .400808
5 1 .008275 .609853 .506336
6 1 .496848 .415520 .991693
7 1 .514623 .492544 .011590
ITEM: TIMESTEP
350
ITEM: NUMBER OF ATOMS
7
ITEM: BOX BOUNDS ss ss ss
-3.1378 3.1691
-2.4875 3.4854
-1.9896 1.9585
ITEM: ATOMS id type xs ys zs
1 1 .488140 .995061 .594276
2 1 .991816 .627093 .541964
3 1 .808832 .013163 .450551
4 1 .204588 .012089 .399669
5 1 .009045 .612851 .505959
6 1 .493459 .415533 .990529
7 1 .511419 .488715 .012944
ITEM: TIMESTEP
400
ITEM: NUMBER OF ATOMS
7
ITEM: BOX BOUNDS ss ss ss
-3.1388 3.1669
-2.4753 3.4948
-1.9883 1.9653
ITEM: ATOMS id type xs ys zs
1 1 .487622 .993776 .592059
2 1 .990661 .624988 .538304
3 1 .809371 .012616 .447713
4 1 .207016 .008959 .395208
5 1 .010955 .610501 .502686
6 1 .495267 .416278 .988745
7 1 .511455 .488681 .009409
ITEM: TIMESTEP
1
ITEM: NUMBER OF ATOMS
7
ITEM: BOX BOUNDS ss ss ss
-3.1116 3.1549
-2.4870 3.4680
-1.9693 1.9496
ITEM: ATOMS id type xs ys zs
1 1 .489836 .995058 .600715
2 1 .993067 .632486 .534802
3 1 .806642 .000801 .448011
4 1 .203931 .014351 .402878
5 1 .000399 .612642 .502357
6 1 .491849 .417074 .989695
7 1 .513061 .488472 .003498
ITEM: TIMESTEP
50
ITEM: NUMBER OF ATOMS
7
ITEM: BOX BOUNDS ss ss ss
-3.1370 3.1549
-2.5144 3.4680
-1.9833 1.9496
ITEM: ATOMS id type xs ys zs
1 1 .490433 .996301 .601723
2 1 .991264 .633782 .536780
3 1 .807552 .004430 .451963
4 1 .205338 .018575 .403645
5 1 .003746 .615310 .504714
6 1 .495173 .417540 .987701
7 1 .515337 .490164 .006681
ITEM: TIMESTEP
100
ITEM: NUMBER OF ATOMS
7
ITEM: BOX BOUNDS ss ss ss
-3.1453 3.1549
-2.5204 3.4879
-1.9954 1.9496
ITEM: ATOMS id type xs ys zs
1 1 .492966 .990045 .600538
2 1 .992609 .629462 .537010
3 1 .809364 .007632 .452120
4 1 .204592 .019532 .406738
5 1 .007592 .613837 .505285
6 1 .494593 .417694 .984063
7 1 .516161 .488145 .012121
ITEM: TIMESTEP
150
ITEM: NUMBER OF ATOMS
7
ITEM: BOX BOUNDS ss ss ss
-3.1391 3.1549
-2.5177 3.4778
-1.9894 1.9496
ITEM: ATOMS id type xs ys zs
1 1 .494732 .992271 .598196
2 1 .992287 .628565 .537525
3 1 .807865 .009185 .450676
4 1 .205624 .017923 .405344
5 1 .004283 .613841 .502690
6 1 .494195 .419016 .987903
7 1 .512737 .489335 .008696
ITEM: TIMESTEP
200
ITEM: NUMBER OF ATOMS
7
ITEM: BOX BOUNDS ss ss ss
-3.1484 3.1549
-2.5092 3.4778
-1.9959 1.9496
ITEM: ATOMS id type xs ys zs
1 1 .495709 .993065 .597834
2 1 .993203 .628232 .535562
3 1 .808815 .005896 .451389
4 1 .206388 .016656 .407099
5 1 .006951 .612142 .504235
6 1 .492984 .418727 .986459
7 1 .514901 .489709 .011788
ITEM: TIMESTEP
250
ITEM: NUMBER OF ATOMS
7
ITEM: BOX BOUNDS ss ss ss
-3.1495 3.1573
-2.4907 3.4727
-1.9963 1.9496
ITEM: ATOMS id type xs ys zs
1 1 .491507 .993413 .593064
2 1 .992728 .627628 .536973
3 1 .809682 .008747 .450420
4 1 .202786 .015376 .401556
5 1 .008588 .616676 .504466
6 1 .496717 .416369 .977941
7 1 .516244 .485218 .012193
ITEM: TIMESTEP
300
ITEM: NUMBER OF ATOMS
7
ITEM: BOX BOUNDS ss ss ss
-3.1485 3.1549
-2.4933 3.4748
-1.9986 1.9496
ITEM: ATOMS id type xs ys zs
1 1 .496011 .993906 .604430
2 1 .995153 .625139 .531350
3 1 .808216 .010624 .452513
4 1 .204015 .014445 .404098
5 1 .009277 .615208 .507722
6 1 .495540 .417104 .985634
7 1 .513756 .486764 .010005
ITEM: TIMESTEP
350
ITEM: NUMBER OF ATOMS
7
ITEM: BOX BOUNDS ss ss ss
-3.1492 3.1565
-2.4863 3.4855
-1.9988 1.9554
ITEM: ATOMS id type xs ys zs
1 1 .493818 .987451 .592796
2 1 .991729 .620659 .539763
3 1 .811153 .006373 .458085
4 1 .202814 .012962 .406926
5 1 .006612 .612462 .509871
6 1 .493693 .414138 .983635
7 1 .511166 .483201 .011336
ITEM: TIMESTEP
400
ITEM: NUMBER OF ATOMS
7
ITEM: BOX BOUNDS ss ss ss
-3.1393 3.1579
-2.4828 3.4763
-2.0079 1.9496
ITEM: ATOMS id type xs ys zs
1 1 .489926 .992638 .596976
2 1 .989421 .619095 .538603
3 1 .809133 .008217 .447845
4 1 .201882 .010685 .416962
5 1 .008344 .611466 .506095
6 1 .495094 .417034 .990507
7 1 .508742 .481938 .011583
ITEM: TIMESTEP
1
ITEM: NUMBER OF ATOMS
7
ITEM: BOX BOUNDS ss ss ss
-3.1232 3.1549
-2.4867 3.4680
-1.9863 1.9496
ITEM: ATOMS id type xs ys zs
1 1 .490432 .995282 .601980
2 1 .992771 .632239 .537182
3 1 .806687 .000612 .449814
4 1 .205463 .013863 .405871
5 1 .002420 .612641 .504633
6 1 .493064 .417121 .989363
7 1 .513838 .488691 .007990
ITEM: TIMESTEP
50
ITEM: NUMBER OF ATOMS
7
ITEM: BOX BOUNDS ss ss ss
-3.1363 3.1549
-2.5173 3.4680
-1.9863 1.9496
ITEM: ATOMS id type xs ys zs
1 1 .491207 .994288 .602043
2 1 .993649 .633149 .536050
3 1 .808297 .005553 .449920
4 1 .206997 .018875 .408580
5 1 .004810 .612925 .505288
6 1 .492942 .419417 .989226
7 1 .514820 .493200 .011246
ITEM: TIMESTEP
100
ITEM: NUMBER OF ATOMS
7
ITEM: BOX BOUNDS ss ss ss
-3.1442 3.1549
-2.5204 3.4800
-1.9869 1.9496
ITEM: ATOMS id type xs ys zs
1 1 .492471 .994049 .606662
2 1 .993187 .632930 .538605
3 1 .807747 .007214 .453005
4 1 .208716 .017559 .407940
5 1 .006490 .614580 .505757
6 1 .497500 .420158 .991611
7 1 .518495 .492794 .011350
ITEM: TIMESTEP
150
ITEM: NUMBER OF ATOMS
7
ITEM: BOX BOUNDS ss ss ss
-3.1498 3.1549
-2.5260 3.4802
-1.9915 1.9548
ITEM: ATOMS id type xs ys zs
1 1 .496686 .993449 .604979
2 1 .991663 .633050 .538804
3 1 .806475 .008910 .452386
4 1 .210319 .018836 .408328
5 1 .007210 .613289 .508550
6 1 .497901 .421666 .991186
7 1 .518970 .494467 .014892
ITEM: TIMESTEP
200
ITEM: NUMBER OF ATOMS
7
ITEM: BOX BOUNDS ss ss ss
-3.1484 3.1549
-2.5259 3.4830
-1.9980 1.9597
ITEM: ATOMS id type xs ys zs
1 1 .489975 .995857 .607323
2 1 .990023 .633354 .540803
3 1 .809834 .007900 .452558
4 1 .206909 .021201 .405736
5 1 .011829 .617067 .504907
6 1 .500602 .418555 .984203
7 1 .515328 .494023 .017867
ITEM: TIMESTEP
250
ITEM: NUMBER OF ATOMS
7
ITEM: BOX BOUNDS ss ss ss
-3.1410 3.1549
-2.5204 3.4890
-2.0002 1.9609
ITEM: ATOMS id type xs ys zs
1 1 .488709 .990162 .609233
2 1 .993094 .629458 .532027
3 1 .807132 .010976 .454361
4 1 .207916 .017919 .403430
5 1 .003391 .608850 .504598
6 1 .495897 .416416 .988745
7 1 .516095 .490355 .015894
ITEM: TIMESTEP
300
ITEM: NUMBER OF ATOMS
7
ITEM: BOX BOUNDS ss ss ss
-3.1310 3.1549
-2.4987 3.4834
-2.0015 1.9610
ITEM: ATOMS id type xs ys zs
1 1 .492260 .989615 .606936
2 1 .991493 .625636 .538923
3 1 .805041 .009507 .453464
4 1 .199420 .017186 .408468
5 1 .006312 .613904 .500486
6 1 .496726 .415563 .991212
7 1 .511781 .487852 .012041
ITEM: TIMESTEP
350
ITEM: NUMBER OF ATOMS
7
ITEM: BOX BOUNDS ss ss ss
-3.1202 3.1549
-2.4857 3.4797
-2.0011 1.9730
ITEM: ATOMS id type xs ys zs
1 1 .491727 .990373 .603210
2 1 .990460 .625660 .535097
3 1 .803467 .005513 .453296
4 1 .195945 .015028 .407626
5 1 .004242 .614598 .498328
6 1 .497517 .414750 .988062
7 1 .511514 .487367 .013176
ITEM: TIMESTEP
400
ITEM: NUMBER OF ATOMS
7
ITEM: BOX BOUNDS ss ss ss
-3.1245 3.1600
-2.4872 3.4796
-2.0026 1.9694
ITEM: ATOMS id type xs ys zs
1 1 .489532 .988910 .604595
2 1 .990434 .625427 .537061
3 1 .803036 .009733 .450830
4 1 .199611 .015605 .401928
5 1 .003544 .612450 .508300
6 1 .494742 .413371 .994194
7 1 .511080 .485290 .012356
ITEM: TIMESTEP
1
ITEM: NUMBER OF ATOMS
7
ITEM: BOX BOUNDS ss ss ss
-3.1120 3.1549
-2.4865 3.4680
-1.9885 1.9520
ITEM: ATOMS id type xs ys zs
1 1 .489819 .995068 .602334
2 1 .992823 .632070 .537228
3 1 .806555 .000585 .449700
4 1 .203757 .014201 .405183
5 1 .000711 .612462 .505206
6 1 .492149 .416804 .988835
7 1 .512993 .488486 .008354
ITEM: TIMESTEP
50
ITEM: NUMBER OF ATOMS
7
ITEM: BOX BOUNDS ss ss ss
-3.1355 3.1549
-2.5171 3.4681
-1.9885 1.9520
ITEM: ATOMS id type xs ys zs
1 1 .490880 .996158 .602755
2 1 .990817 .633330 .534039
3 1 .807526 .002972 .452425
4 1 .206630 .019464 .402950
5 1 .003695 .612958 .502591
6 1 .493511 .418821 .988597
7 1 .514288 .491909 .007959
ITEM: TIMESTEP
100
ITEM: NUMBER OF ATOMS
7
ITEM: BOX BOUNDS ss ss ss
-3.1475 3.1549
-2.5224 3.4775
-1.9897 1.9520
ITEM: ATOMS id type xs ys zs
1 1 .491173 .992255 .604943
2 1 .991535 .633669 .538978
3 1 .812256 .004675 .448149
4 1 .208119 .018779 .400890
5 1 .006058 .614863 .505618
6 1 .496350 .422610 .985024
7 1 .514721 .493854 .011815
ITEM: TIMESTEP
150
ITEM: NUMBER OF ATOMS
7
ITEM: BOX BOUNDS ss ss ss
-3.1441 3.1549
-2.5206 3.4789
-1.9929 1.9538
ITEM: ATOMS id type xs ys zs
1 1 .491971 .990307 .606097
2 1 .990972 .632198 .532826
3 1 .808197 .011117 .454453
4 1 .208204 .020154 .403501
5 1 .004056 .613435 .505506
6 1 .497407 .418141 .990429
7 1 .516349 .492038 .016192
ITEM: TIMESTEP
200
ITEM: NUMBER OF ATOMS
7
ITEM: BOX BOUNDS ss ss ss
-3.1416 3.1549
-2.5171 3.4787
-1.9906 1.9520
ITEM: ATOMS id type xs ys zs
1 1 .491233 .990243 .607114
2 1 .991253 .631874 .538337
3 1 .807296 .008493 .451348
4 1 .204395 .016479 .401503
5 1 .009268 .614418 .505003
6 1 .499145 .419739 .991029
7 1 .517085 .491039 .007608
ITEM: TIMESTEP
250
ITEM: NUMBER OF ATOMS
7
ITEM: BOX BOUNDS ss ss ss
-3.1361 3.1549
-2.5132 3.4904
-1.9979 1.9520
ITEM: ATOMS id type xs ys zs
1 1 .491011 .994008 .602604
2 1 .991463 .628895 .540609
3 1 .807539 .010275 .446615
4 1 .205508 .018107 .405447
5 1 .011444 .609843 .501822
6 1 .500409 .417167 .986202
7 1 .514716 .490833 .005806
ITEM: TIMESTEP
300
ITEM: NUMBER OF ATOMS
7
ITEM: BOX BOUNDS ss ss ss
-3.1279 3.1549
-2.5053 3.4831
-1.9943 1.9520
ITEM: ATOMS id type xs ys zs
1 1 .491336 .993772 .602786
2 1 .990104 .630491 .540667
3 1 .807952 .006763 .444470
4 1 .204653 .018001 .406049
5 1 .010754 .609617 .499700
6 1 .502788 .420957 .984703
7 1 .512597 .490882 .002031
ITEM: TIMESTEP
350
ITEM: NUMBER OF ATOMS
7
ITEM: BOX BOUNDS ss ss ss
-3.1259 3.1549
-2.5019 3.4916
-2.0006 1.9520
ITEM: ATOMS id type xs ys zs
1 1 .489572 .990102 .611182
2 1 .994509 .625399 .539590
3 1 .811496 .008780 .447859
4 1 .204523 .017272 .409370
5 1 .007662 .610059 .503109
6 1 .498668 .414321 .989356
7 1 .510589 .490599 .007916
ITEM: TIMESTEP
400
ITEM: NUMBER OF ATOMS
7
ITEM: BOX BOUNDS ss ss ss
-3.1239 3.1627
-2.4962 3.4860
-2.0048 1.9520
ITEM: ATOMS id type xs ys zs
1 1 .488595 .992570 .593440
2 1 .989804 .625979 .541980
3 1 .808721 .008395 .448591
4 1 .201568 .014833 .409431
5 1 .005188 .611476 .507412
6 1 .495302 .416810 .984734
7 1 .512821 .487531 .009029
ITEM: TIMESTEP
1
ITEM: NUMBER OF ATOMS
7
ITEM: BOX BOUNDS ss ss ss
-3.1120 3.1364
-2.4867 3.4605
-1.9903 1.9476
ITEM: ATOMS id type xs ys zs
1 1 .490860 .996158 .602514
2 1 .995813 .633061 .537437
3 1 .808818 .000665 .450928
4 1 .204827 .014412 .406306
5 1 .000950 .613442 .505295
6 1 .493638 .417497 .989610
7 1 .514603 .489367 .009196
ITEM: TIMESTEP
50
ITEM: NUMBER OF ATOMS
7
ITEM: BOX BOUNDS ss ss ss
-3.1407 3.1367
-2.5166 3.4659
-1.9903 1.9476
ITEM: ATOMS id type xs ys zs
1 1 .495024 .997968 .603099
2 1 .997250 .635984 .539625
3 1 .809521 .004547 .450371
4 1 .208306 .020232 .405616
5 1 .003317 .613699 .503948
6 1 .497941 .420374 .988397
7 1 .516961 .491674 .008351
ITEM: TIMESTEP
100
ITEM: NUMBER OF ATOMS
7
ITEM: BOX BOUNDS ss ss ss
-3.1460 3.1458
-2.5248 3.4731
-1.9903 1.9476
ITEM: ATOMS id type xs ys zs
1 1 .493875 .993663 .596926
2 1 .995146 .631719 .541434
3 1 .808256 .007512 .450642
4 1 .208757 .020847 .405453
5 1 .008010 .615685 .506463
6 1 .496568 .417696 .990181
7 1 .518173 .491163 .007678
ITEM: TIMESTEP
150
ITEM: NUMBER OF ATOMS
7
ITEM: BOX BOUNDS ss ss ss
-3.1465 3.1568
-2.5284 3.4846
-1.9910 1.9476
ITEM: ATOMS id type xs ys zs
1 1 .493645 .993306 .594684
2 1 .991280 .632610 .542352
3 1 .805251 .007117 .451336
4 1 .208810 .023420 .402360
5 1 .009146 .616549 .508288
6 1 .495777 .415203 .988243
7 1 .516302 .490917 .005765
ITEM: TIMESTEP
200
ITEM: NUMBER OF ATOMS
7
ITEM: BOX BOUNDS ss ss ss
-3.1404 3.1603
-2.5240 3.4862
-1.9961 1.9485
ITEM: ATOMS id type xs ys zs
1 1 .491392 .994316 .602880
2 1 .991481 .630303 .530783
3 1 .809334 .007537 .460167
4 1 .204245 .021050 .396759
5 1 .008848 .614338 .508974
6 1 .498588 .420180 .987087
7 1 .516273 .493207 .013455
ITEM: TIMESTEP
250
ITEM: NUMBER OF ATOMS
7
ITEM: BOX BOUNDS ss ss ss
-3.1413 3.1731
-2.5271 3.4962
-1.9960 1.9506
ITEM: ATOMS id type xs ys zs
1 1 .489576 .993019 .601244
2 1 .988924 .630157 .529130
3 1 .806032 .004484 .461561
4 1 .206842 .020814 .395376
5 1 .009069 .612107 .507809
6 1 .498209 .419417 .989533
7 1 .516955 .492907 .011017
ITEM: TIMESTEP
300
ITEM: NUMBER OF ATOMS
7
ITEM: BOX BOUNDS ss ss ss
-3.1418 3.1755
-2.5272 3.4939
-1.9961 1.9565
ITEM: ATOMS id type xs ys zs
1 1 .488020 .991210 .604738
2 1 .988188 .626873 .530108
3 1 .802834 .006450 .458554
4 1 .205315 .018959 .404854
5 1 .008618 .612215 .508674
6 1 .498623 .418080 .992157
7 1 .514872 .489386 .010900
ITEM: TIMESTEP
350
ITEM: NUMBER OF ATOMS
7
ITEM: BOX BOUNDS ss ss ss
-3.1387 3.1595
-2.5264 3.4977
-1.9966 1.9562
ITEM: ATOMS id type xs ys zs
1 1 .485803 .995697 .596927
2 1 .993572 .623822 .529456
3 1 .811092 .010980 .457081
4 1 .203472 .021167 .399093
5 1 .004161 .614315 .513824
6 1 .497590 .420900 .984796
7 1 .515356 .493935 .013093
ITEM: TIMESTEP
400
ITEM: NUMBER OF ATOMS
7
ITEM: BOX BOUNDS ss ss ss
-3.1405 3.1568
-2.5170 3.4957
-2.0042 1.9516
ITEM: ATOMS id type xs ys zs
1 1 .486001 .986788 .600510
2 1 .993868 .625922 .537343
3 1 .810852 .008042 .458669
4 1 .206271 .021346 .416657
5 1 .003406 .611136 .496328
6 1 .499538 .415104 .989619
7 1 .516209 .486988 .014672
ITEM: TIMESTEP
1
ITEM: NUMBER OF ATOMS
7
ITEM: BOX BOUNDS ss ss ss
-3.1117 3.1449
-2.4887 3.4640
-1.9890 1.9476
ITEM: ATOMS id type xs ys zs
1 1 .490326 .995876 .602545
2 1 .994728 .632700 .537577
3 1 .807861 .001092 .450904
4 1 .204119 .014657 .405639
5 1 .000595 .613301 .504846
6 1 .492628 .417195 .989971
7 1 .513807 .488944 .009115
ITEM: TIMESTEP
50
ITEM: NUMBER OF ATOMS
7
ITEM: BOX BOUNDS ss ss ss
-3.1356 3.1449
-2.5177 3.4712
-1.9890 1.9476
ITEM: ATOMS id type xs ys zs
1 1 .493495 .994896 .601045
2 1 .994421 .633653 .537327
3 1 .809732 .005523 .449181
4 1 .206229 .020963 .403171
5 1 .003430 .615880 .505489
6 1 .497456 .417983 .988044
7 1 .516322 .492822 .009199
ITEM: TIMESTEP
100
ITEM: NUMBER OF ATOMS
7
ITEM: BOX BOUNDS ss ss ss
-3.1429 3.1453
-2.5324 3.4787
-1.9890 1.9476
ITEM: ATOMS id type xs ys zs
1 1 .490107 .995391 .602949
2 1 .992728 .631452 .539212
3 1 .808910 .006860 .450925
4 1 .205966 .022978 .407958
5 1 .006012 .615012 .504822
6 1 .497973 .422629 .989469
7 1 .516226 .492458 .012710
ITEM: TIMESTEP
150
ITEM: NUMBER OF ATOMS
7
ITEM: BOX BOUNDS ss ss ss
-3.1417 3.1464
-2.5268 3.4821
-1.9898 1.9476
ITEM: ATOMS id type xs ys zs
1 1 .491567 .994399 .607750
2 1 .995277 .626887 .539942
3 1 .808439 .007976 .456782
4 1 .209546 .021363 .410293
5 1 .005728 .613300 .507951
6 1 .498130 .422718 .985175
7 1 .517616 .490449 .011249
ITEM: TIMESTEP
200
ITEM: NUMBER OF ATOMS
7
ITEM: BOX BOUNDS ss ss ss
-3.1419 3.1454
-2.5323 3.4901
-1.9890 1.9476
ITEM: ATOMS id type xs ys zs
1 1 .491351 .989739 .598161
2 1 .995262 .625823 .537780
3 1 .806724 .007311 .450268
4 1 .204286 .018862 .404964
5 1 .006874 .611433 .503228
6 1 .498730 .417782 .987813
7 1 .515761 .492016 .012204
ITEM: TIMESTEP
250
ITEM: NUMBER OF ATOMS
7
ITEM: BOX BOUNDS ss ss ss
-3.1418 3.1603
-2.5269 3.4932
-1.9890 1.9498
ITEM: ATOMS id type xs ys zs
1 1 .488195 .988956 .598258
2 1 .992391 .627130 .537607
3 1 .803280 .005669 .449413
4 1 .204653 .017607 .405689
5 1 .005251 .610041 .502202
6 1 .497172 .415655 .988067
7 1 .515812 .491123 .014165
ITEM: TIMESTEP
300
ITEM: NUMBER OF ATOMS
7
ITEM: BOX BOUNDS ss ss ss
-3.1426 3.1573
-2.5292 3.4979
-1.9890 1.9512
ITEM: ATOMS id type xs ys zs
1 1 .488773 .993947 .607660
2 1 .993352 .623145 .536364
3 1 .809005 .007520 .458256
4 1 .206008 .022648 .402198
5 1 .005641 .613609 .513935
6 1 .501530 .418843 .984798
7 1 .515007 .495372 .011592
ITEM: TIMESTEP
350
ITEM: NUMBER OF ATOMS
7
ITEM: BOX BOUNDS ss ss ss
-3.1491 3.1694
-2.5166 3.5167
-1.9890 1.9575
ITEM: ATOMS id type xs ys zs
1 1 .487220 .992505 .606550
2 1 .991949 .621655 .539241
3 1 .805329 .014620 .453368
4 1 .206888 .018457 .399767
5 1 .009061 .610115 .508314
6 1 .495297 .417885 .994373
7 1 .513484 .488100 .009650
ITEM: TIMESTEP
400
ITEM: NUMBER OF ATOMS
7
ITEM: BOX BOUNDS ss ss ss
-3.1487 3.1654
-2.5112 3.4951
-1.9993 1.9620
ITEM: ATOMS id type xs ys zs
1 1 .489294 .990692 .607313
2 1 .993956 .622628 .536305
3 1 .803693 .007114 .454867
4 1 .205165 .016689 .393918
5 1 .008057 .612239 .502186
6 1 .495180 .414201 .987640
7 1 .513353 .491698 .016749
ITEM: TIMESTEP
1
ITEM: NUMBER OF ATOMS
7
ITEM: BOX BOUNDS ss ss ss
-3.1258 3.1430
-2.4868 3.4729
-1.9687 1.9448
ITEM: ATOMS id type xs ys zs
1 1 .491754 .994329 .600908
2 1 .994714 .631439 .535964
3 1 .808831 .000535 .448582
4 1 .206284 .014318 .403043
5 1 .002922 .612246 .503123
6 1 .493974 .416573 .990150
7 1 .515126 .487975 .003809
ITEM: TIMESTEP
50
ITEM: NUMBER OF ATOMS
7
ITEM: BOX BOUNDS ss ss ss
-3.1364 3.1430
-2.5184 3.4729
-1.9834 1.9448
ITEM: ATOMS id type xs ys zs
1 1 .490460 .993495 .605151
2 1 .993964 .633788 .540605
3 1 .808413 .003620 .446201
4 1 .209063 .019890 .404119
5 1 .003962 .615297 .504655
6 1 .493716 .420743 .991138
7 1 .515450 .491421 .007554
ITEM: TIMESTEP
100
ITEM: NUMBER OF ATOMS
7
ITEM: BOX BOUNDS ss ss ss
-3.1453 3.1510
-2.5260 3.4729
-1.9851 1.9448
ITEM: ATOMS id type xs ys zs
1 1 .492405 .996665 .599158
2 1 .992534 .631242 .538917
3 1 .806426 .007930 .450527
4 1 .206659 .021260 .404117
5 1 .009044 .617348 .501991
6 1 .496545 .420830 .990815
7 1 .516606 .491552 .012767
ITEM: TIMESTEP
150
ITEM: NUMBER OF ATOMS
7
ITEM: BOX BOUNDS ss ss ss
-3.1419 3.1430
-2.5319 3.4869
-1.9931 1.9486
ITEM: ATOMS id type xs ys zs
1 1 .493954 .995511 .602062
2 1 .992389 .627934 .537613
3 1 .808849 .007991 .456081
4 1 .203514 .021027 .402765
5 1 .009218 .617844 .501014
6 1 .496982 .421758 .993620
7 1 .518493 .490762 .014635
ITEM: TIMESTEP
200
ITEM: NUMBER OF ATOMS
7
ITEM: BOX BOUNDS ss ss ss
-3.1503 3.1430
-2.5306 3.4900
-1.9881 1.9554
ITEM: ATOMS id type xs ys zs
1 1 .493199 .994007 .598516
2 1 .989725 .632104 .537578
3 1 .805753 .007092 .450493
4 1 .204897 .021871 .397609
5 1 .008509 .613958 .500970
6 1 .501331 .420609 .988603
7 1 .517914 .492073 .014714
ITEM: TIMESTEP
250
ITEM: NUMBER OF ATOMS
7
ITEM: BOX BOUNDS ss ss ss
-3.1368 3.1525
-2.5288 3.4909
-1.9822 1.9632
ITEM: ATOMS id type xs ys zs
1 1 .489751 .992677 .598726
2 1 .991976 .628483 .535888
3 1 .807517 .009605 .455527
4 1 .204842 .014326 .402842
5 1 .004342 .616797 .502822
6 1 .497098 .418639 .982268
7 1 .511123 .490981 .012670
ITEM: TIMESTEP
300
ITEM: NUMBER OF ATOMS
7
ITEM: BOX BOUNDS ss ss ss
-3.1406 3.1536
-2.5370 3.4908
-1.9774 1.9540
ITEM: ATOMS id type xs ys zs
1 1 .492314 .991759 .598145
2 1 .991980 .629739 .534707
3 1 .808637 .014167 .462531
4 1 .205735 .016587 .399762
5 1 .005998 .613476 .500693
6 1 .494757 .417463 .987613
7 1 .513212 .488059 .011645
ITEM: TIMESTEP
350
ITEM: NUMBER OF ATOMS
7
ITEM: BOX BOUNDS ss ss ss
-3.1408 3.1534
-2.5143 3.4924
-1.9888 1.9561
ITEM: ATOMS id type xs ys zs
1 1 .491818 .991126 .595893
2 1 .992349 .627117 .535312
3 1 .807328 .009935 .468319
4 1 .205802 .012313 .402390
5 1 .007570 .610656 .504401
6 1 .496288 .416094 .982692
7 1 .514379 .486020 .013712
ITEM: TIMESTEP
400
ITEM: NUMBER OF ATOMS
7
ITEM: BOX BOUNDS ss ss ss
-3.1487 3.1541
-2.5140 3.4958
-1.9899 1.9547
ITEM: ATOMS id type xs ys zs
1 1 .491060 .991797 .596678
2 1 .994094 .620801 .538248
3 1 .806917 .009255 .456386
4 1 .200639 .015623 .397671
5 1 .005094 .612538 .504139
6 1 .494516 .415645 .985027
7 1 .515662 .490575 .007178
ITEM: TIMESTEP
1
ITEM: NUMBER OF ATOMS
7
ITEM: BOX BOUNDS ss ss ss
-3.1282 3.1320
-2.4870 3.4645
-1.9818 1.9329
ITEM: ATOMS id type xs ys zs
1 1 .492736 .995481 .604391
2 1 .996543 .632523 .538762
3 1 .810237 .000768 .451508
4 1 .206903 .014315 .406128
5 1 .003250 .613274 .506227
6 1 .495328 .417273 .993419
7 1 .516166 .489232 .006749
ITEM: TIMESTEP
50
ITEM: NUMBER OF ATOMS
7
ITEM: BOX BOUNDS ss ss ss
-3.1387 3.1375
-2.5183 3.4696
-1.9862 1.9354
ITEM: ATOMS id type xs ys zs
1 1 .492098 .994252 .602146
2 1 .994954 .634002 .536995
3 1 .808947 .005901 .450367
4 1 .207738 .021453 .408152
5 1 .004794 .615073 .506877
6 1 .494835 .419495 .993175
7 1 .517896 .488513 .007598
ITEM: TIMESTEP
100
ITEM: NUMBER OF ATOMS
7
ITEM: BOX BOUNDS ss ss ss
-3.1498 3.1460
-2.5354 3.4743
-1.9890 1.9415
ITEM: ATOMS id type xs ys zs
1 1 .490069 .994579 .601019
2 1 .994436 .636746 .534843
3 1 .813188 .009662 .450372
4 1 .209894 .023142 .405703
5 1 .006055 .616285 .505269
6 1 .497679 .421774 .993074
7 1 .517430 .493021 .007848
ITEM: TIMESTEP
150
ITEM: NUMBER OF ATOMS
7
ITEM: BOX BOUNDS ss ss ss
-3.1568 3.1514
-2.5351 3.4840
-1.9860 1.9461
ITEM: ATOMS id type xs ys zs
1 1 .490000 .994459 .599306
2 1 .997453 .634789 .535620
3 1 .812354 .009174 .448477
4 1 .207732 .019814 .404759
5 1 .005708 .614738 .504774
6 1 .500716 .423127 .990080
7 1 .515845 .491967 .010127
ITEM: TIMESTEP
200
ITEM: NUMBER OF ATOMS
7
ITEM: BOX BOUNDS ss ss ss
-3.1479 3.1575
-2.5250 3.4850
-1.9905 1.9459
ITEM: ATOMS id type xs ys zs
1 1 .492868 .994646 .606358
2 1 .994461 .633768 .539802
3 1 .808635 .005720 .453056
4 1 .207351 .020937 .403312
5 1 .008744 .614878 .503513
6 1 .498915 .417977 .990498
7 1 .524196 .492262 .011345
ITEM: TIMESTEP
250
ITEM: NUMBER OF ATOMS
7
ITEM: BOX BOUNDS ss ss ss
-3.1395 3.1656
-2.5254 3.4901
-2.0035 1.9463
ITEM: ATOMS id type xs ys zs
1 1 .490445 .993234 .606857
2 1 .995604 .632137 .537202
3 1 .807901 .007156 .456536
4 1 .204069 .018034 .406725
5 1 .006768 .613117 .502834
6 1 .498534 .419575 .988998
7 1 .515295 .486894 .011815
ITEM: TIMESTEP
300
ITEM: NUMBER OF ATOMS
7
ITEM: BOX BOUNDS ss ss ss
-3.1315 3.1624
-2.5276 3.4769
-2.0018 1.9499
ITEM: ATOMS id type xs ys zs
1 1 .485576 .991636 .608978
2 1 .990014 .634066 .538102
3 1 .809850 .005834 .454644
4 1 .206025 .018462 .405725
5 1 .009482 .616197 .498458
6 1 .499793 .417851 .981588
7 1 .516391 .487590 .008456
ITEM: TIMESTEP
350
ITEM: NUMBER OF ATOMS
7
ITEM: BOX BOUNDS ss ss ss
-3.1309 3.1663
-2.5150 3.4824
-2.0140 1.9555
ITEM: ATOMS id type xs ys zs
1 1 .490857 .993956 .609871
2 1 .990040 .634232 .535941
3 1 .807460 .008374 .460718
4 1 .199745 .017509 .405369
5 1 .011959 .616208 .498735
6 1 .494490 .416514 .984084
7 1 .516689 .488883 .013603
ITEM: TIMESTEP
400
ITEM: NUMBER OF ATOMS
7
ITEM: BOX BOUNDS ss ss ss
-3.1314 3.1609
-2.5255 3.4855
-2.0161 1.9619
ITEM: ATOMS id type xs ys zs
1 1 .485430 .991666 .606462
2 1 .994102 .630442 .532133
3 1 .814554 .010954 .463787
4 1 .200962 .018928 .408411
5 1 .008484 .616144 .502703
6 1 .499250 .417477 .986906
7 1 .517038 .486809 .015108
ITEM: TIMESTEP
1
ITEM: NUMBER OF ATOMS
7
ITEM: BOX BOUNDS ss ss ss
-3.1282 3.1469
-2.4900 3.4653
-2.0046 1.9403
ITEM: ATOMS id type xs ys zs
1 1 .491646 .995915 .605586
2 1 .994357 .632383 .540369
3 1 .807975 .001245 .453630
4 1 .206310 .014897 .408829
5 1 .003011 .613097 .508169
6 1 .494118 .417343 .991631
7 1 .515030 .489074 .013141
ITEM: TIMESTEP
50
ITEM: NUMBER OF ATOMS
7
ITEM: BOX BOUNDS ss ss ss
-3.1379 3.1469
-2.5196 3.4653
-2.0046 1.9403
ITEM: ATOMS id type xs ys zs
1 1 .493098 .995931 .602955
2 1 .993354 .637043 .541082
3 1 .806504 .007138 .454819
4 1 .208921 .018931 .410405
5 1 .005237 .612914 .508460
6 1 .492456 .421943 .990435
7 1 .514387 .491532 .010274
ITEM: TIMESTEP
100
ITEM: NUMBER OF ATOMS
7
ITEM: BOX BOUNDS ss ss ss
-3.1496 3.1501
-2.5283 3.4790
-2.0046 1.9409
ITEM: ATOMS id type xs ys zs
1 1 .492165 .993634 .606911
2 1 .995004 .634324 .544131
3 1 .808674 .006157 .455859
4 1 .209662 .021913 .414601
5 1 .005814 .614852 .511698
6 1 .495228 .417039 .989869
7 1 .515245 .493127 .013086
ITEM: TIMESTEP
150
ITEM: NUMBER OF ATOMS
7
ITEM: BOX BOUNDS ss ss ss
-3.1558 3.1546
-2.5327 3.4824
-2.0046 1.9492
ITEM: ATOMS id type xs ys zs
1 1 .487835 .996995 .604587
2 1 .994399 .632781 .540027
3 1 .810192 .003733 .457887
4 1 .209696 .023426 .411507
5 1 .006464 .613024 .507011
6 1 .499469 .423420 .988196
7 1 .516745 .492675 .009436
ITEM: TIMESTEP
200
ITEM: NUMBER OF ATOMS
7
ITEM: BOX BOUNDS ss ss ss
-3.1563 3.1481
-2.5380 3.4856
-2.0046 1.9450
ITEM: ATOMS id type xs ys zs
1 1 .492157 .992433 .604309
2 1 .991741 .630404 .534846
3 1 .809168 .008584 .451028
4 1 .212208 .018246 .406434
5 1 .010996 .616976 .508848
6 1 .500639 .420484 .988552
7 1 .521084 .490605 .019513
ITEM: TIMESTEP
250
ITEM: NUMBER OF ATOMS
7
ITEM: BOX BOUNDS ss ss ss
-3.1578 3.1565
-2.5332 3.4865
-2.0086 1.9534
ITEM: ATOMS id type xs ys zs
1 1 .490918 .990994 .603731
2 1 .991498 .634420 .544417
3 1 .804207 .012168 .455205
4 1 .208973 .022551 .406896
5 1 .008866 .611219 .506042
6 1 .500862 .417579 .991320
7 1 .520949 .494608 .014689
ITEM: TIMESTEP
300
ITEM: NUMBER OF ATOMS
7
ITEM: BOX BOUNDS ss ss ss
-3.1403 3.1503
-2.5382 3.4901
-2.0078 1.9680
ITEM: ATOMS id type xs ys zs
1 1 .489702 .986717 .606530
2 1 .992631 .634432 .535819
3 1 .808881 .008400 .457551
4 1 .204103 .016959 .403317
5 1 .008530 .609868 .497400
6 1 .501183 .419145 .978277
7 1 .513413 .491505 .016021
ITEM: TIMESTEP
350
ITEM: NUMBER OF ATOMS
7
ITEM: BOX BOUNDS ss ss ss
-3.1375 3.1534
-2.5343 3.4902
-2.0168 1.9591
ITEM: ATOMS id type xs ys zs
1 1 .486231 .988935 .608522