ITEM: TIMESTEP
1
ITEM: NUMBER OF ATOMS
7
ITEM: BOX BOUNDS ss ss ss
-3.1119 3.1142
-2.4865 3.4427
-1.9581 1.9108
ITEM: ATOMS id type xs ys zs
1 1 .492873 .999342 .605439
2 1 .999378 .634834 .539003
3 1 .811836 .000609 .450672
4 1 .205330 .014310 .405114
5 1 .000629 .615329 .506072
6 1 .495277 .418656 .999039
7 1 .516391 .490737 .001030
ITEM: TIMESTEP
50
ITEM: NUMBER OF ATOMS
7
ITEM: BOX BOUNDS ss ss ss
-3.1377 3.1359
-2.5097 3.4723
-1.9824 1.9355
ITEM: ATOMS id type xs ys zs
1 1 .493098 .994378 .604175
2 1 .995808 .633176 .538257
3 1 .809739 .004266 .451497
4 1 .207725 .018025 .406122
5 1 .004691 .613859 .505891
6 1 .495954 .418891 .992498
7 1 .516804 .490363 .007506
ITEM: TIMESTEP
100
ITEM: NUMBER OF ATOMS
7
ITEM: BOX BOUNDS ss ss ss
-3.1416 3.1463
-2.5211 3.4744
-1.9887 1.9391
ITEM: ATOMS id type xs ys zs
1 1 .492161 .994162 .604194
2 1 .993900 .633062 .538566
3 1 .808599 .006983 .452720
4 1 .207077 .019499 .406362
5 1 .005742 .614424 .505895
6 1 .496380 .419644 .991043
7 1 .516220 .491352 .009709
ITEM: TIMESTEP
150
ITEM: NUMBER OF ATOMS
7
ITEM: BOX BOUNDS ss ss ss
-3.1391 3.1481
-2.5217 3.4812
-1.9911 1.9442
ITEM: ATOMS id type xs ys zs
1 1 .491311 .993227 .603633
2 1 .993254 .631238 .538350
3 1 .808269 .008371 .453075
4 1 .205822 .019119 .405500
5 1 .006097 .614034 .505961
6 1 .496617 .418784 .989829
7 1 .515307 .491158 .010592
ITEM: TIMESTEP
200
ITEM: NUMBER OF ATOMS
7
ITEM: BOX BOUNDS ss ss ss
-3.1447 3.1487
-2.5133 3.4832
-1.9925 1.9522
ITEM: ATOMS id type xs ys zs
1 1 .491609 .992813 .601853
2 1 .993096 .629060 .537465
3 1 .808574 .007925 .452904
4 1 .205809 .017229 .404337
5 1 .007656 .613643 .505717
6 1 .497428 .417440 .987892
7 1 .515162 .489998 .010854
ITEM: TIMESTEP
250
ITEM: NUMBER OF ATOMS
7
ITEM: BOX BOUNDS ss ss ss
-3.1550 3.1472
-2.5105 3.4873
-1.9972 1.9509
ITEM: ATOMS id type xs ys zs
1 1 .492661 .991983 .601388
2 1 .993121 .627337 .538642
3 1 .809251 .008303 .454134
4 1 .206630 .016640 .405322
5 1 .009723 .612958 .506368
6 1 .498653 .416801 .988361
7 1 .515840 .488929 .011444
ITEM: TIMESTEP
300
ITEM: NUMBER OF ATOMS
7
ITEM: BOX BOUNDS ss ss ss
-3.1455 3.1563
-2.5030 3.4911
-2.0129 1.9556
ITEM: ATOMS id type xs ys zs
1 1 .491602 .991157 .601437
2 1 .991490 .625540 .539784
3 1 .807881 .008309 .455844
4 1 .204322 .015228 .407492
5 1 .008315 .612113 .507556
6 1 .496853 .415880 .987416
7 1 .513737 .487489 .014960
ITEM: TIMESTEP
350
ITEM: NUMBER OF ATOMS
7
ITEM: BOX BOUNDS ss ss ss
-3.1419 3.1504
-2.5023 3.4937
-2.0100 1.9567
ITEM: ATOMS id type xs ys zs
1 1 .491877 .990237 .598601
2 1 .992231 .624566 .539497
3 1 .808366 .010217 .455414
4 1 .202892 .014896 .406711
5 1 .007806 .611539 .508010
6 1 .496438 .415670 .988125
7 1 .513414 .486420 .013759
ITEM: TIMESTEP
400
ITEM: NUMBER OF ATOMS
7
ITEM: BOX BOUNDS ss ss ss
-3.1411 3.1492
-2.4865 3.4919
-2.0040 1.9579
ITEM: ATOMS id type xs ys zs
1 1 .491810 .989990 .595772
2 1 .992380 .623556 .539282
3 1 .808532 .009277 .454552
4 1 .202232 .012079 .405100
5 1 .008045 .610214 .508227
6 1 .496199 .414074 .988792
7 1 .513226 .484868 .011862
ITEM: TIMESTEP
1
ITEM: NUMBER OF ATOMS
7
ITEM: BOX BOUNDS ss ss ss
-3.1150 3.1249
-2.4864 3.4658
-1.9882 1.9437
ITEM: ATOMS id type xs ys zs
1 1 .492281 .995456 .603403
2 1 .997671 .632363 .538029
3 1 .810542 .000591 .451115
4 1 .205374 .014241 .406285
5 1 .001122 .612931 .505625
6 1 .494678 .417022 .990694
7 1 .515743 .488821 .008684
ITEM: TIMESTEP
50
ITEM: NUMBER OF ATOMS
7
ITEM: BOX BOUNDS ss ss ss
-3.1357 3.1352
-2.5118 3.4670
-1.9882 1.9437
ITEM: ATOMS id type xs ys zs
1 1 .493006 .995225 .603613
2 1 .995878 .633975 .537704
3 1 .809756 .004451 .451446
4 1 .207534 .018473 .406125
5 1 .004361 .614463 .505545
6 1 .495837 .419403 .990479
7 1 .516771 .490978 .008878
ITEM: TIMESTEP
100
ITEM: NUMBER OF ATOMS
7
ITEM: BOX BOUNDS ss ss ss
-3.1430 3.1442
-2.5171 3.4706
-1.9921 1.9437
ITEM: ATOMS id type xs ys zs
1 1 .492425 .994604 .603973
2 1 .994016 .633374 .537999
3 1 .808718 .006262 .452695
4 1 .207079 .018849 .405924
5 1 .006192 .614703 .505751
6 1 .496679 .419230 .990016
7 1 .516588 .491391 .010359
ITEM: TIMESTEP
150
ITEM: NUMBER OF ATOMS
7
ITEM: BOX BOUNDS ss ss ss
-3.1436 3.1436
-2.5141 3.4757
-1.9882 1.9437
ITEM: ATOMS id type xs ys zs
1 1 .492413 .993945 .603572
2 1 .994212 .631763 .539571
3 1 .809039 .007339 .450864
4 1 .206029 .017948 .405198
5 1 .007002 .614480 .505773
6 1 .497715 .418656 .989902
7 1 .516483 .490863 .009572
ITEM: TIMESTEP
200
ITEM: NUMBER OF ATOMS
7
ITEM: BOX BOUNDS ss ss ss
-3.1399 3.1535
-2.5196 3.4801
-1.9906 1.9437
ITEM: ATOMS id type xs ys zs
1 1 .491888 .993253 .603509
2 1 .993606 .630205 .542439
3 1 .807884 .010174 .449290
4 1 .204705 .018708 .406674
5 1 .007256 .614457 .507358
6 1 .497684 .419126 .989778
7 1 .515514 .491702 .010453
ITEM: TIMESTEP
250
ITEM: NUMBER OF ATOMS
7
ITEM: BOX BOUNDS ss ss ss
-3.1348 3.1618
-2.5026 3.4862
-1.9963 1.9544
ITEM: ATOMS id type xs ys zs
1 1 .491184 .991940 .601487
2 1 .993138 .626653 .542075
3 1 .806581 .009481 .449369
4 1 .203798 .016199 .406144
5 1 .007001 .612171 .507968
6 1 .496900 .417165 .988171
7 1 .514457 .490670 .012331
ITEM: TIMESTEP
300
ITEM: NUMBER OF ATOMS
7
ITEM: BOX BOUNDS ss ss ss
-3.1364 3.1668
-2.4867 3.4823
-1.9913 1.9528
ITEM: ATOMS id type xs ys zs
1 1 .491316 .992639 .600640
2 1 .992919 .624812 .541712
3 1 .806349 .008373 .449715
4 1 .203873 .013323 .404574
5 1 .007570 .610783 .508794
6 1 .496636 .415910 .989346
7 1 .514031 .489764 .011269
ITEM: TIMESTEP
350
ITEM: NUMBER OF ATOMS
7
ITEM: BOX BOUNDS ss ss ss
-3.1378 3.1691
-2.4875 3.4854
-1.9896 1.9585
ITEM: ATOMS id type xs ys zs
1 1 .491455 .992409 .599312
2 1 .992660 .623869 .541024
3 1 .806509 .009568 .448761
4 1 .203722 .013035 .403019
5 1 .008030 .610448 .508011
6 1 .496343 .415719 .988244
7 1 .513597 .489530 .011257
ITEM: TIMESTEP
400
ITEM: NUMBER OF ATOMS
7
ITEM: BOX BOUNDS ss ss ss
-3.1388 3.1669
-2.4753 3.4948
-1.9883 1.9653
ITEM: ATOMS id type xs ys zs
1 1 .491834 .991060 .597579
2 1 .992733 .621655 .540752
3 1 .807156 .008472 .447778
4 1 .203850 .010435 .402011
5 1 .008436 .608872 .506831
6 1 .496192 .413722 .987019
7 1 .513300 .487573 .011381
ITEM: TIMESTEP
1
ITEM: NUMBER OF ATOMS
7
ITEM: BOX BOUNDS ss ss ss
-3.1116 3.1549
-2.4870 3.4680
-1.9693 1.9496
ITEM: ATOMS id type xs ys zs
1 1 .489656 .995099 .600580
2 1 .992899 .632172 .534987
3 1 .806566 .000675 .447786
4 1 .203969 .014325 .402806
5 1 .000582 .612742 .502473
6 1 .492043 .416926 .989147
7 1 .513020 .488694 .003889
ITEM: TIMESTEP
50
ITEM: NUMBER OF ATOMS
7
ITEM: BOX BOUNDS ss ss ss
-3.1370 3.1549
-2.5144 3.4680
-1.9833 1.9496
ITEM: ATOMS id type xs ys zs
1 1 .491555 .995085 .602253
2 1 .992877 .634107 .536312
3 1 .807285 .004774 .450061
4 1 .207138 .018940 .404718
5 1 .004493 .614543 .504205
6 1 .494280 .419664 .989012
7 1 .515259 .491139 .007662
ITEM: TIMESTEP
100
ITEM: NUMBER OF ATOMS
7
ITEM: BOX BOUNDS ss ss ss
-3.1453 3.1549
-2.5204 3.4879
-1.9954 1.9496
ITEM: ATOMS id type xs ys zs
1 1 .491886 .991789 .603001
2 1 .992675 .631636 .537832
3 1 .807623 .006713 .452403
4 1 .207280 .019614 .406254
5 1 .006160 .613214 .505214
6 1 .495659 .418566 .988334
7 1 .516076 .489922 .011485
ITEM: TIMESTEP
150
ITEM: NUMBER OF ATOMS
7
ITEM: BOX BOUNDS ss ss ss
-3.1391 3.1549
-2.5177 3.4778
-1.9894 1.9496
ITEM: ATOMS id type xs ys zs
1 1 .492305 .992571 .600704
2 1 .992634 .629930 .537552
3 1 .807264 .008765 .452143
4 1 .205565 .018249 .404692
5 1 .005336 .614320 .504300
6 1 .495386 .419274 .986303
7 1 .514462 .489934 .009421
ITEM: TIMESTEP
200
ITEM: NUMBER OF ATOMS
7
ITEM: BOX BOUNDS ss ss ss
-3.1484 3.1549
-2.5092 3.4778
-1.9959 1.9496
ITEM: ATOMS id type xs ys zs
1 1 .493406 .992446 .600815
2 1 .992975 .627771 .537789
3 1 .807422 .009031 .452421
4 1 .205646 .015980 .404958
5 1 .006793 .614198 .505620
6 1 .496264 .418276 .985586
7 1 .514179 .489064 .010455
ITEM: TIMESTEP
250
ITEM: NUMBER OF ATOMS
7
ITEM: BOX BOUNDS ss ss ss
-3.1495 3.1573
-2.4907 3.4727
-1.9963 1.9496
ITEM: ATOMS id type xs ys zs
1 1 .493291 .993288 .600677
2 1 .992858 .626095 .537365
3 1 .807477 .007119 .452712
4 1 .204924 .012675 .404388
5 1 .007297 .613921 .506259
6 1 .495973 .416431 .985987
7 1 .513525 .487997 .010721
ITEM: TIMESTEP
300
ITEM: NUMBER OF ATOMS
7
ITEM: BOX BOUNDS ss ss ss
-3.1485 3.1549
-2.4933 3.4748
-1.9986 1.9496
ITEM: ATOMS id type xs ys zs
1 1 .493599 .993179 .600685
2 1 .993375 .625230 .536832
3 1 .808117 .008497 .453448
4 1 .204139 .013006 .404520
5 1 .007598 .614021 .506754
6 1 .496003 .416297 .986629
7 1 .513156 .488149 .011564
ITEM: TIMESTEP
350
ITEM: NUMBER OF ATOMS
7
ITEM: BOX BOUNDS ss ss ss
-3.1492 3.1565
-2.4863 3.4855
-1.9988 1.9554
ITEM: ATOMS id type xs ys zs
1 1 .493577 .991537 .598928
2 1 .992925 .623062 .536204
3 1 .808122 .008098 .452821
4 1 .203569 .011528 .404608
5 1 .008269 .612225 .506019
6 1 .496056 .414900 .986135
7 1 .512629 .486294 .011558
ITEM: TIMESTEP
400
ITEM: NUMBER OF ATOMS
7
ITEM: BOX BOUNDS ss ss ss
-3.1393 3.1579
-2.4828 3.4763
-2.0079 1.9496
ITEM: ATOMS id type xs ys zs
1 1 .492263 .993038 .598916
2 1 .992132 .623158 .538876
3 1 .807672 .008095 .453632
4 1 .201815 .010420 .408529
5 1 .006939 .612361 .507171
6 1 .495251 .415481 .988500
7 1 .511182 .485927 .013606
ITEM: TIMESTEP
1
ITEM: NUMBER OF ATOMS
7
ITEM: BOX BOUNDS ss ss ss
-3.1232 3.1549
-2.4867 3.4680
-1.9863 1.9496
ITEM: ATOMS id type xs ys zs
1 1 .490600 .995098 .602302
2 1 .992911 .632160 .536989
3 1 .806921 .000629 .450169
4 1 .205438 .014281 .405385
5 1 .002424 .612728 .504626
6 1 .492981 .416904 .989196
7 1 .513923 .488673 .008178
ITEM: TIMESTEP
50
ITEM: NUMBER OF ATOMS
7
ITEM: BOX BOUNDS ss ss ss
-3.1363 3.1549
-2.5173 3.4680
-1.9863 1.9496
ITEM: ATOMS id type xs ys zs
1 1 .491503 .995130 .602627
2 1 .992877 .634397 .536518
3 1 .807137 .005027 .450493
4 1 .207143 .019422 .405262
5 1 .004301 .614688 .504554
6 1 .494224 .419994 .988959
7 1 .515234 .491384 .008340
ITEM: TIMESTEP
100
ITEM: NUMBER OF ATOMS
7
ITEM: BOX BOUNDS ss ss ss
-3.1442 3.1549
-2.5204 3.4800
-1.9869 1.9496
ITEM: ATOMS id type xs ys zs
1 1 .491676 .993145 .602782
2 1 .992525 .633080 .536479
3 1 .807383 .006164 .451357
4 1 .207440 .019510 .405066
5 1 .006120 .613861 .504127
6 1 .495929 .419273 .988491
7 1 .516003 .490660 .009069
ITEM: TIMESTEP
150
ITEM: NUMBER OF ATOMS
7
ITEM: BOX BOUNDS ss ss ss
-3.1498 3.1549
-2.5260 3.4802
-1.9915 1.9548
ITEM: ATOMS id type xs ys zs
1 1 .491870 .993427 .602802
2 1 .991882 .633030 .536792
3 1 .807871 .007729 .451176
4 1 .207592 .020233 .404621
5 1 .008069 .614418 .504108
6 1 .497442 .419149 .987198
7 1 .516092 .490978 .010919
ITEM: TIMESTEP
200
ITEM: NUMBER OF ATOMS
7
ITEM: BOX BOUNDS ss ss ss
-3.1484 3.1549
-2.5259 3.4830
-1.9980 1.9597
ITEM: ATOMS id type xs ys zs
1 1 .491365 .993179 .603566
2 1 .991330 .631638 .536635
3 1 .807673 .009017 .451583
4 1 .206711 .019718 .404878
5 1 .008576 .613882 .504985
6 1 .497785 .418415 .986928
7 1 .515485 .490661 .012689
ITEM: TIMESTEP
250
ITEM: NUMBER OF ATOMS
7
ITEM: BOX BOUNDS ss ss ss
-3.1410 3.1549
-2.5204 3.4890
-2.0002 1.9609
ITEM: ATOMS id type xs ys zs
1 1 .490394 .991105 .603941
2 1 .991115 .629428 .536133
3 1 .806795 .011076 .451384
4 1 .203902 .018778 .405705
5 1 .008933 .612843 .506111
6 1 .497148 .416844 .989196
7 1 .514307 .489307 .011611
ITEM: TIMESTEP
300
ITEM: NUMBER OF ATOMS
7
ITEM: BOX BOUNDS ss ss ss
-3.1310 3.1549
-2.4987 3.4834
-2.0015 1.9610
ITEM: ATOMS id type xs ys zs
1 1 .489733 .990976 .604157
2 1 .991177 .628318 .536485
3 1 .806404 .009485 .451409
4 1 .200919 .015429 .406902
5 1 .008343 .613113 .506139
6 1 .496542 .414565 .990129
7 1 .513455 .487129 .011076
ITEM: TIMESTEP
350
ITEM: NUMBER OF ATOMS
7
ITEM: BOX BOUNDS ss ss ss
-3.1202 3.1549
-2.4857 3.4797
-2.0011 1.9730
ITEM: ATOMS id type xs ys zs
1 1 .489235 .991444 .602234
2 1 .991263 .627078 .535000
3 1 .806463 .008397 .450804
4 1 .199011 .012768 .405136
5 1 .006275 .612805 .504325
6 1 .495431 .413483 .986818
7 1 .511934 .486186 .011503
ITEM: TIMESTEP
400
ITEM: NUMBER OF ATOMS
7
ITEM: BOX BOUNDS ss ss ss
-3.1245 3.1600
-2.4872 3.4796
-2.0026 1.9694
ITEM: ATOMS id type xs ys zs
1 1 .489488 .991219 .602795
2 1 .990405 .626454 .535734
3 1 .806220 .009777 .452308
4 1 .199212 .012341 .405212
5 1 .006484 .612799 .504915
6 1 .494642 .413416 .987801
7 1 .510881 .486479 .012437
ITEM: TIMESTEP
1
ITEM: NUMBER OF ATOMS
7
ITEM: BOX BOUNDS ss ss ss
-3.1120 3.1549
-2.4865 3.4680
-1.9885 1.9520
ITEM: ATOMS id type xs ys zs
1 1 .489693 .995098 .602161
2 1 .992901 .632149 .536922
3 1 .806576 .000599 .450203
4 1 .204023 .014256 .405467
5 1 .000646 .612717 .504594
6 1 .492077 .416885 .988607
7 1 .513056 .488653 .008730
ITEM: TIMESTEP
50
ITEM: NUMBER OF ATOMS
7
ITEM: BOX BOUNDS ss ss ss
-3.1355 3.1549
-2.5171 3.4681
-1.9885 1.9520
ITEM: ATOMS id type xs ys zs
1 1 .491478 .995123 .602516
2 1 .992905 .634472 .536462
3 1 .807097 .004847 .450520
4 1 .207106 .019469 .405300
5 1 .004150 .614625 .504646
6 1 .494126 .419961 .988408
7 1 .515211 .491340 .008903
ITEM: TIMESTEP
100
ITEM: NUMBER OF ATOMS
7
ITEM: BOX BOUNDS ss ss ss
-3.1475 3.1549
-2.5224 3.4775
-1.9897 1.9520
ITEM: ATOMS id type xs ys zs
1 1 .492075 .993747 .602290
2 1 .992676 .633441 .536626
3 1 .807495 .006368 .451155
4 1 .207777 .019957 .405029
5 1 .006595 .613736 .504438
6 1 .496073 .419509 .988074
7 1 .516373 .490990 .009949
ITEM: TIMESTEP
150
ITEM: NUMBER OF ATOMS
7
ITEM: BOX BOUNDS ss ss ss
-3.1441 3.1549
-2.5206 3.4789
-1.9929 1.9538
ITEM: ATOMS id type xs ys zs
1 1 .491172 .993513 .602097
2 1 .992623 .632669 .538130
3 1 .807866 .007232 .451819
4 1 .207092 .019051 .404569
5 1 .006936 .612881 .504453
6 1 .497028 .418599 .986944
7 1 .516083 .490659 .010856
ITEM: TIMESTEP
200
ITEM: NUMBER OF ATOMS
7
ITEM: BOX BOUNDS ss ss ss
-3.1416 3.1549
-2.5171 3.4787
-1.9906 1.9520
ITEM: ATOMS id type xs ys zs
1 1 .490953 .994078 .603226
2 1 .992277 .632073 .540328
3 1 .808721 .008825 .449340
4 1 .206530 .017008 .403603
5 1 .009039 .612389 .503542
6 1 .498047 .417560 .986039
7 1 .516380 .490640 .009339
ITEM: TIMESTEP
250
ITEM: NUMBER OF ATOMS
7
ITEM: BOX BOUNDS ss ss ss
-3.1361 3.1549
-2.5132 3.4904
-1.9979 1.9520
ITEM: ATOMS id type xs ys zs
1 1 .490270 .992190 .604199
2 1 .992299 .630388 .541102
3 1 .808525 .008793 .449376
4 1 .205212 .015933 .404695
5 1 .008820 .611190 .504287
6 1 .497977 .416044 .985786
7 1 .515932 .489356 .011090
ITEM: TIMESTEP
300
ITEM: NUMBER OF ATOMS
7
ITEM: BOX BOUNDS ss ss ss
-3.1279 3.1549
-2.5053 3.4831
-1.9943 1.9520
ITEM: ATOMS id type xs ys zs
1 1 .489626 .992995 .604091
2 1 .992678 .630044 .540200
3 1 .808482 .008398 .448263
4 1 .203606 .014288 .405160
5 1 .007831 .611329 .503802
6 1 .497679 .415153 .985826
7 1 .515010 .489052 .010177
ITEM: TIMESTEP
350
ITEM: NUMBER OF ATOMS
7
ITEM: BOX BOUNDS ss ss ss
-3.1259 3.1549
-2.5019 3.4916
-2.0006 1.9520
ITEM: ATOMS id type xs ys zs
1 1 .489711 .990986 .604689
2 1 .992996 .628087 .540687
3 1 .808873 .008734 .448941
4 1 .202995 .013342 .406791
5 1 .007718 .610095 .504342
6 1 .497952 .413817 .986065
7 1 .514402 .487716 .011768
ITEM: TIMESTEP
400
ITEM: NUMBER OF ATOMS
7
ITEM: BOX BOUNDS ss ss ss
-3.1239 3.1627
-2.4962 3.4860
-2.0048 1.9520
ITEM: ATOMS id type xs ys zs
1 1 .489024 .991345 .604522
2 1 .991754 .627178 .541183
3 1 .808477 .008732 .449338
4 1 .202109 .011992 .407453
5 1 .007647 .610551 .504537
6 1 .496934 .413432 .985915
7 1 .513087 .487096 .012365
ITEM: TIMESTEP
1
ITEM: NUMBER OF ATOMS
7
ITEM: BOX BOUNDS ss ss ss
-3.1120 3.1364
-2.4867 3.4605
-1.9903 1.9476
ITEM: ATOMS id type xs ys zs
1 1 .491136 .996339 .603015
2 1 .995833 .632950 .537730
3 1 .808956 .000633 .450956
4 1 .204628 .014305 .406192
5 1 .000647 .613494 .505385
6 1 .493527 .417425 .989715
7 1 .514568 .489283 .009189
ITEM: TIMESTEP
50
ITEM: NUMBER OF ATOMS
7
ITEM: BOX BOUNDS ss ss ss
-3.1407 3.1367
-2.5166 3.4659
-1.9903 1.9476
ITEM: ATOMS id type xs ys zs
1 1 .493298 .995492 .603410
2 1 .995821 .634728 .537170
3 1 .809619 .004645 .451325
4 1 .208457 .019410 .406028
5 1 .004922 .614877 .505399
6 1 .495933 .420111 .989516
7 1 .517128 .491528 .009373
ITEM: TIMESTEP
100
ITEM: NUMBER OF ATOMS
7
ITEM: BOX BOUNDS ss ss ss
-3.1460 3.1458
-2.5248 3.4731
-1.9903 1.9476
ITEM: ATOMS id type xs ys zs
1 1 .492485 .994417 .603580
2 1 .994027 .633774 .536442
3 1 .808498 .006502 .452394
4 1 .208220 .020735 .405953
5 1 .006048 .615130 .504660
6 1 .496952 .420671 .988926
7 1 .516895 .491718 .010144
ITEM: TIMESTEP
150
ITEM: NUMBER OF ATOMS
7
ITEM: BOX BOUNDS ss ss ss
-3.1465 3.1568
-2.5284 3.4846
-1.9910 1.9476
ITEM: ATOMS id type xs ys zs
1 1 .490715 .992981 .603220
2 1 .992823 .631961 .536807
3 1 .807582 .007780 .454602
4 1 .207368 .020935 .405406
5 1 .006849 .614840 .504782
6 1 .498079 .420392 .988354
7 1 .515873 .490965 .010225
ITEM: TIMESTEP
200
ITEM: NUMBER OF ATOMS
7
ITEM: BOX BOUNDS ss ss ss
-3.1404 3.1603
-2.5240 3.4862
-1.9961 1.9485
ITEM: ATOMS id type xs ys zs
1 1 .489191 .993062 .603142
2 1 .992624 .630807 .537310
3 1 .807345 .007408 .456646
4 1 .206033 .020135 .404782
5 1 .006622 .614806 .505638
6 1 .498330 .419684 .987705
7 1 .515196 .490657 .012056
ITEM: TIMESTEP
250
ITEM: NUMBER OF ATOMS
7
ITEM: BOX BOUNDS ss ss ss
-3.1413 3.1731
-2.5271 3.4962
-1.9960 1.9506
ITEM: ATOMS id type xs ys zs
1 1 .488355 .991659 .603153
2 1 .990672 .629338 .536349
3 1 .805689 .008248 .457139
4 1 .205060 .020344 .404014
5 1 .007356 .614109 .505585
6 1 .497826 .418996 .987317
7 1 .514066 .489834 .012758
ITEM: TIMESTEP
300
ITEM: NUMBER OF ATOMS
7
ITEM: BOX BOUNDS ss ss ss
-3.1418 3.1755
-2.5272 3.4939
-1.9961 1.9565
ITEM: ATOMS id type xs ys zs
1 1 .488918 .992059 .602912
2 1 .989924 .628866 .534800
3 1 .804984 .008804 .456621
4 1 .204215 .018983 .404344
5 1 .008187 .614668 .504813
6 1 .497570 .418484 .986324
7 1 .512999 .489347 .013328
ITEM: TIMESTEP
350
ITEM: NUMBER OF ATOMS
7
ITEM: BOX BOUNDS ss ss ss
-3.1387 3.1595
-2.5264 3.4977
-1.9966 1.9562
ITEM: ATOMS id type xs ys zs
1 1 .490586 .991079 .603992
2 1 .992008 .627987 .536355
3 1 .807068 .009452 .455541
4 1 .203961 .017579 .406007
5 1 .008662 .614468 .504226
6 1 .498129 .417263 .985839
7 1 .513774 .488509 .012719
ITEM: TIMESTEP
400
ITEM: NUMBER OF ATOMS
7
ITEM: BOX BOUNDS ss ss ss
-3.1405 3.1568
-2.5170 3.4957
-2.0042 1.9516
ITEM: ATOMS id type xs ys zs
1 1 .491412 .990703 .606852
2 1 .991994 .627004 .540181
3 1 .807811 .008515 .455060
4 1 .204042 .015470 .408844
5 1 .009475 .613827 .504798
6 1 .497766 .415647 .986372
7 1 .514400 .487402 .013351
ITEM: TIMESTEP
1
ITEM: NUMBER OF ATOMS
7
ITEM: BOX BOUNDS ss ss ss
-3.1117 3.1449
-2.4887 3.4640
-1.9890 1.9476
ITEM: ATOMS id type xs ys zs
1 1 .490446 .995770 .602892
2 1 .994487 .632709 .537580
3 1 .807853 .000955 .450776
4 1 .204308 .014619 .406000
5 1 .000591 .613266 .505226
6 1 .492832 .417376 .989707
7 1 .513846 .489170 .008867
ITEM: TIMESTEP
50
ITEM: NUMBER OF ATOMS
7
ITEM: BOX BOUNDS ss ss ss
-3.1356 3.1449
-2.5177 3.4712
-1.9890 1.9476
ITEM: ATOMS id type xs ys zs
1 1 .492296 .994598 .603325
2 1 .994520 .634335 .537014
3 1 .808352 .004713 .451083
4 1 .207584 .019631 .405878
5 1 .004076 .614389 .505246
6 1 .494858 .419834 .989545
7 1 .516097 .491179 .008934
ITEM: TIMESTEP
100
ITEM: NUMBER OF ATOMS
7
ITEM: BOX BOUNDS ss ss ss
-3.1429 3.1453
-2.5324 3.4787
-1.9890 1.9476
ITEM: ATOMS id type xs ys zs
1 1 .492162 .993506 .603884
2 1 .993924 .633428 .537274
3 1 .808554 .007608 .451435
4 1 .207657 .021756 .406006
5 1 .005526 .614689 .505155
6 1 .496744 .420800 .989201
7 1 .516630 .492013 .010139
ITEM: TIMESTEP
150
ITEM: NUMBER OF ATOMS
7
ITEM: BOX BOUNDS ss ss ss
-3.1417 3.1464
-2.5268 3.4821
-1.9898 1.9476
ITEM: ATOMS id type xs ys zs
1 1 .490903 .993471 .605241
2 1 .993056 .630371 .538195
3 1 .808151 .007126 .451532
4 1 .207277 .020634 .406732
5 1 .005903 .613659 .505456
6 1 .497684 .420452 .989671
7 1 .515949 .491331 .011222
ITEM: TIMESTEP
200
ITEM: NUMBER OF ATOMS
7
ITEM: BOX BOUNDS ss ss ss
-3.1419 3.1454
-2.5323 3.4901
-1.9890 1.9476
ITEM: ATOMS id type xs ys zs
1 1 .490735 .992183 .604368
2 1 .993626 .628815 .537619
3 1 .808092 .008236 .452101
4 1 .206880 .020902 .406503
5 1 .006373 .612954 .505461
6 1 .498281 .419769 .989556
7 1 .515729 .491301 .011306
ITEM: TIMESTEP
250
ITEM: NUMBER OF ATOMS
7
ITEM: BOX BOUNDS ss ss ss
-3.1418 3.1603
-2.5269 3.4932
-1.9890 1.9498
ITEM: ATOMS id type xs ys zs
1 1 .489693 .991697 .603783
2 1 .992291 .626763 .536854
3 1 .806341 .008055 .452540
4 1 .205875 .019506 .405177
5 1 .006677 .611797 .504639
6 1 .497578 .418251 .988705
7 1 .514522 .490910 .011968
ITEM: TIMESTEP
300
ITEM: NUMBER OF ATOMS
7
ITEM: BOX BOUNDS ss ss ss
-3.1426 3.1573
-2.5292 3.4979
-1.9890 1.9512
ITEM: ATOMS id type xs ys zs
1 1 .490144 .991233 .605732
2 1 .993526 .625607 .536930
3 1 .807568 .010149 .453197
4 1 .205977 .020209 .402730
5 1 .006747 .611631 .504290
6 1 .498133 .418268 .988147
7 1 .514766 .491718 .012220
ITEM: TIMESTEP
350
ITEM: NUMBER OF ATOMS
7
ITEM: BOX BOUNDS ss ss ss
-3.1491 3.1694
-2.5166 3.5167
-1.9890 1.9575
ITEM: ATOMS id type xs ys zs
1 1 .489537 .988380 .605565
2 1 .991826 .622426 .535963
3 1 .806685 .009295 .453056
4 1 .206234 .018387 .401182
5 1 .008120 .609078 .503711
6 1 .497838 .415934 .986418
7 1 .514004 .489839 .011530
ITEM: TIMESTEP
400
ITEM: NUMBER OF ATOMS
7
ITEM: BOX BOUNDS ss ss ss
-3.1487 3.1654
-2.5112 3.4951
-1.9993 1.9620
ITEM: ATOMS id type xs ys zs
1 1 .489914 .991949 .605608
2 1 .992471 .623840 .536183
3 1 .807207 .009387 .454642
4 1 .206207 .017525 .401767
5 1 .008411 .611103 .504589
6 1 .498016 .417121 .985364
7 1 .513917 .491482 .013473
ITEM: TIMESTEP
1
ITEM: NUMBER OF ATOMS
7
ITEM: BOX BOUNDS ss ss ss
-3.1258 3.1430
-2.4868 3.4729
-1.9687 1.9448
ITEM: ATOMS id type xs ys zs
1 1 .491740 .994280 .601255
2 1 .994803 .631646 .535558
3 1 .808527 .000631 .448245
4 1 .206157 .014284 .403202
5 1 .002835 .612228 .503012
6 1 .494120 .416565 .990350
7 1 .515094 .488275 .003738
ITEM: TIMESTEP
50
ITEM: NUMBER OF ATOMS
7
ITEM: BOX BOUNDS ss ss ss
-3.1364 3.1430
-2.5184 3.4729
-1.9834 1.9448
ITEM: ATOMS id type xs ys zs
1 1 .492473 .994323 .603219
2 1 .994853 .634251 .536681
3 1 .808589 .004729 .450586
4 1 .207789 .019744 .405236
5 1 .004123 .614201 .504997
6 1 .495007 .419815 .990203
7 1 .516309 .491044 .007553
ITEM: TIMESTEP
100
ITEM: NUMBER OF ATOMS
7
ITEM: BOX BOUNDS ss ss ss
-3.1453 3.1510
-2.5260 3.4729
-1.9851 1.9448
ITEM: ATOMS id type xs ys zs
1 1 .491838 .994474 .603137
2 1 .992779 .633735 .536994
3 1 .807711 .006111 .451582
4 1 .207318 .020235 .405037
5 1 .006195 .614846 .504593
6 1 .496161 .420297 .989926
7 1 .516323 .491426 .009544
ITEM: TIMESTEP
150
ITEM: NUMBER OF ATOMS
7
ITEM: BOX BOUNDS ss ss ss
-3.1419 3.1430
-2.5319 3.4869
-1.9931 1.9486
ITEM: ATOMS id type xs ys zs
1 1 .491166 .993170 .603369
2 1 .993033 .630813 .537807
3 1 .808535 .006945 .453737
4 1 .206080 .020469 .404496
5 1 .007011 .614278 .503710
6 1 .497260 .419516 .990276
7 1 .516589 .490811 .014161
ITEM: TIMESTEP
200
ITEM: NUMBER OF ATOMS
7
ITEM: BOX BOUNDS ss ss ss
-3.1503 3.1430
-2.5306 3.4900
-1.9881 1.9554
ITEM: ATOMS id type xs ys zs
1 1 .491476 .992875 .602252
2 1 .993294 .629815 .536389
3 1 .808520 .007151 .453173
4 1 .206689 .019429 .401952
5 1 .008598 .614169 .501847
6 1 .498341 .418730 .988092
7 1 .516748 .490181 .013684
ITEM: TIMESTEP
250
ITEM: NUMBER OF ATOMS
7
ITEM: BOX BOUNDS ss ss ss
-3.1368 3.1525
-2.5288 3.4909
-1.9822 1.9632
ITEM: ATOMS id type xs ys zs
1 1 .490167 .992658 .600511
2 1 .992215 .628734 .534926
3 1 .807240 .007791 .453385
4 1 .204111 .017965 .400053
5 1 .006648 .614297 .499728
6 1 .496518 .418149 .985299
7 1 .514475 .489115 .012654
ITEM: TIMESTEP
300
ITEM: NUMBER OF ATOMS
7
ITEM: BOX BOUNDS ss ss ss
-3.1406 3.1536
-2.5370 3.4908
-1.9774 1.9540
ITEM: ATOMS id type xs ys zs
1 1 .490788 .992297 .601080
2 1 .992546 .628196 .535316
3 1 .807749 .010589 .456533
4 1 .204525 .018134 .400667
5 1 .007216 .614226 .500648
6 1 .496229 .418879 .987239
7 1 .514097 .489283 .011742
ITEM: TIMESTEP
350
ITEM: NUMBER OF ATOMS
7
ITEM: BOX BOUNDS ss ss ss
-3.1408 3.1534
-2.5143 3.4924
-1.9888 1.9561
ITEM: ATOMS id type xs ys zs
1 1 .490963 .991755 .601379
2 1 .992733 .626135 .536522
3 1 .808207 .008206 .459259
4 1 .204480 .014069 .401287
5 1 .007392 .611740 .502686
6 1 .495829 .416643 .987556
7 1 .513960 .487340 .014082
ITEM: TIMESTEP
400
ITEM: NUMBER OF ATOMS
7
ITEM: BOX BOUNDS ss ss ss
-3.1487 3.1541
-2.5140 3.4958
-1.9899 1.9547
ITEM: ATOMS id type xs ys zs
1 1 .492050 .990997 .600471
2 1 .992736 .624410 .537079
3 1 .807968 .009375 .459144
4 1 .204796 .014793 .400272
5 1 .008340 .611284 .503395
6 1 .495867 .416534 .987480
7 1 .514209 .487352 .012491
ITEM: TIMESTEP
1
ITEM: NUMBER OF ATOMS
7
ITEM: BOX BOUNDS ss ss ss
-3.1282 3.1320
-2.4870 3.4645
-1.9818 1.9329
ITEM: ATOMS id type xs ys zs
1 1 .492798 .995678 .604415
2 1 .996544 .632551 .538739
3 1 .810020 .000675 .451455
4 1 .206828 .014348 .406423
5 1 .003230 .613104 .506205
6 1 .495181 .417176 .993394
7 1 .516186 .488982 .007076
ITEM: TIMESTEP
50
ITEM: NUMBER OF ATOMS
7
ITEM: BOX BOUNDS ss ss ss
-3.1387 3.1375
-2.5183 3.4696
-1.9862 1.9354
ITEM: ATOMS id type xs ys zs
1 1 .493084 .994804 .605039
2 1 .995723 .634679 .538217
3 1 .809383 .004641 .452092
4 1 .208286 .019785 .406753
5 1 .004432 .614550 .506549
6 1 .495629 .420091 .992551
7 1 .516957 .491359 .008266
ITEM: TIMESTEP
100
ITEM: NUMBER OF ATOMS
7
ITEM: BOX BOUNDS ss ss ss
-3.1498 3.1460
-2.5354 3.4743
-1.9890 1.9415
ITEM: ATOMS id type xs ys zs
1 1 .492688 .994111 .604431
2 1 .994125 .635271 .537292
3 1 .808824 .007248 .452257
4 1 .209155 .022240 .406190
5 1 .006270 .615299 .505964
6 1 .496758 .421457 .990357
7 1 .517358 .492602 .009683
ITEM: TIMESTEP
150
ITEM: NUMBER OF ATOMS
7
ITEM: BOX BOUNDS ss ss ss
-3.1568 3.1514
-2.5351 3.4840
-1.9860 1.9461
ITEM: ATOMS id type xs ys zs
1 1 .491902 .992973 .603227
2 1 .994281 .634525 .536307
3 1 .810079 .008504 .451817
4 1 .209371 .022149 .405733
5 1 .008610 .614918 .503436
6 1 .498478 .420070 .989156
7 1 .518439 .490422 .009038
ITEM: TIMESTEP
200
ITEM: NUMBER OF ATOMS
7
ITEM: BOX BOUNDS ss ss ss
-3.1479 3.1575
-2.5250 3.4850
-1.9905 1.9459
ITEM: ATOMS id type xs ys zs
1 1 .490695 .992352 .604466
2 1 .993921 .634147 .536913
3 1 .809655 .008004 .452976
4 1 .207586 .020708 .407089
5 1 .008723 .614584 .501384
6 1 .498738 .418648 .989696
7 1 .518807 .488560 .010156
ITEM: TIMESTEP
250
ITEM: NUMBER OF ATOMS
7
ITEM: BOX BOUNDS ss ss ss
-3.1395 3.1656
-2.5254 3.4901
-2.0035 1.9463
ITEM: ATOMS id type xs ys zs
1 1 .489384 .991290 .606385
2 1 .992140 .632965 .538285
3 1 .808249 .008226 .455059
4 1 .206289 .020535 .409173
5 1 .008422 .613726 .501280
6 1 .498335 .418415 .989486
7 1 .517521 .488183 .012924
ITEM: TIMESTEP
300
ITEM: NUMBER OF ATOMS
7
ITEM: BOX BOUNDS ss ss ss
-3.1315 3.1624
-2.5276 3.4769
-2.0018 1.9499
ITEM: ATOMS id type xs ys zs
1 1 .489169 .993644 .606042
2 1 .992102 .633812 .536991
3 1 .808987 .009208 .455619
4 1 .205540 .020245 .408400
5 1 .008219 .614468 .499971
6 1 .498391 .419420 .987986
7 1 .517134 .489029 .011533
ITEM: TIMESTEP
350
ITEM: NUMBER OF ATOMS
7
ITEM: BOX BOUNDS ss ss ss
-3.1309 3.1663
-2.5150 3.4824
-2.0140 1.9555
ITEM: ATOMS id type xs ys zs
1 1 .488778 .992581 .606485
2 1 .991236 .632046 .537656
3 1 .809056 .007917 .458208
4 1 .205202 .017758 .409308
5 1 .008667 .613391 .502537
6 1 .497908 .417241 .986249
7 1 .516759 .487302 .013737
ITEM: TIMESTEP
400
ITEM: NUMBER OF ATOMS
7
ITEM: BOX BOUNDS ss ss ss
-3.1314 3.1609
-2.5255 3.4855
-2.0161 1.9619
ITEM: ATOMS id type xs ys zs
1 1 .489156 .991864 .606209
2 1 .992115 .632102 .537030
3 1 .809915 .010291 .458792
4 1 .204762 .019155 .408653
5 1 .009033 .614240 .503004
6 1 .498274 .417603 .984459
7 1 .516965 .487975 .014112
ITEM: TIMESTEP
1
ITEM: NUMBER OF ATOMS
7
ITEM: BOX BOUNDS ss ss ss
-3.1282 3.1469
-2.4900 3.4653
-2.0046 1.9403
ITEM: ATOMS id type xs ys zs
1 1 .491630 .995544 .605567
2 1 .994184 .632649 .540393
3 1 .808098 .001176 .453779
4 1 .206339 .014843 .409092
5 1 .003222 .613216 .508111
6 1 .494010 .417411 .991582
7 1 .514964 .489172 .012795
ITEM: TIMESTEP
50
ITEM: NUMBER OF ATOMS
7
ITEM: BOX BOUNDS ss ss ss
-3.1379 3.1469
-2.5196 3.4653
-2.0046 1.9403
ITEM: ATOMS id type xs ys zs
1 1 .492309 .995575 .606093
2 1 .994289 .635232 .539715
3 1 .808133 .004724 .454153
4 1 .207900 .020085 .408969
5 1 .004306 .615037 .508126
6 1 .494793 .420476 .991406
7 1 .516145 .491807 .012838
ITEM: TIMESTEP
100
ITEM: NUMBER OF ATOMS
7
ITEM: BOX BOUNDS ss ss ss
-3.1496 3.1501
-2.5283 3.4790
-2.0046 1.9409
ITEM: ATOMS id type xs ys zs
1 1 .492273 .993351 .606166
2 1 .993426 .634267 .538858
3 1 .807908 .005889 .455032
4 1 .208704 .021369 .408155
5 1 .006341 .614526 .507566
6 1 .496394 .420263 .990346
7 1 .517112 .491677 .013059
ITEM: TIMESTEP
150
ITEM: NUMBER OF ATOMS
7
ITEM: BOX BOUNDS ss ss ss
-3.1558 3.1546
-2.5327 3.4824
-2.0046 1.9492
ITEM: ATOMS id type xs ys zs
1 1 .491531 .992673 .605351
2 1 .992139 .633783 .536617
3 1 .807626 .006859 .455554
4 1 .208681 .022270 .406757
5 1 .007726 .615163 .505091
6 1 .497648 .419817 .987483
7 1 .517093 .491799 .012874
ITEM: TIMESTEP
200
ITEM: NUMBER OF ATOMS
7
ITEM: BOX BOUNDS ss ss ss
-3.1563 3.1481
-2.5380 3.4856
-2.0046 1.9450
ITEM: ATOMS id type xs ys zs
1 1 .491327 .992356 .606913
2 1 .992696 .633069 .537203
3 1 .809037 .008374 .457504
4 1 .209060 .022579 .407304
5 1 .009103 .613665 .506200
6 1 .499509 .419454 .988787
7 1 .517506 .492372 .012747
ITEM: TIMESTEP
250
ITEM: NUMBER OF ATOMS
7
ITEM: BOX BOUNDS ss ss ss
-3.1578 3.1565
-2.5332 3.4865
-2.0086 1.9534
ITEM: ATOMS id type xs ys zs
1 1 .489526 .992599 .607036
2 1 .991187 .632183 .535852
3 1 .808246 .007925 .457995
4 1 .208573 .021705 .406521
5 1 .010845 .612683 .506155
6 1 .499702 .418725 .987940
7 1 .517523 .491511 .013649
ITEM: TIMESTEP
300
ITEM: NUMBER OF ATOMS
7
ITEM: BOX BOUNDS ss ss ss
-3.1403 3.1503
-2.5382 3.4901
-2.0078 1.9680
ITEM: ATOMS id type xs ys zs
1 1 .487885 .991771 .605394
2 1 .992503 .632003 .533412
3 1 .808577 .009179 .456301
4 1 .206333 .022081 .404183
5 1 .008593 .612602 .504114
6 1 .499594 .418889 .983911
7 1 .517052 .491505 .013136
ITEM: TIMESTEP
350
ITEM: NUMBER OF ATOMS
7
ITEM: BOX BOUNDS ss ss ss
-3.1375 3.1534
-2.5343 3.4902
-2.0168 1.9591
ITEM: ATOMS id type xs ys zs
1 1 .487089 .991513 .608243