ITEM: TIMESTEP
1
ITEM: NUMBER OF ATOMS
7
ITEM: BOX BOUNDS ss ss ss
-3.1119 3.1142
-2.4865 3.4427
-1.9581 1.9108
ITEM: ATOMS id type xs ys zs
1 1 .492876 .999328 .605378
2 1 .999328 .634683 .539099
3 1 .811897 .000837 .450661
4 1 .205236 .014238 .405126
5 1 .000706 .615355 .506021
6 1 .495329 .418621 .999019
7 1 .516354 .490749 .001086
ITEM: TIMESTEP
50
ITEM: NUMBER OF ATOMS
7
ITEM: BOX BOUNDS ss ss ss
-3.1377 3.1359
-2.5097 3.4723
-1.9824 1.9355
ITEM: ATOMS id type xs ys zs
1 1 .493482 .994395 .603558
2 1 .994687 .631407 .539837
3 1 .809680 .006948 .453551
4 1 .206787 .016603 .406907
5 1 .005066 .613815 .508144
6 1 .495998 .418849 .994106
7 1 .514834 .489859 .007074
ITEM: TIMESTEP
100
ITEM: NUMBER OF ATOMS
7
ITEM: BOX BOUNDS ss ss ss
-3.1416 3.1463
-2.5211 3.4744
-1.9887 1.9391
ITEM: ATOMS id type xs ys zs
1 1 .492699 .993467 .601141
2 1 .993289 .630276 .541005
3 1 .807179 .010146 .451640
4 1 .206763 .018601 .408094
5 1 .006310 .614717 .508939
6 1 .497920 .419573 .994337
7 1 .512797 .493227 .009749
ITEM: TIMESTEP
150
ITEM: NUMBER OF ATOMS
7
ITEM: BOX BOUNDS ss ss ss
-3.1391 3.1481
-2.5217 3.4812
-1.9911 1.9442
ITEM: ATOMS id type xs ys zs
1 1 .493255 .993668 .599160
2 1 .992484 .628826 .541562
3 1 .809055 .011396 .453824
4 1 .204876 .019133 .407596
5 1 .005919 .614370 .506835
6 1 .496113 .419484 .994036
7 1 .513827 .491062 .012291
ITEM: TIMESTEP
200
ITEM: NUMBER OF ATOMS
7
ITEM: BOX BOUNDS ss ss ss
-3.1447 3.1487
-2.5133 3.4832
-1.9925 1.9522
ITEM: ATOMS id type xs ys zs
1 1 .494886 .994172 .594008
2 1 .992820 .627960 .542115
3 1 .808735 .011382 .454969
4 1 .202025 .018251 .409110
5 1 .006975 .612976 .503076
6 1 .493950 .418474 .989285
7 1 .514118 .489770 .013201
ITEM: TIMESTEP
250
ITEM: NUMBER OF ATOMS
7
ITEM: BOX BOUNDS ss ss ss
-3.1550 3.1472
-2.5105 3.4873
-1.9972 1.9509
ITEM: ATOMS id type xs ys zs
1 1 .496467 .993423 .594389
2 1 .993972 .626898 .544397
3 1 .810349 .011687 .456547
4 1 .203733 .017273 .413298
5 1 .009856 .615332 .503464
6 1 .494282 .418418 .988191
7 1 .514561 .488146 .013480
ITEM: TIMESTEP
300
ITEM: NUMBER OF ATOMS
7
ITEM: BOX BOUNDS ss ss ss
-3.1455 3.1563
-2.5030 3.4911
-2.0129 1.9556
ITEM: ATOMS id type xs ys zs
1 1 .493076 .992008 .592786
2 1 .990989 .624787 .542956
3 1 .807629 .011074 .456748
4 1 .201505 .015728 .411318
5 1 .009123 .612989 .507589
6 1 .494434 .417467 .990043
7 1 .513480 .485560 .015144
ITEM: TIMESTEP
350
ITEM: NUMBER OF ATOMS
7
ITEM: BOX BOUNDS ss ss ss
-3.1419 3.1504
-2.5023 3.4937
-2.0100 1.9567
ITEM: ATOMS id type xs ys zs
1 1 .492408 .991830 .591009
2 1 .991100 .624891 .543981
3 1 .808137 .013625 .457862
4 1 .202109 .014994 .411730
5 1 .009611 .613332 .505708
6 1 .494453 .416920 .988462
7 1 .513210 .485453 .012416
ITEM: TIMESTEP
400
ITEM: NUMBER OF ATOMS
7
ITEM: BOX BOUNDS ss ss ss
-3.1411 3.1492
-2.4865 3.4919
-2.0040 1.9579
ITEM: ATOMS id type xs ys zs
1 1 .492675 .993070 .589742
2 1 .992006 .624124 .542632
3 1 .808157 .013022 .455262
4 1 .202321 .012582 .412174
5 1 .010310 .612468 .504462
6 1 .492848 .417481 .989899
7 1 .512796 .484606 .012841
ITEM: TIMESTEP
1
ITEM: NUMBER OF ATOMS
7
ITEM: BOX BOUNDS ss ss ss
-3.1150 3.1249
-2.4864 3.4658
-1.9882 1.9437
ITEM: ATOMS id type xs ys zs
1 1 .492271 .995455 .603306
2 1 .997624 .632231 .538094
3 1 .810599 .000802 .451112
4 1 .205279 .014168 .406279
5 1 .001196 .612947 .505616
6 1 .494735 .416998 .990680
7 1 .515701 .488810 .008727
ITEM: TIMESTEP
50
ITEM: NUMBER OF ATOMS
7
ITEM: BOX BOUNDS ss ss ss
-3.1357 3.1352
-2.5118 3.4670
-1.9882 1.9437
ITEM: ATOMS id type xs ys zs
1 1 .493956 .995296 .601645
2 1 .996296 .632143 .540209
3 1 .810719 .006736 .447741
4 1 .204795 .016349 .406389
5 1 .005598 .615423 .506773
6 1 .497248 .419465 .991355
7 1 .516027 .492912 .008391
ITEM: TIMESTEP
100
ITEM: NUMBER OF ATOMS
7
ITEM: BOX BOUNDS ss ss ss
-3.1430 3.1442
-2.5171 3.4706
-1.9921 1.9437
ITEM: ATOMS id type xs ys zs
1 1 .493625 .994160 .603127
2 1 .994741 .631645 .543312
3 1 .809665 .009683 .448714
4 1 .206100 .017757 .408200
5 1 .007436 .616022 .507662
6 1 .498326 .419709 .990948
7 1 .515740 .492463 .010370
ITEM: TIMESTEP
150
ITEM: NUMBER OF ATOMS
7
ITEM: BOX BOUNDS ss ss ss
-3.1436 3.1436
-2.5141 3.4757
-1.9882 1.9437
ITEM: ATOMS id type xs ys zs
1 1 .493721 .992632 .601606
2 1 .994841 .627859 .544379
3 1 .809693 .011251 .449096
4 1 .206423 .017406 .407637
5 1 .008041 .614260 .509642
6 1 .498295 .419147 .991200
7 1 .515495 .492957 .009419
ITEM: TIMESTEP
200
ITEM: NUMBER OF ATOMS
7
ITEM: BOX BOUNDS ss ss ss
-3.1399 3.1535
-2.5196 3.4801
-1.9906 1.9437
ITEM: ATOMS id type xs ys zs
1 1 .495363 .991421 .600895
2 1 .995219 .626396 .544038
3 1 .807591 .014404 .449023
4 1 .204898 .018252 .407070
5 1 .008369 .613178 .510248
6 1 .497298 .419191 .991995
7 1 .515970 .492928 .010732
ITEM: TIMESTEP
250
ITEM: NUMBER OF ATOMS
7
ITEM: BOX BOUNDS ss ss ss
-3.1348 3.1618
-2.5026 3.4862
-1.9963 1.9544
ITEM: ATOMS id type xs ys zs
1 1 .493591 .993414 .597945
2 1 .992433 .623906 .543339
3 1 .807157 .011924 .444738
4 1 .204176 .015546 .405635
5 1 .006836 .612301 .510127
6 1 .495914 .417237 .988323
7 1 .513125 .490792 .012867
ITEM: TIMESTEP
300
ITEM: NUMBER OF ATOMS
7
ITEM: BOX BOUNDS ss ss ss
-3.1364 3.1668
-2.4867 3.4823
-1.9913 1.9528
ITEM: ATOMS id type xs ys zs
1 1 .491752 .991615 .599128
2 1 .993042 .621058 .545139
3 1 .807771 .010722 .447377
4 1 .204758 .011213 .404565
5 1 .008500 .610080 .510864
6 1 .494092 .414122 .989968
7 1 .513408 .488473 .010575
ITEM: TIMESTEP
350
ITEM: NUMBER OF ATOMS
7
ITEM: BOX BOUNDS ss ss ss
-3.1378 3.1691
-2.4875 3.4854
-1.9896 1.9585
ITEM: ATOMS id type xs ys zs
1 1 .492732 .993757 .594053
2 1 .991675 .622357 .543239
3 1 .808127 .011889 .443611
4 1 .203444 .015275 .406269
5 1 .008763 .613745 .508078
6 1 .496008 .416798 .989182
7 1 .511722 .490823 .011919
ITEM: TIMESTEP
400
ITEM: NUMBER OF ATOMS
7
ITEM: BOX BOUNDS ss ss ss
-3.1388 3.1669
-2.4753 3.4948
-1.9883 1.9653
ITEM: ATOMS id type xs ys zs
1 1 .492897 .991284 .591559
2 1 .992407 .620226 .542320
3 1 .809048 .011907 .442640
4 1 .203976 .012478 .405117
5 1 .008248 .611109 .505655
6 1 .495796 .414612 .986992
7 1 .511497 .488452 .010433
ITEM: TIMESTEP
1
ITEM: NUMBER OF ATOMS
7
ITEM: BOX BOUNDS ss ss ss
-3.1116 3.1549
-2.4870 3.4680
-1.9693 1.9496
ITEM: ATOMS id type xs ys zs
1 1 .489617 .995100 .600464
2 1 .992854 .632040 .535080
3 1 .806616 .000932 .447749
4 1 .203853 .014235 .402829
5 1 .000674 .612745 .502457
6 1 .492082 .416904 .989139
7 1 .512948 .488719 .003923
ITEM: TIMESTEP
50
ITEM: NUMBER OF ATOMS
7
ITEM: BOX BOUNDS ss ss ss
-3.1370 3.1549
-2.5144 3.4680
-1.9833 1.9496
ITEM: ATOMS id type xs ys zs
1 1 .492196 .992974 .599726
2 1 .992792 .630551 .538109
3 1 .807050 .007657 .451832
4 1 .206113 .018337 .405220
5 1 .005586 .614609 .503346
6 1 .493976 .419015 .984789
7 1 .514488 .490464 .007477
ITEM: TIMESTEP
100
ITEM: NUMBER OF ATOMS
7
ITEM: BOX BOUNDS ss ss ss
-3.1453 3.1549
-2.5204 3.4879
-1.9954 1.9496
ITEM: ATOMS id type xs ys zs
1 1 .494372 .989907 .600571
2 1 .992347 .628378 .537805
3 1 .806637 .011133 .450339
4 1 .204849 .017020 .405640
5 1 .006150 .614404 .505129
6 1 .495063 .419129 .987298
7 1 .513210 .488528 .009059
ITEM: TIMESTEP
150
ITEM: NUMBER OF ATOMS
7
ITEM: BOX BOUNDS ss ss ss
-3.1391 3.1549
-2.5177 3.4778
-1.9894 1.9496
ITEM: ATOMS id type xs ys zs
1 1 .492812 .991646 .600199
2 1 .993116 .627779 .537766
3 1 .806997 .012382 .446846
4 1 .203451 .015919 .405367
5 1 .005174 .616243 .504504
6 1 .494492 .419696 .986307
7 1 .511394 .490325 .008273
ITEM: TIMESTEP
200
ITEM: NUMBER OF ATOMS
7
ITEM: BOX BOUNDS ss ss ss
-3.1484 3.1549
-2.5092 3.4778
-1.9959 1.9496
ITEM: ATOMS id type xs ys zs
1 1 .493168 .991622 .597935
2 1 .993108 .625506 .538057
3 1 .806808 .012179 .447166
4 1 .203797 .014212 .409270
5 1 .005120 .614321 .504778
6 1 .497007 .418776 .988173
7 1 .510009 .488808 .010181
ITEM: TIMESTEP
250
ITEM: NUMBER OF ATOMS
7
ITEM: BOX BOUNDS ss ss ss
-3.1495 3.1573
-2.4907 3.4727
-1.9963 1.9496
ITEM: ATOMS id type xs ys zs
1 1 .493219 .993136 .595698
2 1 .990958 .623842 .538158
3 1 .807095 .009409 .448134
4 1 .202999 .009792 .410727
5 1 .007138 .612739 .503633
6 1 .497135 .417623 .989387
7 1 .509193 .485495 .008577
ITEM: TIMESTEP
300
ITEM: NUMBER OF ATOMS
7
ITEM: BOX BOUNDS ss ss ss
-3.1485 3.1549
-2.4933 3.4748
-1.9986 1.9496
ITEM: ATOMS id type xs ys zs
1 1 .492035 .993891 .594302
2 1 .990812 .621983 .539638
3 1 .807060 .009705 .447021
4 1 .202082 .010140 .414226
5 1 .006682 .612475 .501509
6 1 .494007 .418620 .988170
7 1 .509244 .484667 .011153
ITEM: TIMESTEP
350
ITEM: NUMBER OF ATOMS
7
ITEM: BOX BOUNDS ss ss ss
-3.1492 3.1565
-2.4863 3.4855
-1.9988 1.9554
ITEM: ATOMS id type xs ys zs
1 1 .492241 .991548 .592318
2 1 .990162 .622003 .541714
3 1 .808401 .009980 .446237
4 1 .200783 .008645 .414659
5 1 .006806 .610176 .498351
6 1 .493704 .415977 .985930
7 1 .509423 .483216 .008204
ITEM: TIMESTEP
400
ITEM: NUMBER OF ATOMS
7
ITEM: BOX BOUNDS ss ss ss
-3.1393 3.1579
-2.4828 3.4763
-2.0079 1.9496
ITEM: ATOMS id type xs ys zs
1 1 .492719 .992438 .595802
2 1 .989615 .623559 .544271
3 1 .808415 .010600 .446366
4 1 .199679 .007507 .416342
5 1 .006321 .612344 .501390
6 1 .492830 .415836 .986393
7 1 .508661 .483849 .011053
ITEM: TIMESTEP
1
ITEM: NUMBER OF ATOMS
7
ITEM: BOX BOUNDS ss ss ss
-3.1232 3.1549
-2.4867 3.4680
-1.9863 1.9496
ITEM: ATOMS id type xs ys zs
1 1 .490594 .995092 .602215
2 1 .992873 .632008 .537091
3 1 .806988 .000886 .450149
4 1 .205326 .014219 .405378
5 1 .002510 .612766 .504584
6 1 .493032 .416870 .989168
7 1 .513888 .488702 .008208
ITEM: TIMESTEP
50
ITEM: NUMBER OF ATOMS
7
ITEM: BOX BOUNDS ss ss ss
-3.1363 3.1549
-2.5173 3.4680
-1.9863 1.9496
ITEM: ATOMS id type xs ys zs
1 1 .490854 .995100 .605322
2 1 .993558 .632561 .538693
3 1 .807720 .009531 .450788
4 1 .207486 .019013 .408589
5 1 .005198 .615186 .503321
6 1 .494203 .420024 .989639
7 1 .515903 .491237 .008092
ITEM: TIMESTEP
100
ITEM: NUMBER OF ATOMS
7
ITEM: BOX BOUNDS ss ss ss
-3.1442 3.1549
-2.5204 3.4800
-1.9869 1.9496
ITEM: ATOMS id type xs ys zs
1 1 .493236 .993161 .602125
2 1 .992009 .632914 .537296
3 1 .808586 .009818 .448085
4 1 .205924 .020024 .406157
5 1 .007569 .615713 .503625
6 1 .497064 .418313 .990220
7 1 .513487 .490527 .011671
ITEM: TIMESTEP
150
ITEM: NUMBER OF ATOMS
7
ITEM: BOX BOUNDS ss ss ss
-3.1498 3.1549
-2.5260 3.4802
-1.9915 1.9548
ITEM: ATOMS id type xs ys zs
1 1 .492265 .992081 .604147
2 1 .991284 .630970 .536855
3 1 .807298 .012047 .450668
4 1 .206870 .019561 .405989
5 1 .008871 .613577 .506611
6 1 .496938 .418632 .991978
7 1 .514387 .490448 .009275
ITEM: TIMESTEP
200
ITEM: NUMBER OF ATOMS
7
ITEM: BOX BOUNDS ss ss ss
-3.1484 3.1549
-2.5259 3.4830
-1.9980 1.9597
ITEM: ATOMS id type xs ys zs
1 1 .492051 .990995 .603504
2 1 .990830 .630214 .537302
3 1 .806604 .014610 .450411
4 1 .203677 .019667 .408840
5 1 .011298 .614441 .505910
6 1 .496708 .417039 .991165
7 1 .515093 .489203 .009735
ITEM: TIMESTEP
250
ITEM: NUMBER OF ATOMS
7
ITEM: BOX BOUNDS ss ss ss
-3.1410 3.1549
-2.5204 3.4890
-2.0002 1.9609
ITEM: ATOMS id type xs ys zs
1 1 .491059 .989846 .602107
2 1 .991675 .626275 .538195
3 1 .807846 .013922 .449993
4 1 .201732 .018438 .406277
5 1 .008792 .614332 .506418
6 1 .496572 .415752 .990185
7 1 .513048 .487833 .012624
ITEM: TIMESTEP
300
ITEM: NUMBER OF ATOMS
7
ITEM: BOX BOUNDS ss ss ss
-3.1310 3.1549
-2.4987 3.4834
-2.0015 1.9610
ITEM: ATOMS id type xs ys zs
1 1 .490298 .989918 .602082
2 1 .989880 .624898 .538149
3 1 .805655 .013901 .451881
4 1 .200210 .013937 .407302
5 1 .007809 .612954 .505477
6 1 .495349 .416746 .991266
7 1 .509422 .487844 .010194
ITEM: TIMESTEP
350
ITEM: NUMBER OF ATOMS
7
ITEM: BOX BOUNDS ss ss ss
-3.1202 3.1549
-2.4857 3.4797
-2.0011 1.9730
ITEM: ATOMS id type xs ys zs
1 1 .489202 .993085 .598317
2 1 .991178 .626030 .543304
3 1 .806691 .011297 .448898
4 1 .200415 .012495 .408370
5 1 .005460 .612259 .505683
6 1 .494340 .414579 .985724
7 1 .510527 .487855 .011489
ITEM: TIMESTEP
400
ITEM: NUMBER OF ATOMS
7
ITEM: BOX BOUNDS ss ss ss
-3.1245 3.1600
-2.4872 3.4796
-2.0026 1.9694
ITEM: ATOMS id type xs ys zs
1 1 .490296 .994289 .603495
2 1 .989608 .625246 .543506
3 1 .806556 .013430 .446475
4 1 .201427 .011166 .405476
5 1 .005335 .614348 .503392
6 1 .492259 .416774 .984740
7 1 .508944 .490857 .010386
ITEM: TIMESTEP
1
ITEM: NUMBER OF ATOMS
7
ITEM: BOX BOUNDS ss ss ss
-3.1120 3.1549
-2.4865 3.4680
-1.9885 1.9520
ITEM: ATOMS id type xs ys zs
1 1 .489677 .995099 .602078
2 1 .992852 .632008 .537026
3 1 .806623 .000834 .450189
4 1 .203906 .014182 .405463
5 1 .000716 .612730 .504562
6 1 .492128 .416862 .988614
7 1 .513016 .488633 .008759
ITEM: TIMESTEP
50
ITEM: NUMBER OF ATOMS
7
ITEM: BOX BOUNDS ss ss ss
-3.1355 3.1549
-2.5171 3.4681
-1.9885 1.9520
ITEM: ATOMS id type xs ys zs
1 1 .492658 .994918 .600762
2 1 .992753 .633444 .537596
3 1 .807460 .008706 .449483
4 1 .206194 .018618 .403641
5 1 .004562 .614541 .505753
6 1 .495189 .418835 .991688
7 1 .514968 .490519 .011061
ITEM: TIMESTEP
100
ITEM: NUMBER OF ATOMS
7
ITEM: BOX BOUNDS ss ss ss
-3.1475 3.1549
-2.5224 3.4775
-1.9897 1.9520
ITEM: ATOMS id type xs ys zs
1 1 .492439 .993592 .601988
2 1 .992497 .632161 .540748
3 1 .809290 .009522 .449327
4 1 .207962 .017787 .403707
5 1 .009417 .611312 .504132
6 1 .498198 .417478 .986076
7 1 .515659 .491000 .008581
ITEM: TIMESTEP
150
ITEM: NUMBER OF ATOMS
7
ITEM: BOX BOUNDS ss ss ss
-3.1441 3.1549
-2.5206 3.4789
-1.9929 1.9538
ITEM: ATOMS id type xs ys zs
1 1 .492319 .993354 .602001
2 1 .992251 .630750 .538856
3 1 .809324 .010758 .446761
4 1 .206034 .016927 .402155
5 1 .010711 .613762 .503121
6 1 .496621 .418009 .985414
7 1 .515431 .491200 .010368
ITEM: TIMESTEP
200
ITEM: NUMBER OF ATOMS
7
ITEM: BOX BOUNDS ss ss ss
-3.1416 3.1549
-2.5171 3.4787
-1.9906 1.9520
ITEM: ATOMS id type xs ys zs
1 1 .492198 .993225 .597340
2 1 .992398 .629010 .539028
3 1 .809369 .011364 .447167
4 1 .205643 .017263 .402216
5 1 .008204 .613725 .503486
6 1 .495144 .416721 .986901
7 1 .515606 .489582 .011379
ITEM: TIMESTEP
250
ITEM: NUMBER OF ATOMS
7
ITEM: BOX BOUNDS ss ss ss
-3.1361 3.1549
-2.5132 3.4904
-1.9979 1.9520
ITEM: ATOMS id type xs ys zs
1 1 .492660 .990779 .598004
2 1 .992485 .627775 .540970
3 1 .809505 .011470 .446614
4 1 .204301 .015902 .405796
5 1 .008363 .612370 .505133
6 1 .496295 .414836 .986245
7 1 .514892 .487525 .011840
ITEM: TIMESTEP
300
ITEM: NUMBER OF ATOMS
7
ITEM: BOX BOUNDS ss ss ss
-3.1279 3.1549
-2.5053 3.4831
-1.9943 1.9520
ITEM: ATOMS id type xs ys zs
1 1 .490388 .992476 .596925
2 1 .990610 .630110 .542076
3 1 .809039 .012382 .446768
4 1 .204680 .014322 .408463
5 1 .007675 .614028 .508217
6 1 .496031 .416418 .989355
7 1 .512782 .488953 .010390
ITEM: TIMESTEP
350
ITEM: NUMBER OF ATOMS
7
ITEM: BOX BOUNDS ss ss ss
-3.1259 3.1549
-2.5019 3.4916
-2.0006 1.9520
ITEM: ATOMS id type xs ys zs
1 1 .493551 .991193 .598372
2 1 .994829 .621709 .543289
3 1 .808614 .010357 .445700
4 1 .200769 .011891 .401101
5 1 .009225 .610295 .507856
6 1 .496067 .413428 .984796
7 1 .514928 .487187 .011663
ITEM: TIMESTEP
400
ITEM: NUMBER OF ATOMS
7
ITEM: BOX BOUNDS ss ss ss
-3.1239 3.1627
-2.4962 3.4860
-2.0048 1.9520
ITEM: ATOMS id type xs ys zs
1 1 .491201 .989721 .600455
2 1 .990584 .627003 .540257
3 1 .810932 .012523 .448444
4 1 .204116 .011731 .413095
5 1 .006481 .609609 .513671
6 1 .496417 .412226 .988969
7 1 .510501 .485800 .012192
ITEM: TIMESTEP
1
ITEM: NUMBER OF ATOMS
7
ITEM: BOX BOUNDS ss ss ss
-3.1120 3.1364
-2.4867 3.4605
-1.9903 1.9476
ITEM: ATOMS id type xs ys zs
1 1 .491136 .996330 .602952
2 1 .995794 .632800 .537826
3 1 .809012 .000875 .450995
4 1 .204508 .014227 .406196
5 1 .000727 .613527 .505351
6 1 .493600 .417390 .989697
7 1 .514535 .489294 .009211
ITEM: TIMESTEP
50
ITEM: NUMBER OF ATOMS
7
ITEM: BOX BOUNDS ss ss ss
-3.1407 3.1367
-2.5166 3.4659
-1.9903 1.9476
ITEM: ATOMS id type xs ys zs
1 1 .493048 .995473 .602193
2 1 .995502 .630883 .538517
3 1 .810494 .006881 .449804
4 1 .207833 .018633 .403426
5 1 .005614 .615008 .505376
6 1 .495392 .419633 .988255
7 1 .516984 .491681 .006359
ITEM: TIMESTEP
100
ITEM: NUMBER OF ATOMS
7
ITEM: BOX BOUNDS ss ss ss
-3.1460 3.1458
-2.5248 3.4731
-1.9903 1.9476
ITEM: ATOMS id type xs ys zs
1 1 .493466 .993480 .603903
2 1 .993655 .630364 .538146
3 1 .808869 .007982 .451290
4 1 .205915 .018788 .405105
5 1 .008413 .615710 .506704
6 1 .496140 .420081 .988514
7 1 .513390 .490173 .013051
ITEM: TIMESTEP
150
ITEM: NUMBER OF ATOMS
7
ITEM: BOX BOUNDS ss ss ss
-3.1465 3.1568
-2.5284 3.4846
-1.9910 1.9476
ITEM: ATOMS id type xs ys zs
1 1 .492073 .990817 .603136
2 1 .992389 .629803 .539401
3 1 .805020 .010432 .450673
4 1 .206052 .018944 .407924
5 1 .007763 .615402 .505563
6 1 .495550 .418815 .989022
7 1 .512883 .490589 .011734
ITEM: TIMESTEP
200
ITEM: NUMBER OF ATOMS
7
ITEM: BOX BOUNDS ss ss ss
-3.1404 3.1603
-2.5240 3.4862
-1.9961 1.9485
ITEM: ATOMS id type xs ys zs
1 1 .492518 .990227 .603614
2 1 .992089 .629224 .541584
3 1 .804953 .010089 .451015
4 1 .204616 .016167 .408724
5 1 .007406 .615682 .505988
6 1 .496663 .417385 .984938
7 1 .513397 .488077 .012300
ITEM: TIMESTEP
250
ITEM: NUMBER OF ATOMS
7
ITEM: BOX BOUNDS ss ss ss
-3.1413 3.1731
-2.5271 3.4962
-1.9960 1.9506
ITEM: ATOMS id type xs ys zs
1 1 .490716 .989001 .605676
2 1 .987966 .626628 .544924
3 1 .804278 .012938 .452548
4 1 .203810 .014784 .408573
5 1 .010049 .615074 .504831
6 1 .495208 .413731 .984442
7 1 .513037 .488905 .009344
ITEM: TIMESTEP
300
ITEM: NUMBER OF ATOMS
7
ITEM: BOX BOUNDS ss ss ss
-3.1418 3.1755
-2.5272 3.4939
-1.9961 1.9565
ITEM: ATOMS id type xs ys zs
1 1 .490074 .989144 .605472
2 1 .987789 .625722 .543677
3 1 .805345 .010888 .450129
4 1 .204462 .015409 .409379
5 1 .009505 .614401 .504236
6 1 .493727 .416484 .984413
7 1 .512279 .488363 .010648
ITEM: TIMESTEP
350
ITEM: NUMBER OF ATOMS
7
ITEM: BOX BOUNDS ss ss ss
-3.1387 3.1595
-2.5264 3.4977
-1.9966 1.9562
ITEM: ATOMS id type xs ys zs
1 1 .491919 .989009 .600877
2 1 .990538 .625159 .541955
3 1 .807381 .011453 .449009
4 1 .205117 .014728 .406533
5 1 .007951 .613668 .503745
6 1 .494958 .416015 .982721
7 1 .512051 .488985 .008047
ITEM: TIMESTEP
400
ITEM: NUMBER OF ATOMS
7
ITEM: BOX BOUNDS ss ss ss
-3.1405 3.1568
-2.5170 3.4957
-2.0042 1.9516
ITEM: ATOMS id type xs ys zs
1 1 .493240 .990622 .601908
2 1 .990472 .623625 .541255
3 1 .809183 .011106 .450529
4 1 .205949 .013342 .405966
5 1 .009075 .612727 .501826
6 1 .495776 .415664 .983326
7 1 .514989 .485960 .009231
ITEM: TIMESTEP
1
ITEM: NUMBER OF ATOMS
7
ITEM: BOX BOUNDS ss ss ss
-3.1117 3.1449
-2.4887 3.4640
-1.9890 1.9476
ITEM: ATOMS id type xs ys zs
1 1 .490433 .995749 .602800
2 1 .994454 .632567 .537659
3 1 .807884 .001217 .450721
4 1 .204183 .014538 .406018
5 1 .000693 .613307 .505173
6 1 .492898 .417358 .989698
7 1 .513835 .489169 .008922
ITEM: TIMESTEP
50
ITEM: NUMBER OF ATOMS
7
ITEM: BOX BOUNDS ss ss ss
-3.1356 3.1449
-2.5177 3.4712
-1.9890 1.9476
ITEM: ATOMS id type xs ys zs
1 1 .491944 .995034 .604103
2 1 .993246 .631141 .538683
3 1 .808131 .006534 .450464
4 1 .206250 .017854 .407381
5 1 .004810 .614325 .506074
6 1 .496404 .419787 .990201
7 1 .515453 .490587 .010279
ITEM: TIMESTEP
100
ITEM: NUMBER OF ATOMS
7
ITEM: BOX BOUNDS ss ss ss
-3.1429 3.1453
-2.5324 3.4787
-1.9890 1.9476
ITEM: ATOMS id type xs ys zs
1 1 .494383 .993138 .604557
2 1 .993804 .628230 .537676
3 1 .808341 .011020 .451408
4 1 .206604 .019923 .406675
5 1 .005916 .611917 .507357
6 1 .496605 .418879 .989490
7 1 .514908 .490286 .009273
ITEM: TIMESTEP
150
ITEM: NUMBER OF ATOMS
7
ITEM: BOX BOUNDS ss ss ss
-3.1417 3.1464
-2.5268 3.4821
-1.9898 1.9476
ITEM: ATOMS id type xs ys zs
1 1 .496190 .992814 .603844
2 1 .994063 .625139 .536960
3 1 .806819 .010940 .454017
4 1 .204965 .017525 .408920
5 1 .005226 .609856 .506439
6 1 .495794 .418771 .988156
7 1 .514964 .490220 .010291
ITEM: TIMESTEP
200
ITEM: NUMBER OF ATOMS
7
ITEM: BOX BOUNDS ss ss ss
-3.1419 3.1454
-2.5323 3.4901
-1.9890 1.9476
ITEM: ATOMS id type xs ys zs
1 1 .494229 .991887 .599601
2 1 .993640 .624470 .537447
3 1 .806833 .010332 .451924
4 1 .204791 .018309 .408327
5 1 .007306 .611697 .501872
6 1 .496418 .418850 .987974
7 1 .516394 .491221 .013360
ITEM: TIMESTEP
250
ITEM: NUMBER OF ATOMS
7
ITEM: BOX BOUNDS ss ss ss
-3.1418 3.1603
-2.5269 3.4932
-1.9890 1.9498
ITEM: ATOMS id type xs ys zs
1 1 .491713 .991495 .604638
2 1 .992156 .625366 .538223
3 1 .807436 .011700 .451464
4 1 .205239 .018734 .404722
5 1 .007140 .612014 .502994
6 1 .497021 .417720 .988823
7 1 .514785 .491334 .012251
ITEM: TIMESTEP
300
ITEM: NUMBER OF ATOMS
7
ITEM: BOX BOUNDS ss ss ss
-3.1426 3.1573
-2.5292 3.4979
-1.9890 1.9512
ITEM: ATOMS id type xs ys zs
1 1 .491300 .990556 .604255
2 1 .994189 .624573 .538690
3 1 .807627 .013352 .451260
4 1 .205697 .019200 .403971
5 1 .006227 .612931 .503423
6 1 .496159 .418375 .988721
7 1 .513177 .492075 .008665
ITEM: TIMESTEP
350
ITEM: NUMBER OF ATOMS
7
ITEM: BOX BOUNDS ss ss ss
-3.1491 3.1694
-2.5166 3.5167
-1.9890 1.9575
ITEM: ATOMS id type xs ys zs
1 1 .492531 .987234 .604463
2 1 .990908 .621533 .538117
3 1 .805751 .012624 .449124
4 1 .204755 .018330 .402107
5 1 .007078 .609527 .503927
6 1 .495335 .414789 .989031
7 1 .511949 .491782 .010419
ITEM: TIMESTEP
400
ITEM: NUMBER OF ATOMS
7
ITEM: BOX BOUNDS ss ss ss
-3.1487 3.1654
-2.5112 3.4951
-1.9993 1.9620
ITEM: ATOMS id type xs ys zs
1 1 .489932 .989861 .598931
2 1 .991219 .623165 .537828
3 1 .807244 .010766 .450282
4 1 .204214 .015368 .406766
5 1 .008899 .610137 .501745
6 1 .498142 .417473 .986207
7 1 .514906 .487315 .011266
ITEM: TIMESTEP
1
ITEM: NUMBER OF ATOMS
7
ITEM: BOX BOUNDS ss ss ss
-3.1258 3.1430
-2.4868 3.4729
-1.9687 1.9448
ITEM: ATOMS id type xs ys zs
1 1 .491735 .994272 .601198
2 1 .994749 .631522 .535677
3 1 .808585 .000869 .448213
4 1 .206057 .014191 .403190
5 1 .002920 .612252 .502989
6 1 .494190 .416519 .990340
7 1 .515072 .488291 .003783
ITEM: TIMESTEP
50
ITEM: NUMBER OF ATOMS
7
ITEM: BOX BOUNDS ss ss ss
-3.1364 3.1430
-2.5184 3.4729
-1.9834 1.9448
ITEM: ATOMS id type xs ys zs
1 1 .491875 .993802 .601278
2 1 .993660 .632595 .537449
3 1 .808837 .006417 .450507
4 1 .205512 .017772 .405712
5 1 .005339 .614096 .504187
6 1 .496215 .418935 .990329
7 1 .515315 .490048 .009479
ITEM: TIMESTEP
100
ITEM: NUMBER OF ATOMS
7
ITEM: BOX BOUNDS ss ss ss
-3.1453 3.1510
-2.5260 3.4729
-1.9851 1.9448
ITEM: ATOMS id type xs ys zs
1 1 .493370 .994172 .603239
2 1 .995469 .631841 .538363
3 1 .809372 .010842 .454045
4 1 .206318 .018219 .406354
5 1 .007627 .614173 .507877
6 1 .496120 .419443 .990302
7 1 .513198 .491727 .006562
ITEM: TIMESTEP
150
ITEM: NUMBER OF ATOMS
7
ITEM: BOX BOUNDS ss ss ss
-3.1419 3.1430
-2.5319 3.4869
-1.9931 1.9486
ITEM: ATOMS id type xs ys zs
1 1 .491179 .992585 .601168
2 1 .992091 .628297 .533854
3 1 .807661 .011343 .451192
4 1 .203893 .019359 .405859
5 1 .006366 .613680 .504526
6 1 .495610 .419264 .991421
7 1 .515804 .489667 .013004
ITEM: TIMESTEP
200
ITEM: NUMBER OF ATOMS
7
ITEM: BOX BOUNDS ss ss ss
-3.1503 3.1430
-2.5306 3.4900
-1.9881 1.9554
ITEM: ATOMS id type xs ys zs
1 1 .494438 .993805 .597691
2 1 .992910 .626649 .538487
3 1 .809125 .009568 .455376
4 1 .205686 .017806 .404941
5 1 .009135 .615086 .502404
6 1 .496515 .417521 .984741
7 1 .515540 .488894 .013434
ITEM: TIMESTEP
250
ITEM: NUMBER OF ATOMS
7
ITEM: BOX BOUNDS ss ss ss
-3.1368 3.1525
-2.5288 3.4909
-1.9822 1.9632
ITEM: ATOMS id type xs ys zs
1 1 .491972 .990052 .597016
2 1 .993143 .624778 .535502
3 1 .807907 .011378 .454589
4 1 .203650 .017553 .400031
5 1 .005684 .612735 .498822
6 1 .495999 .419116 .986012
7 1 .514103 .489111 .009761
ITEM: TIMESTEP
300
ITEM: NUMBER OF ATOMS
7
ITEM: BOX BOUNDS ss ss ss
-3.1406 3.1536
-2.5370 3.4908
-1.9774 1.9540
ITEM: ATOMS id type xs ys zs
1 1 .491694 .991000 .594461
2 1 .993766 .625077 .538045
3 1 .808550 .014324 .452875
4 1 .203543 .019386 .397931
5 1 .005803 .612789 .497738
6 1 .494549 .419577 .988349
7 1 .512860 .488520 .005244
ITEM: TIMESTEP
350
ITEM: NUMBER OF ATOMS
7
ITEM: BOX BOUNDS ss ss ss
-3.1408 3.1534
-2.5143 3.4924
-1.9888 1.9561
ITEM: ATOMS id type xs ys zs
1 1 .492881 .991006 .597722
2 1 .993078 .621388 .536088
3 1 .806440 .012048 .452892
4 1 .201768 .015589 .401328
5 1 .005756 .613490 .503500
6 1 .494224 .417918 .986834
7 1 .512597 .487489 .010209
ITEM: TIMESTEP
400
ITEM: NUMBER OF ATOMS
7
ITEM: BOX BOUNDS ss ss ss
-3.1487 3.1541
-2.5140 3.4958
-1.9899 1.9547
ITEM: ATOMS id type xs ys zs
1 1 .494124 .988276 .596343
2 1 .992402 .620535 .539180
3 1 .806963 .010716 .452438
4 1 .201852 .016181 .398642
5 1 .008314 .611958 .504627
6 1 .493371 .415270 .986742
7 1 .512537 .487593 .007588
ITEM: TIMESTEP
1
ITEM: NUMBER OF ATOMS
7
ITEM: BOX BOUNDS ss ss ss
-3.1282 3.1320
-2.4870 3.4645
-1.9818 1.9329
ITEM: ATOMS id type xs ys zs
1 1 .492830 .995626 .604280
2 1 .996490 .632414 .538835
3 1 .810063 .000954 .451440
4 1 .206711 .014254 .406449
5 1 .003352 .613122 .506145
6 1 .495250 .417147 .993416
7 1 .516110 .489011 .007098
ITEM: TIMESTEP
50
ITEM: NUMBER OF ATOMS
7
ITEM: BOX BOUNDS ss ss ss
-3.1387 3.1375
-2.5183 3.4696
-1.9862 1.9354
ITEM: ATOMS id type xs ys zs
1 1 .490711 .994826 .605086
2 1 .994590 .632833 .539006
3 1 .811740 .007868 .453353
4 1 .209266 .017839 .406076
5 1 .004919 .613321 .507270
6 1 .496343 .419801 .990741
7 1 .515480 .492464 .008625
ITEM: TIMESTEP
100
ITEM: NUMBER OF ATOMS
7
ITEM: BOX BOUNDS ss ss ss
-3.1498 3.1460
-2.5354 3.4743
-1.9890 1.9415
ITEM: ATOMS id type xs ys zs
1 1 .493081 .993784 .604467
2 1 .996081 .634620 .538068
3 1 .811279 .011360 .452129
4 1 .207631 .021242 .408126
5 1 .009572 .616468 .502888
6 1 .499490 .419998 .992599
7 1 .519326 .490137 .010995
ITEM: TIMESTEP
150
ITEM: NUMBER OF ATOMS
7
ITEM: BOX BOUNDS ss ss ss
-3.1568 3.1514
-2.5351 3.4840
-1.9860 1.9461
ITEM: ATOMS id type xs ys zs
1 1 .493278 .992973 .600693
2 1 .992321 .633015 .539502
3 1 .812121 .011832 .449982
4 1 .210013 .021850 .408297
5 1 .012088 .615221 .501878
6 1 .498526 .419838 .992763
7 1 .519398 .488263 .011113
ITEM: TIMESTEP
200
ITEM: NUMBER OF ATOMS
7
ITEM: BOX BOUNDS ss ss ss
-3.1479 3.1575
-2.5250 3.4850
-1.9905 1.9459
ITEM: ATOMS id type xs ys zs
1 1 .491781 .994833 .603526
2 1 .991233 .631401 .538531
3 1 .812183 .011591 .450684
4 1 .209400 .019796 .408923
5 1 .011160 .613737 .500368
6 1 .498103 .419684 .990408
7 1 .518075 .487408 .009196
ITEM: TIMESTEP
250
ITEM: NUMBER OF ATOMS
7
ITEM: BOX BOUNDS ss ss ss
-3.1395 3.1656
-2.5254 3.4901
-2.0035 1.9463
ITEM: ATOMS id type xs ys zs
1 1 .494348 .990946 .608794
2 1 .991768 .631200 .542664
3 1 .809060 .013313 .458530
4 1 .205598 .018779 .410408
5 1 .008961 .612596 .512930
6 1 .498448 .416874 .994800
7 1 .516265 .489863 .012667
ITEM: TIMESTEP
300
ITEM: NUMBER OF ATOMS
7
ITEM: BOX BOUNDS ss ss ss
-3.1315 3.1624
-2.5276 3.4769
-2.0018 1.9499
ITEM: ATOMS id type xs ys zs
1 1 .493665 .992397 .606879
2 1 .993007 .631488 .540928
3 1 .809117 .013404 .458322
4 1 .204841 .017477 .410354
5 1 .008479 .614232 .512406
6 1 .498170 .417674 .992334
7 1 .515889 .490679 .012336
ITEM: TIMESTEP
350
ITEM: NUMBER OF ATOMS
7
ITEM: BOX BOUNDS ss ss ss
-3.1309 3.1663
-2.5150 3.4824
-2.0140 1.9555
ITEM: ATOMS id type xs ys zs
1 1 .493250 .990816 .605375
2 1 .991084 .629950 .542864
3 1 .808748 .012246 .459872
4 1 .204621 .017701 .413068
5 1 .009173 .613987 .511055
6 1 .496967 .414894 .992962
7 1 .515968 .489643 .012604
ITEM: TIMESTEP
400
ITEM: NUMBER OF ATOMS
7
ITEM: BOX BOUNDS ss ss ss
-3.1314 3.1609
-2.5255 3.4855
-2.0161 1.9619
ITEM: ATOMS id type xs ys zs
1 1 .493559 .991055 .601831
2 1 .993236 .629643 .541440
3 1 .809563 .013499 .458954
4 1 .204926 .018831 .410791
5 1 .009175 .612870 .510592
6 1 .497948 .416814 .988712
7 1 .514522 .490218 .013445
ITEM: TIMESTEP
1
ITEM: NUMBER OF ATOMS
7
ITEM: BOX BOUNDS ss ss ss
-3.1282 3.1469
-2.4900 3.4653
-2.0046 1.9403
ITEM: ATOMS id type xs ys zs
1 1 .491638 .995549 .605467
2 1 .994122 .632514 .540468
3 1 .808144 .001440 .453770
4 1 .206242 .014745 .409085
5 1 .003313 .613242 .508096
6 1 .494080 .417370 .991541
7 1 .514920 .489185 .012853
ITEM: TIMESTEP
50
ITEM: NUMBER OF ATOMS
7
ITEM: BOX BOUNDS ss ss ss
-3.1379 3.1469
-2.5196 3.4653
-2.0046 1.9403
ITEM: ATOMS id type xs ys zs
1 1 .491919 .995421 .603129
2 1 .994599 .632931 .540674
3 1 .806493 .006815 .452444
4 1 .205287 .020385 .410752
5 1 .005284 .616012 .508379
6 1 .496353 .421725 .992720
7 1 .514090 .491378 .016238
ITEM: TIMESTEP
100
ITEM: NUMBER OF ATOMS
7
ITEM: BOX BOUNDS ss ss ss
-3.1496 3.1501
-2.5283 3.4790
-2.0046 1.9409
ITEM: ATOMS id type xs ys zs
1 1 .494042 .991458 .605035
2 1 .990519 .632587 .543647
3 1 .810358 .010581 .450940
4 1 .207562 .019450 .405616
5 1 .006115 .614550 .506538
6 1 .495562 .420019 .991080
7 1 .517720 .493134 .008308
ITEM: TIMESTEP
150
ITEM: NUMBER OF ATOMS
7
ITEM: BOX BOUNDS ss ss ss
-3.1558 3.1546
-2.5327 3.4824
-2.0046 1.9492
ITEM: ATOMS id type xs ys zs
1 1 .491574 .992622 .604677
2 1 .991612 .631484 .539150
3 1 .810272 .010220 .456847
4 1 .209806 .019872 .406725
5 1 .008952 .611649 .506575
6 1 .499466 .418470 .987560
7 1 .516909 .491273 .016298
ITEM: TIMESTEP
200
ITEM: NUMBER OF ATOMS
7
ITEM: BOX BOUNDS ss ss ss
-3.1563 3.1481
-2.5380 3.4856
-2.0046 1.9450
ITEM: ATOMS id type xs ys zs
1 1 .493064 .993538 .601949
2 1 .990614 .630397 .535786
3 1 .809919 .011387 .457118
4 1 .206163 .022528 .413714
5 1 .007494 .614908 .504158
6 1 .495457 .419381 .989469
7 1 .514012 .491761 .014295
ITEM: TIMESTEP
250
ITEM: NUMBER OF ATOMS
7
ITEM: BOX BOUNDS ss ss ss
-3.1578 3.1565
-2.5332 3.4865
-2.0086 1.9534
ITEM: ATOMS id type xs ys zs
1 1 .492447 .992245 .602274
2 1 .991179 .630422 .535267
3 1 .809968 .011340 .454382
4 1 .207297 .021521 .402330
5 1 .010076 .613319 .502168
6 1 .496344 .419423 .985024
7 1 .516632 .492670 .011440
ITEM: TIMESTEP
300
ITEM: NUMBER OF ATOMS
7
ITEM: BOX BOUNDS ss ss ss
-3.1403 3.1503
-2.5382 3.4901
-2.0078 1.9680
ITEM: ATOMS id type xs ys zs
1 1 .488627 .990219 .602912
2 1 .993441 .633450 .541333
3 1 .807064 .016448 .451591
4 1 .206695 .016700 .405989
5 1 .009086 .612425 .503503
6 1 .497940 .420592 .979914
7 1 .517575 .489055 .014198
ITEM: TIMESTEP
350
ITEM: NUMBER OF ATOMS
7
ITEM: BOX BOUNDS ss ss ss
-3.1375 3.1534
-2.5343 3.4902
-2.0168 1.9591
ITEM: ATOMS id type xs ys zs
1 1 .488700 .988877 .605496