ITEM: TIMESTEP
1
ITEM: NUMBER OF ATOMS
7
ITEM: BOX BOUNDS ss ss ss
-2.9687 3.1768
-2.4911 3.4777
-1.9321 1.9573
ITEM: ATOMS id type xs ys zs
1 1 .502535 .999325 .567809
2 1 .999286 .613662 .526075
3 1 .813433 .000700 .479657
4 1 .180417 .021159 .452613
5 1 .000577 .637884 .517710
6 1 .497662 .428998 .999141
7 1 .496556 .467374 .001028
ITEM: TIMESTEP
50
ITEM: NUMBER OF ATOMS
7
ITEM: BOX BOUNDS ss ss ss
-2.9942 3.1992
-2.5165 3.4998
-1.9554 1.9792
ITEM: ATOMS id type xs ys zs
1 1 .502854 .994297 .566631
2 1 .996121 .613885 .523707
3 1 .810000 .005943 .479901
4 1 .182902 .024271 .453037
5 1 .003944 .636078 .517360
6 1 .496855 .430023 .994731
7 1 .498207 .468458 .007155
ITEM: TIMESTEP
100
ITEM: NUMBER OF ATOMS
7
ITEM: BOX BOUNDS ss ss ss
-3.0031 3.2042
-2.5243 3.5083
-1.9636 1.9853
ITEM: ATOMS id type xs ys zs
1 1 .504581 .991336 .563765
2 1 .994880 .615185 .526459
3 1 .807364 .005783 .480298
4 1 .185081 .024718 .458129
5 1 .006605 .633782 .520143
6 1 .498530 .429309 .993756
7 1 .501611 .467607 .012567
ITEM: TIMESTEP
150
ITEM: NUMBER OF ATOMS
7
ITEM: BOX BOUNDS ss ss ss
-3.0055 3.2024
-2.5276 3.5099
-1.9657 1.9962
ITEM: ATOMS id type xs ys zs
1 1 .506222 .991090 .561650
2 1 .997301 .615771 .524783
3 1 .806770 .008207 .479715
4 1 .185919 .024982 .454403
5 1 .007098 .635308 .516644
6 1 .498990 .429207 .993755
7 1 .502633 .471031 .013050
ITEM: TIMESTEP
200
ITEM: NUMBER OF ATOMS
7
ITEM: BOX BOUNDS ss ss ss
-3.0125 3.2088
-2.5243 3.5166
-1.9625 2.0012
ITEM: ATOMS id type xs ys zs
1 1 .505153 .990753 .561904
2 1 .996458 .613055 .522093
3 1 .805947 .007651 .477735
4 1 .186155 .023724 .457579
5 1 .007427 .631746 .518071
6 1 .497857 .429065 .991970
7 1 .503854 .468665 .015041
ITEM: TIMESTEP
250
ITEM: NUMBER OF ATOMS
7
ITEM: BOX BOUNDS ss ss ss
-3.0120 3.2167
-2.5272 3.5185
-1.9545 2.0133
ITEM: ATOMS id type xs ys zs
1 1 .504739 .989890 .559065
2 1 .994080 .611533 .519565
3 1 .802711 .009575 .475187
4 1 .185420 .026133 .454135
5 1 .005777 .631285 .512834
6 1 .498797 .429515 .994649
7 1 .502117 .470172 .012507
ITEM: TIMESTEP
300
ITEM: NUMBER OF ATOMS
7
ITEM: BOX BOUNDS ss ss ss
-3.0148 3.2171
-2.5273 3.5280
-1.9572 2.0222
ITEM: ATOMS id type xs ys zs
1 1 .506071 .988847 .557801
2 1 .995575 .612254 .518208
3 1 .801074 .011444 .474735
4 1 .186990 .025306 .453886
5 1 .007637 .628947 .511711
6 1 .497502 .430272 .996701
7 1 .501388 .470895 .013331
ITEM: TIMESTEP
350
ITEM: NUMBER OF ATOMS
7
ITEM: BOX BOUNDS ss ss ss
-3.0117 3.2233
-2.5176 3.5138
-1.9520 2.0328
ITEM: ATOMS id type xs ys zs
1 1 .505830 .990800 .554934
2 1 .995456 .611111 .514878
3 1 .799528 .009607 .469712
4 1 .185282 .023723 .449230
5 1 .006838 .630320 .509106
6 1 .496300 .431580 .988296
7 1 .500686 .470976 .008989
ITEM: TIMESTEP
400
ITEM: NUMBER OF ATOMS
7
ITEM: BOX BOUNDS ss ss ss
-3.0108 3.2375
-2.5261 3.5077
-1.9591 2.0348
ITEM: ATOMS id type xs ys zs
1 1 .504322 .991594 .555824
2 1 .992949 .613484 .516959
3 1 .798592 .012211 .470643
4 1 .184445 .023920 .454046
5 1 .005820 .630824 .509138
6 1 .494680 .431597 .989361
7 1 .500262 .471850 .013139
ITEM: TIMESTEP
1
ITEM: NUMBER OF ATOMS
7
ITEM: BOX BOUNDS ss ss ss
-3.0020 3.2204
-2.4971 3.4848
-1.9410 2.0232
ITEM: ATOMS id type xs ys zs
1 1 .501671 .998141 .559337
2 1 .992269 .613342 .518415
3 1 .808732 .001714 .472851
4 1 .183538 .022135 .446291
5 1 .005927 .637517 .510184
6 1 .496867 .429057 .982504
7 1 .495782 .467351 .003260
ITEM: TIMESTEP
50
ITEM: NUMBER OF ATOMS
7
ITEM: BOX BOUNDS ss ss ss
-3.0020 3.2204
-2.5141 3.5029
-1.9580 2.0232
ITEM: ATOMS id type xs ys zs
1 1 .505433 .993085 .560624
2 1 .992712 .613094 .517671
3 1 .806012 .008190 .474391
4 1 .183041 .025847 .445808
5 1 .004768 .638573 .512471
6 1 .495000 .428451 .980470
7 1 .496768 .468419 .006566
ITEM: TIMESTEP
100
ITEM: NUMBER OF ATOMS
7
ITEM: BOX BOUNDS ss ss ss
-3.0029 3.2204
-2.5206 3.5112
-1.9632 2.0232
ITEM: ATOMS id type xs ys zs
1 1 .503787 .992001 .562230
2 1 .992276 .612097 .518995
3 1 .808043 .008593 .475667
4 1 .183372 .025118 .450256
5 1 .004423 .634364 .513771
6 1 .496774 .428219 .985918
7 1 .499306 .469206 .013245
ITEM: TIMESTEP
150
ITEM: NUMBER OF ATOMS
7
ITEM: BOX BOUNDS ss ss ss
-3.0057 3.2204
-2.5191 3.5166
-1.9681 2.0232
ITEM: ATOMS id type xs ys zs
1 1 .504829 .992010 .559823
2 1 .993363 .612337 .519828
3 1 .805503 .009778 .477223
4 1 .185572 .025476 .449256
5 1 .005607 .632148 .516841
6 1 .498938 .429348 .988263
7 1 .502908 .469440 .014106
ITEM: TIMESTEP
200
ITEM: NUMBER OF ATOMS
7
ITEM: BOX BOUNDS ss ss ss
-3.0102 3.2204
-2.5200 3.5138
-1.9782 2.0232
ITEM: ATOMS id type xs ys zs
1 1 .505667 .992759 .561807
2 1 .995441 .612426 .520504
3 1 .805297 .012162 .478116
4 1 .187029 .026163 .453674
5 1 .006337 .633282 .518766
6 1 .496568 .430779 .989373
7 1 .503336 .469861 .018338
ITEM: TIMESTEP
250
ITEM: NUMBER OF ATOMS
7
ITEM: BOX BOUNDS ss ss ss
-3.0163 3.2204
-2.5104 3.5083
-1.9801 2.0232
ITEM: ATOMS id type xs ys zs
1 1 .507697 .993633 .560898
2 1 .995467 .613311 .520750
3 1 .803651 .009148 .476576
4 1 .184387 .023932 .451109
5 1 .005523 .633127 .521611
6 1 .497223 .430761 .987543
7 1 .501928 .471472 .020324
ITEM: TIMESTEP
300
ITEM: NUMBER OF ATOMS
7
ITEM: BOX BOUNDS ss ss ss
-3.0151 3.2253
-2.5179 3.5133
-1.9644 2.0232
ITEM: ATOMS id type xs ys zs
1 1 .507274 .992470 .557763
2 1 .994570 .613515 .519700
3 1 .802049 .010423 .472393
4 1 .184054 .025648 .449242
5 1 .005704 .632163 .517766
6 1 .495678 .430405 .988068
7 1 .501511 .472517 .015975
ITEM: TIMESTEP
350
ITEM: NUMBER OF ATOMS
7
ITEM: BOX BOUNDS ss ss ss
-3.0214 3.2311
-2.5133 3.5119
-1.9549 2.0232
ITEM: ATOMS id type xs ys zs
1 1 .507211 .992864 .554745
2 1 .995395 .613305 .516279
3 1 .801340 .011847 .468841
4 1 .186235 .023858 .450990
5 1 .006968 .631853 .518827
6 1 .497538 .430701 .986088
7 1 .499724 .472042 .012011
ITEM: TIMESTEP
400
ITEM: NUMBER OF ATOMS
7
ITEM: BOX BOUNDS ss ss ss
-3.0245 3.2418
-2.5114 3.5175
-1.9454 2.0255
ITEM: ATOMS id type xs ys zs
1 1 .505792 .993382 .557841
2 1 .992079 .613583 .513762
3 1 .799249 .011834 .463232
4 1 .186362 .023994 .449107
5 1 .006890 .631278 .513511
6 1 .495727 .431781 .985953
7 1 .500539 .475067 .007914
ITEM: TIMESTEP
1
ITEM: NUMBER OF ATOMS
7
ITEM: BOX BOUNDS ss ss ss
-3.0020 3.2363
-2.4971 3.5038
-1.9410 2.0232
ITEM: ATOMS id type xs ys zs
1 1 .500392 .994964 .559307
2 1 .989765 .611375 .518425
3 1 .806675 .001719 .472830
4 1 .183068 .022070 .446317
5 1 .005914 .635476 .510155
6 1 .495613 .427687 .982541
7 1 .494535 .465893 .003283
ITEM: TIMESTEP
50
ITEM: NUMBER OF ATOMS
7
ITEM: BOX BOUNDS ss ss ss
-3.0020 3.2363
-2.5162 3.5038
-1.9556 2.0232
ITEM: ATOMS id type xs ys zs
1 1 .501277 .993800 .560185
2 1 .990551 .612636 .517903
3 1 .805885 .007176 .474838
4 1 .183808 .024676 .447169
5 1 .005973 .635871 .512894
6 1 .496060 .429640 .983642
7 1 .495946 .467430 .007899
ITEM: TIMESTEP
100
ITEM: NUMBER OF ATOMS
7
ITEM: BOX BOUNDS ss ss ss
-3.0041 3.2363
-2.5232 3.5131
-1.9609 2.0232
ITEM: ATOMS id type xs ys zs
1 1 .504116 .991222 .559429
2 1 .991930 .612564 .517762
3 1 .803802 .009123 .475698
4 1 .186698 .024978 .449893
5 1 .006081 .636314 .512256
6 1 .496203 .430980 .985240
7 1 .497842 .467955 .008891
ITEM: TIMESTEP
150
ITEM: NUMBER OF ATOMS
7
ITEM: BOX BOUNDS ss ss ss
-3.0083 3.2363
-2.5285 3.5155
-1.9683 2.0232
ITEM: ATOMS id type xs ys zs
1 1 .505510 .991108 .557011
2 1 .992559 .613370 .517924
3 1 .804059 .010271 .475007
4 1 .187116 .025709 .451674
5 1 .007174 .635302 .511641
6 1 .496333 .432001 .988384
7 1 .498236 .470783 .010319
ITEM: TIMESTEP
200
ITEM: NUMBER OF ATOMS
7
ITEM: BOX BOUNDS ss ss ss
-3.0129 3.2363
-2.5265 3.5135
-1.9562 2.0232
ITEM: ATOMS id type xs ys zs
1 1 .506051 .992646 .556516
2 1 .991960 .612000 .516284
3 1 .801934 .010096 .472648
4 1 .186920 .024910 .451128
5 1 .008447 .633898 .511266
6 1 .496879 .432241 .986968
7 1 .499472 .469708 .009431
ITEM: TIMESTEP
250
ITEM: NUMBER OF ATOMS
7
ITEM: BOX BOUNDS ss ss ss
-3.0132 3.2363
-2.5131 3.5101
-1.9660 2.0232
ITEM: ATOMS id type xs ys zs
1 1 .506089 .992561 .557839
2 1 .993532 .611223 .514656
3 1 .802274 .007466 .470152
4 1 .186191 .022161 .453329
5 1 .007333 .631892 .515480
6 1 .497131 .431436 .985933
7 1 .498578 .468745 .011634
ITEM: TIMESTEP
300
ITEM: NUMBER OF ATOMS
7
ITEM: BOX BOUNDS ss ss ss
-3.0168 3.2363
-2.5174 3.5092
-1.9743 2.0232
ITEM: ATOMS id type xs ys zs
1 1 .507985 .991228 .560236
2 1 .994359 .611534 .521796
3 1 .802297 .007913 .467911
4 1 .187220 .023462 .452092
5 1 .008340 .630170 .514105
6 1 .496976 .430503 .987840
7 1 .500112 .471546 .012847
ITEM: TIMESTEP
350
ITEM: NUMBER OF ATOMS
7
ITEM: BOX BOUNDS ss ss ss
-3.0162 3.2363
-2.5088 3.5145
-1.9693 2.0232
ITEM: ATOMS id type xs ys zs
1 1 .507224 .990427 .557780
2 1 .994371 .610692 .521704
3 1 .802061 .007835 .468970
4 1 .187006 .022195 .452442
5 1 .007774 .628688 .514576
6 1 .496544 .429855 .987142
7 1 .501051 .469865 .012548
ITEM: TIMESTEP
400
ITEM: NUMBER OF ATOMS
7
ITEM: BOX BOUNDS ss ss ss
-3.0177 3.2363
-2.5119 3.5125
-1.9642 2.0232
ITEM: ATOMS id type xs ys zs
1 1 .508042 .988642 .556152
2 1 .995686 .610355 .519380
3 1 .801910 .007739 .466891
4 1 .188135 .022462 .452034
5 1 .006893 .628389 .513164
6 1 .496622 .429967 .987116
7 1 .502655 .470334 .013084
ITEM: TIMESTEP
1
ITEM: NUMBER OF ATOMS
7
ITEM: BOX BOUNDS ss ss ss
-3.0020 3.2363
-2.4971 3.5038
-1.9410 2.0232
ITEM: ATOMS id type xs ys zs
1 1 .500391 .994977 .559347
2 1 .989751 .611394 .518389
3 1 .806674 .001721 .472847
4 1 .183070 .022069 .446289
5 1 .005918 .635467 .510203
6 1 .495594 .427703 .982506
7 1 .494519 .465889 .003264
ITEM: TIMESTEP
50
ITEM: NUMBER OF ATOMS
7
ITEM: BOX BOUNDS ss ss ss
-3.0020 3.2363
-2.5154 3.5038
-1.9608 2.0232
ITEM: ATOMS id type xs ys zs
1 1 .501148 .993446 .560115
2 1 .990499 .616261 .521796
3 1 .806643 .006686 .473033
4 1 .183436 .024362 .451009
5 1 .004550 .636293 .514227
6 1 .494030 .429957 .984635
7 1 .496353 .466839 .011742
ITEM: TIMESTEP
100
ITEM: NUMBER OF ATOMS
7
ITEM: BOX BOUNDS ss ss ss
-3.0038 3.2363
-2.5248 3.5139
-1.9615 2.0232
ITEM: ATOMS id type xs ys zs
1 1 .501375 .993632 .559144
2 1 .990357 .613382 .518572
3 1 .804632 .009616 .474829
4 1 .181968 .025100 .452270
5 1 .003952 .635819 .515608
6 1 .493822 .430838 .982087
7 1 .496386 .467847 .011228
ITEM: TIMESTEP
150
ITEM: NUMBER OF ATOMS
7
ITEM: BOX BOUNDS ss ss ss
-3.0130 3.2363
-2.5281 3.5209
-1.9654 2.0232
ITEM: ATOMS id type xs ys zs
1 1 .502361 .991199 .558843
2 1 .990119 .609213 .520108
3 1 .802563 .004789 .472816
4 1 .184776 .023754 .452213
5 1 .006842 .632299 .514724
6 1 .493685 .427440 .984009
7 1 .498598 .468943 .010218
ITEM: TIMESTEP
200
ITEM: NUMBER OF ATOMS
7
ITEM: BOX BOUNDS ss ss ss
-3.0200 3.2363
-2.5325 3.5149
-1.9669 2.0232
ITEM: ATOMS id type xs ys zs
1 1 .503512 .992952 .558031
2 1 .990784 .614971 .518328
3 1 .804053 .012139 .473918
4 1 .184529 .024933 .452875
5 1 .007326 .634907 .514888
6 1 .495119 .431991 .982922
7 1 .497798 .469065 .013473
ITEM: TIMESTEP
250
ITEM: NUMBER OF ATOMS
7
ITEM: BOX BOUNDS ss ss ss
-3.0295 3.2363
-2.5258 3.5169
-1.9696 2.0232
ITEM: ATOMS id type xs ys zs
1 1 .504744 .990975 .558648
2 1 .991882 .616050 .521026
3 1 .804108 .011154 .475603
4 1 .189710 .024289 .456326
5 1 .007112 .633160 .521623
6 1 .496799 .431029 .985619
7 1 .499433 .469530 .016352
ITEM: TIMESTEP
300
ITEM: NUMBER OF ATOMS
7
ITEM: BOX BOUNDS ss ss ss
-3.0314 3.2363
-2.5296 3.5188
-1.9654 2.0232
ITEM: ATOMS id type xs ys zs
1 1 .506210 .991297 .562648
2 1 .992563 .611648 .517732
3 1 .802700 .010668 .468031
4 1 .187011 .023532 .451996
5 1 .008398 .633416 .513255
6 1 .496989 .430108 .982972
7 1 .500844 .468535 .011994
ITEM: TIMESTEP
350
ITEM: NUMBER OF ATOMS
7
ITEM: BOX BOUNDS ss ss ss
-3.0328 3.2363
-2.5202 3.5156
-1.9738 2.0232
ITEM: ATOMS id type xs ys zs
1 1 .506268 .991608 .558456
2 1 .992966 .614632 .519325
3 1 .802278 .012240 .472892
4 1 .186227 .024378 .450834
5 1 .009186 .632586 .513014
6 1 .497074 .431629 .981735
7 1 .501830 .471851 .014938
ITEM: TIMESTEP
400
ITEM: NUMBER OF ATOMS
7
ITEM: BOX BOUNDS ss ss ss
-3.0349 3.2394
-2.5149 3.5221
-1.9677 2.0171
ITEM: ATOMS id type xs ys zs
1 1 .504343 .991527 .564976
2 1 .992622 .611635 .521970
3 1 .800685 .007565 .466706
4 1 .187044 .020948 .453708
5 1 .010271 .631062 .508573
6 1 .496481 .429082 .985283
7 1 .501583 .469463 .012834
ITEM: TIMESTEP
1
ITEM: NUMBER OF ATOMS
7
ITEM: BOX BOUNDS ss ss ss
-3.0006 3.2103
-2.4911 3.4935
-1.9434 2.0095
ITEM: ATOMS id type xs ys zs
1 1 .502376 .996672 .561558
2 1 .993910 .612062 .520521
3 1 .810014 .000723 .474797
4 1 .183650 .021128 .448190
5 1 .005686 .636185 .512252
6 1 .497566 .427851 .985949
7 1 .496473 .466162 .003867
ITEM: TIMESTEP
50
ITEM: NUMBER OF ATOMS
7
ITEM: BOX BOUNDS ss ss ss
-3.0006 3.2103
-2.5203 3.5058
-1.9554 2.0095
ITEM: ATOMS id type xs ys zs
1 1 .503249 .993337 .563072
2 1 .995457 .611859 .522206
3 1 .808978 .006481 .476101
4 1 .184180 .024715 .449695
5 1 .004780 .636502 .513904
6 1 .498416 .431559 .987262
7 1 .497383 .470449 .006405
ITEM: TIMESTEP
100
ITEM: NUMBER OF ATOMS
7
ITEM: BOX BOUNDS ss ss ss
-3.0052 3.2103
-2.5254 3.5125
-1.9655 2.0095
ITEM: ATOMS id type xs ys zs
1 1 .505009 .993845 .563254
2 1 .993867 .613939 .521725
3 1 .809037 .007352 .476272
4 1 .186104 .026182 .451664
5 1 .004610 .637328 .513531
6 1 .495435 .431983 .985396
7 1 .500353 .469393 .010004
ITEM: TIMESTEP
150
ITEM: NUMBER OF ATOMS
7
ITEM: BOX BOUNDS ss ss ss
-3.0204 3.2103
-2.5298 3.5156
-1.9707 2.0095
ITEM: ATOMS id type xs ys zs
1 1 .505436 .994762 .562689
2 1 .997014 .614625 .521957
3 1 .807962 .009383 .476461
4 1 .190703 .024785 .450011
5 1 .008270 .635494 .508483
6 1 .495396 .430418 .983944
7 1 .502178 .468713 .014647
ITEM: TIMESTEP
200
ITEM: NUMBER OF ATOMS
7
ITEM: BOX BOUNDS ss ss ss
-3.0282 3.2218
-2.5300 3.5198
-1.9611 2.0095
ITEM: ATOMS id type xs ys zs
1 1 .506324 .992572 .560257
2 1 .994454 .613243 .518174
3 1 .806006 .008107 .475883
4 1 .192158 .022724 .448435
5 1 .007891 .633719 .506915
6 1 .495824 .431305 .987568
7 1 .501405 .468962 .011022
ITEM: TIMESTEP
250
ITEM: NUMBER OF ATOMS
7
ITEM: BOX BOUNDS ss ss ss
-3.0280 3.2204
-2.5332 3.5209
-1.9629 2.0095
ITEM: ATOMS id type xs ys zs
1 1 .506109 .990666 .563195
2 1 .993710 .614209 .514457
3 1 .806649 .010799 .471747
4 1 .186062 .029060 .451250
5 1 .006708 .636797 .510351
6 1 .496463 .431522 .989363
7 1 .501376 .472097 .014605
ITEM: TIMESTEP
300
ITEM: NUMBER OF ATOMS
7
ITEM: BOX BOUNDS ss ss ss
-3.0271 3.2238
-2.5338 3.5302
-1.9561 2.0095
ITEM: ATOMS id type xs ys zs
1 1 .506511 .988721 .561576
2 1 .993206 .611872 .516178
3 1 .805811 .009426 .471927
4 1 .188311 .025647 .452648
5 1 .005861 .632918 .507805
6 1 .497215 .431628 .990059
7 1 .501892 .469805 .012587
ITEM: TIMESTEP
350
ITEM: NUMBER OF ATOMS
7
ITEM: BOX BOUNDS ss ss ss
-3.0315 3.2225
-2.5192 3.5225
-1.9570 2.0095
ITEM: ATOMS id type xs ys zs
1 1 .505327 .988161 .562582
2 1 .994676 .608500 .513574
3 1 .804317 .008885 .472265
4 1 .186476 .026697 .456440
5 1 .006404 .633474 .512009
6 1 .497133 .430953 .988034
7 1 .500355 .470426 .011380
ITEM: TIMESTEP
400
ITEM: NUMBER OF ATOMS
7
ITEM: BOX BOUNDS ss ss ss
-3.0414 3.2271
-2.5176 3.5264
-1.9653 2.0109
ITEM: ATOMS id type xs ys zs
1 1 .507203 .987976 .558948
2 1 .993515 .612334 .515160
3 1 .806058 .010475 .472430
4 1 .192581 .027153 .460325
5 1 .008821 .631163 .512571
6 1 .499806 .432280 .989222
7 1 .501474 .472301 .009410
ITEM: TIMESTEP
1
ITEM: NUMBER OF ATOMS
7
ITEM: BOX BOUNDS ss ss ss
-3.0178 3.2088
-2.4991 3.5058
-1.9472 1.9905
ITEM: ATOMS id type xs ys zs
1 1 .503867 .994649 .564671
2 1 .994193 .611306 .523504
3 1 .810694 .002062 .477630
4 1 .185934 .022368 .450902
5 1 .008474 .635368 .515195
6 1 .499059 .427749 .990728
7 1 .498051 .465910 .004840
ITEM: TIMESTEP
50
ITEM: NUMBER OF ATOMS
7
ITEM: BOX BOUNDS ss ss ss
-3.0178 3.2088
-2.5222 3.5058
-1.9581 1.9905
ITEM: ATOMS id type xs ys zs
1 1 .504160 .995141 .565556
2 1 .994530 .613364 .525518
3 1 .810158 .007885 .478150
4 1 .185870 .023633 .452885
5 1 .008016 .635791 .517243
6 1 .499045 .429266 .991061
7 1 .498833 .468656 .007715
ITEM: TIMESTEP
100
ITEM: NUMBER OF ATOMS
7
ITEM: BOX BOUNDS ss ss ss
-3.0178 3.2088
-2.5209 3.5144
-1.9732 1.9905
ITEM: ATOMS id type xs ys zs
1 1 .503247 .992360 .565320
2 1 .995207 .612236 .525528
3 1 .809757 .006347 .481244
4 1 .185614 .026440 .457572
5 1 .007041 .633995 .515976
6 1 .497077 .427590 .992411
7 1 .502713 .467226 .014013
ITEM: TIMESTEP
150
ITEM: NUMBER OF ATOMS
7
ITEM: BOX BOUNDS ss ss ss
-3.0178 3.2088
-2.5249 3.5154
-1.9702 1.9939
ITEM: ATOMS id type xs ys zs
1 1 .505726 .990706 .568792
2 1 .995605 .611709 .526505
3 1 .808835 .010632 .480515
4 1 .188206 .024966 .452267
5 1 .006041 .633937 .522079
6 1 .496215 .429192 .991193
7 1 .503994 .467241 .012349
ITEM: TIMESTEP
200
ITEM: NUMBER OF ATOMS
7
ITEM: BOX BOUNDS ss ss ss
-3.0178 3.2088
-2.5281 3.5112
-1.9663 1.9924
ITEM: ATOMS id type xs ys zs
1 1 .504096 .991351 .566223
2 1 .995163 .612737 .522783
3 1 .807787 .007597 .480258
4 1 .188236 .024010 .454767
5 1 .006323 .633238 .517556
6 1 .496072 .429207 .991696
7 1 .504480 .469235 .014731
ITEM: TIMESTEP
250
ITEM: NUMBER OF ATOMS
7
ITEM: BOX BOUNDS ss ss ss
-3.0329 3.2156
-2.5269 3.5223
-1.9612 1.9968
ITEM: ATOMS id type xs ys zs
1 1 .504058 .988755 .565670
2 1 .994231 .612279 .522237
3 1 .807078 .007400 .476823
4 1 .189243 .024211 .454302
5 1 .009694 .631848 .517525
6 1 .497137 .427587 .995096
7 1 .504769 .468415 .015171
ITEM: TIMESTEP
300
ITEM: NUMBER OF ATOMS
7
ITEM: BOX BOUNDS ss ss ss
-3.0316 3.2149
-2.5296 3.5119
-1.9665 2.0023
ITEM: ATOMS id type xs ys zs
1 1 .506364 .988612 .565256
2 1 .996006 .611729 .523586
3 1 .807546 .008270 .475824
4 1 .187285 .024263 .452051
5 1 .010102 .632726 .522093
6 1 .499566 .426189 .997181
7 1 .504771 .470289 .017645
ITEM: TIMESTEP
350
ITEM: NUMBER OF ATOMS
7
ITEM: BOX BOUNDS ss ss ss
-3.0351 3.2255
-2.5215 3.5160
-1.9610 2.0179
ITEM: ATOMS id type xs ys zs
1 1 .506064 .988524 .561139
2 1 .994064 .610721 .520411
3 1 .807100 .007927 .473215
4 1 .187098 .023326 .453260
5 1 .009014 .631517 .516615
6 1 .498353 .426427 .990797
7 1 .503463 .472293 .015069
ITEM: TIMESTEP
400
ITEM: NUMBER OF ATOMS
7
ITEM: BOX BOUNDS ss ss ss
-3.0293 3.2365
-2.5233 3.5164
-1.9680 2.0143
ITEM: ATOMS id type xs ys zs
1 1 .503248 .992023 .554235
2 1 .990368 .618633 .520205
3 1 .800762 .014045 .474617
4 1 .183916 .026905 .450699
5 1 .008669 .633488 .506861
6 1 .493371 .429042 .986794
7 1 .501774 .470001 .010564
ITEM: TIMESTEP
1
ITEM: NUMBER OF ATOMS
7
ITEM: BOX BOUNDS ss ss ss
-3.0178 3.2127
-2.5051 3.5058
-1.9472 1.9917
ITEM: ATOMS id type xs ys zs
1 1 .503567 .994648 .564489
2 1 .993520 .611712 .523320
3 1 .810221 .003042 .477454
4 1 .185821 .023364 .450739
5 1 .008451 .635753 .515058
6 1 .498755 .428304 .990396
7 1 .497669 .466430 .004848
ITEM: TIMESTEP
50
ITEM: NUMBER OF ATOMS
7
ITEM: BOX BOUNDS ss ss ss
-3.0178 3.2127
-2.5177 3.5058
-1.9599 1.9917
ITEM: ATOMS id type xs ys zs
1 1 .504206 .994588 .564765
2 1 .993964 .612950 .525168
3 1 .809763 .006233 .477482
4 1 .186088 .023820 .454581
5 1 .007603 .637215 .517005
6 1 .497922 .430001 .989880
7 1 .500652 .468178 .008551
ITEM: TIMESTEP
100
ITEM: NUMBER OF ATOMS
7
ITEM: BOX BOUNDS ss ss ss
-3.0178 3.2127
-2.5245 3.5185
-1.9711 1.9930
ITEM: ATOMS id type xs ys zs
1 1 .505072 .994071 .564180
2 1 .991691 .613675 .523210
3 1 .808230 .007902 .474847
4 1 .186265 .022488 .458621
5 1 .009061 .634447 .518297
6 1 .497959 .429305 .989498
7 1 .499127 .468061 .013027
ITEM: TIMESTEP
150
ITEM: NUMBER OF ATOMS
7
ITEM: BOX BOUNDS ss ss ss
-3.0178 3.2127
-2.5306 3.5239
-1.9751 1.9947
ITEM: ATOMS id type xs ys zs
1 1 .505047 .992304 .569216
2 1 .993065 .612538 .519170
3 1 .807790 .009736 .473197
4 1 .186022 .024829 .457082
5 1 .007752 .633577 .518387
6 1 .497798 .430127 .988300
7 1 .498894 .470081 .015942
ITEM: TIMESTEP
200
ITEM: NUMBER OF ATOMS
7
ITEM: BOX BOUNDS ss ss ss
-3.0178 3.2127
-2.5417 3.5258
-1.9660 2.0029
ITEM: ATOMS id type xs ys zs
1 1 .504056 .991308 .564283
2 1 .993744 .613654 .514461
3 1 .806124 .011659 .471420
4 1 .188318 .028877 .454099
5 1 .006573 .633496 .515891
6 1 .497482 .431215 .986408
7 1 .500673 .472007 .012490
ITEM: TIMESTEP
250
ITEM: NUMBER OF ATOMS
7
ITEM: BOX BOUNDS ss ss ss
-3.0199 3.2127
-2.5197 3.5271
-1.9594 1.9979
ITEM: ATOMS id type xs ys zs
1 1 .504989 .991428 .562384
2 1 .993683 .612890 .513760
3 1 .806200 .009477 .470386
4 1 .187892 .024774 .454678
5 1 .007664 .632684 .512694
6 1 .497936 .428948 .989302
7 1 .501070 .470068 .011017
ITEM: TIMESTEP
300
ITEM: NUMBER OF ATOMS
7
ITEM: BOX BOUNDS ss ss ss
-3.0211 3.2127
-2.5236 3.5229
-1.9634 1.9984
ITEM: ATOMS id type xs ys zs
1 1 .505850 .991391 .566595
2 1 .992311 .609612 .516355
3 1 .802142 .009522 .470505
4 1 .185297 .022452 .458844
5 1 .006928 .633197 .515191
6 1 .497395 .428131 .989898
7 1 .499323 .469191 .013391
ITEM: TIMESTEP
350
ITEM: NUMBER OF ATOMS
7
ITEM: BOX BOUNDS ss ss ss
-3.0320 3.2127
-2.5213 3.5246
-1.9704 2.0033
ITEM: ATOMS id type xs ys zs
1 1 .506590 .990964 .562876
2 1 .993662 .611666 .514611
3 1 .804341 .008037 .471530
4 1 .188390 .021991 .456830
5 1 .008367 .629545 .518972
6 1 .498770 .428205 .988629
7 1 .501253 .469159 .013402
ITEM: TIMESTEP
400
ITEM: NUMBER OF ATOMS
7
ITEM: BOX BOUNDS ss ss ss
-3.0349 3.2108
-2.5219 3.5221
-1.9699 2.0019
ITEM: ATOMS id type xs ys zs
1 1 .507609 .990659 .564439
2 1 .992601 .609663 .517587
3 1 .802667 .006826 .468041
4 1 .186248 .021865 .456977
5 1 .008136 .630189 .514893
6 1 .498164 .427322 .988072
7 1 .500346 .470842 .015772
ITEM: TIMESTEP
1
ITEM: NUMBER OF ATOMS
7
ITEM: BOX BOUNDS ss ss ss
-3.0178 3.2093
-2.4993 3.5058
-1.9472 1.9905
ITEM: ATOMS id type xs ys zs
1 1 .503816 .994644 .564570
2 1 .994058 .611309 .523395
3 1 .810603 .002076 .477587
4 1 .185923 .022395 .450919
5 1 .008435 .635382 .515224
6 1 .499053 .427753 .990726
7 1 .497979 .465951 .004887
ITEM: TIMESTEP
50
ITEM: NUMBER OF ATOMS
7
ITEM: BOX BOUNDS ss ss ss
-3.0178 3.2093
-2.5176 3.5058
-1.9603 1.9905
ITEM: ATOMS id type xs ys zs
1 1 .506560 .994352 .565705
2 1 .993576 .612807 .524939
3 1 .810420 .005753 .480165
4 1 .185244 .024131 .452547
5 1 .008631 .635859 .513702
6 1 .499479 .429361 .991066
7 1 .499554 .467106 .009520
ITEM: TIMESTEP
100
ITEM: NUMBER OF ATOMS
7
ITEM: BOX BOUNDS ss ss ss
-3.0178 3.2093
-2.5304 3.5123
-1.9733 2.0101
ITEM: ATOMS id type xs ys zs
1 1 .504908 .994366 .563294
2 1 .994678 .613095 .517618
3 1 .810203 .008870 .475384
4 1 .183601 .024293 .454103
5 1 .008547 .635301 .511372
6 1 .499074 .431012 .985950
7 1 .498512 .468273 .014467
ITEM: TIMESTEP
150
ITEM: NUMBER OF ATOMS
7
ITEM: BOX BOUNDS ss ss ss
-3.0178 3.2093
-2.5301 3.5177
-1.9713 2.0118
ITEM: ATOMS id type xs ys zs
1 1 .507594 .992159 .566328
2 1 .994784 .611081 .519915
3 1 .809739 .009033 .479040
4 1 .187151 .027511 .449117
5 1 .009619 .634317 .517385
6 1 .498151 .433167 .987509
7 1 .501526 .469642 .012211
ITEM: TIMESTEP
200
ITEM: NUMBER OF ATOMS
7
ITEM: BOX BOUNDS ss ss ss
-3.0197 3.2093
-2.5427 3.5275
-1.9679 2.0134
ITEM: ATOMS id type xs ys zs
1 1 .507366 .989940 .565563
2 1 .995944 .608556 .519265
3 1 .809816 .012571 .477837
4 1 .186897 .029484 .450296
5 1 .009393 .633181 .517884
6 1 .497977 .434425 .987210
7 1 .503438 .469781 .013647
ITEM: TIMESTEP
250
ITEM: NUMBER OF ATOMS
7
ITEM: BOX BOUNDS ss ss ss
-3.0178 3.2112
-2.5335 3.5233
-1.9780 2.0112
ITEM: ATOMS id type xs ys zs
1 1 .508374 .991755 .566544
2 1 .996728 .609336 .522628
3 1 .809164 .010536 .477502
4 1 .187996 .026017 .452152
5 1 .009098 .633144 .521486
6 1 .497431 .432062 .988114
7 1 .500485 .468549 .015406
ITEM: TIMESTEP
300
ITEM: NUMBER OF ATOMS
7
ITEM: BOX BOUNDS ss ss ss
-3.0238 3.2088
-2.5262 3.5313
-1.9763 2.0127
ITEM: ATOMS id type xs ys zs
1 1 .507282 .990781 .562372
2 1 .994724 .613119 .519749
3 1 .807472 .011253 .477464
4 1 .184799 .027432 .457452
5 1 .007143 .636403 .511844
6 1 .496649 .429780 .985647
7 1 .501195 .468851 .016185
ITEM: TIMESTEP
350
ITEM: NUMBER OF ATOMS
7
ITEM: BOX BOUNDS ss ss ss
-3.0172 3.2121
-2.5170 3.5276
-1.9676 2.0160
ITEM: ATOMS id type xs ys zs
1 1 .507595 .991675 .559369
2 1 .994947 .613003 .515903
3 1 .806370 .010956 .477326
4 1 .183071 .026946 .455302
5 1 .006924 .636887 .511552
6 1 .497109 .429006 .986474
7 1 .500574 .470319 .014704
ITEM: TIMESTEP
400
ITEM: NUMBER OF ATOMS
7
ITEM: BOX BOUNDS ss ss ss
-3.0222 3.2124
-2.5231 3.5219
-1.9704 2.0119
ITEM: ATOMS id type xs ys zs
1 1 .510433 .990669 .568417
2 1 .995349 .611234 .514690
3 1 .805070 .008693 .473920
4 1 .184361 .026349 .460225
5 1 .010229 .633894 .508532
6 1 .498166 .429100 .987044
7 1 .504309 .469634 .011109
ITEM: TIMESTEP
1
ITEM: NUMBER OF ATOMS
7
ITEM: BOX BOUNDS ss ss ss
-2.9991 3.2040
-2.4917 3.4955
-1.9443 1.9876
ITEM: ATOMS id type xs ys zs
1 1 .502777 .996314 .564810
2 1 .994898 .611879 .523497
3 1 .810744 .000839 .477620
4 1 .183605 .021188 .450806
5 1 .005458 .636010 .515224
6 1 .497930 .427771 .991443
7 1 .496894 .466050 .004200
ITEM: TIMESTEP
50
ITEM: NUMBER OF ATOMS
7
ITEM: BOX BOUNDS ss ss ss
-2.9991 3.2040
-2.5185 3.5074
-1.9663 1.9876
ITEM: ATOMS id type xs ys zs
1 1 .502350 .993192 .564590
2 1 .993717 .612920 .526737
3 1 .808990 .006539 .479729
4 1 .183869 .025485 .450010
5 1 .006218 .636290 .516679
6 1 .497590 .429590 .993709
7 1 .499120 .467257 .011568
ITEM: TIMESTEP
100
ITEM: NUMBER OF ATOMS
7
ITEM: BOX BOUNDS ss ss ss
-2.9992 3.2083
-2.5344 3.5261
-1.9752 1.9883
ITEM: ATOMS id type xs ys zs
1 1 .506600 .989642 .568530
2 1 .993929 .610745 .527522
3 1 .807849 .006585 .484708
4 1 .184566 .027198 .454131
5 1 .004535 .634830 .520477
6 1 .496506 .427210 .992637
7 1 .499945 .467584 .012875
ITEM: TIMESTEP
150
ITEM: NUMBER OF ATOMS
7
ITEM: BOX BOUNDS ss ss ss
-3.0092 3.2040
-2.5400 3.5185
-1.9681 1.9919
ITEM: ATOMS id type xs ys zs
1 1 .507147 .988330 .569857
2 1 .994439 .611743 .522750
3 1 .805373 .007383 .484661
4 1 .185508 .027730 .456065
5 1 .005379 .635041 .520270
6 1 .496848 .428241 .990817
7 1 .501850 .469051 .012642
ITEM: TIMESTEP
200
ITEM: NUMBER OF ATOMS
7
ITEM: BOX BOUNDS ss ss ss
-3.0142 3.2040
-2.5472 3.5175
-1.9716 1.9959
ITEM: ATOMS id type xs ys zs
1 1 .505470 .990932 .564975
2 1 .993583 .612292 .523215
3 1 .806337 .007458 .481545
4 1 .187218 .027510 .456189
5 1 .006102 .635217 .519125
6 1 .496437 .429771 .991594
7 1 .501551 .471158 .014314
ITEM: TIMESTEP
250
ITEM: NUMBER OF ATOMS
7
ITEM: BOX BOUNDS ss ss ss
-3.0218 3.2040
-2.5485 3.5286
-1.9665 1.9898
ITEM: ATOMS id type xs ys zs
1 1 .505118 .989124 .564786
2 1 .994140 .611274 .524014
3 1 .806799 .008388 .481946
4 1 .188470 .027164 .455187
5 1 .007593 .632908 .517802
6 1 .496881 .428852 .993498
7 1 .502837 .469371 .011532
ITEM: TIMESTEP
300
ITEM: NUMBER OF ATOMS
7
ITEM: BOX BOUNDS ss ss ss
-3.0278 3.2094
-2.5529 3.5049
-1.9708 1.9994
ITEM: ATOMS id type xs ys zs
1 1 .504975 .991520 .559903
2 1 .992578 .612882 .523352
3 1 .802343 .008633 .479366
4 1 .191129 .024925 .453004
5 1 .007818 .634614 .512346
6 1 .496763 .431923 .989272
7 1 .501615 .473293 .013375
ITEM: TIMESTEP
350
ITEM: NUMBER OF ATOMS
7
ITEM: BOX BOUNDS ss ss ss
-3.0252 3.2088
-2.5510 3.5077
-1.9638 2.0091
ITEM: ATOMS id type xs ys zs
1 1 .504427 .991585 .556563
2 1 .993917 .610897 .521972
3 1 .801773 .009214 .478769
4 1 .190094 .026016 .450914
5 1 .007026 .634145 .513115
6 1 .497376 .432965 .989550
7 1 .502159 .471416 .009829
ITEM: TIMESTEP
400
ITEM: NUMBER OF ATOMS
7
ITEM: BOX BOUNDS ss ss ss
-3.0357 3.2064
-2.5588 3.5170
-1.9674 2.0049
ITEM: ATOMS id type xs ys zs
1 1 .505431 .989248 .557712
2 1 .997363 .608901 .521434
3 1 .802083 .010820 .480394
4 1 .190591 .027581 .454336
5 1 .009363 .631693 .511634
6 1 .498472 .431988 .991858
7 1 .502845 .471082 .010887
ITEM: TIMESTEP
1
ITEM: NUMBER OF ATOMS
7
ITEM: BOX BOUNDS ss ss ss
-3.0088 3.2040
-2.5335 3.4955
-1.9524 1.9980
ITEM: ATOMS id type xs ys zs
1 1 .503562 .996374 .564169
2 1 .994918 .614570 .523140
3 1 .811074 .007764 .477430
4 1 .184923 .028009 .450736
5 1 .007025 .638546 .514868
6 1 .498732 .431767 .988866
7 1 .497641 .469764 .006172
ITEM: TIMESTEP
50
ITEM: NUMBER OF ATOMS
7
ITEM: BOX BOUNDS ss ss ss
-3.0088 3.2040
-2.5335 3.5064
-1.9616 1.9980
ITEM: ATOMS id type xs ys zs
1 1 .503457 .995175 .563985
2 1 .994614 .614074 .523789
3 1 .810897 .009278 .478015
4 1 .184609 .027580 .452231
5 1 .006883 .637202 .515656
6 1 .499338 .431344 .990921
7 1 .499983 .469333 .006775
ITEM: TIMESTEP
100
ITEM: NUMBER OF ATOMS
7
ITEM: BOX BOUNDS ss ss ss
-3.0088 3.2103
-2.5335 3.5163
-1.9649 1.9980
ITEM: ATOMS id type xs ys zs
1 1 .505085 .993021 .563648
2 1 .994388 .612597 .524089
3 1 .809958 .009913 .477369
4 1 .182895 .028830 .450956
5 1 .007269 .635541 .517741
6 1 .498444 .429017 .991158
7 1 .499697 .469246 .005826
ITEM: TIMESTEP
150
ITEM: NUMBER OF ATOMS
7
ITEM: BOX BOUNDS ss ss ss
-3.0088 3.2045
-2.5380 3.5207
-1.9738 1.9980
ITEM: ATOMS id type xs ys zs
1 1 .506799 .992138 .564176
2 1 .995433 .612830 .524858
3 1 .809020 .010383 .480709
4 1 .181001 .028039 .455274
5 1 .008089 .635150 .518759
6 1 .497681 .429751 .991086
7 1 .501244 .469376 .007771
ITEM: TIMESTEP
200
ITEM: NUMBER OF ATOMS
7
ITEM: BOX BOUNDS ss ss ss
-3.0088 3.2080
-2.5395 3.5292
-1.9850 1.9980
ITEM: ATOMS id type xs ys zs
1 1 .507938 .989054 .562635
2 1 .995676 .612844 .524561
3 1 .808743 .012056 .479550
4 1 .183095 .029317 .457301
5 1 .008378 .635203 .519191
6 1 .496217 .429397 .987946
7 1 .499579 .468841 .012058
ITEM: TIMESTEP
250
ITEM: NUMBER OF ATOMS
7
ITEM: BOX BOUNDS ss ss ss
-3.0088 3.2040
-2.5354 3.5224
-1.9903 1.9980
ITEM: ATOMS id type xs ys zs
1 1 .508545 .991311 .563868
2 1 .996081 .612471 .528254
3 1 .807820 .010442 .482879
4 1 .181567 .028529 .455547
5 1 .008121 .632232 .518519
6 1 .497195 .429077 .991574
7 1 .501617 .469597 .013529
ITEM: TIMESTEP
300
ITEM: NUMBER OF ATOMS
7
ITEM: BOX BOUNDS ss ss ss
-3.0088 3.2040
-2.5335 3.5212
-1.9883 2.0060
ITEM: ATOMS id type xs ys zs
1 1 .509230 .990209 .561496
2 1 .996003 .614390 .525118
3 1 .806772 .010195 .479698
4 1 .181198 .028055 .450259
5 1 .009415 .630866 .515523
6 1 .495806 .429344 .994961
7 1 .503153 .470148 .014110
ITEM: TIMESTEP
350
ITEM: NUMBER OF ATOMS
7
ITEM: BOX BOUNDS ss ss ss
-3.0060 3.2174
-2.5228 3.5249
-1.9884 2.0022
ITEM: ATOMS id type xs ys zs
1 1 .507966 .987425 .562895