ITEM: TIMESTEP
1
ITEM: NUMBER OF ATOMS
7
ITEM: BOX BOUNDS ss ss ss
-2.9687 3.1768
-2.4911 3.4777
-1.9321 1.9573
ITEM: ATOMS id type xs ys zs
1 1 .502445 .999366 .567887
2 1 .999253 .613664 .526172
3 1 .813572 .000602 .479742
4 1 .180412 .021242 .452530
5 1 .000641 .637976 .517727
6 1 .497714 .428978 .999030
7 1 .496419 .467283 .000940
ITEM: TIMESTEP
50
ITEM: NUMBER OF ATOMS
7
ITEM: BOX BOUNDS ss ss ss
-2.9942 3.1992
-2.5165 3.4998
-1.9554 1.9792
ITEM: ATOMS id type xs ys zs
1 1 .502803 .995785 .567396
2 1 .995342 .613069 .525804
3 1 .811604 .004763 .480388
4 1 .183029 .025142 .453371
5 1 .004554 .637378 .517736
6 1 .498042 .429586 .993263
7 1 .497077 .467878 .006721
ITEM: TIMESTEP
100
ITEM: NUMBER OF ATOMS
7
ITEM: BOX BOUNDS ss ss ss
-3.0031 3.2042
-2.5243 3.5083
-1.9636 1.9853
ITEM: ATOMS id type xs ys zs
1 1 .503593 .994319 .567293
2 1 .994182 .612894 .525103
3 1 .810613 .006341 .480792
4 1 .183851 .025802 .453889
5 1 .005501 .636654 .518319
6 1 .498062 .429178 .991764
7 1 .498531 .468505 .009418
ITEM: TIMESTEP
150
ITEM: NUMBER OF ATOMS
7
ITEM: BOX BOUNDS ss ss ss
-3.0055 3.2024
-2.5276 3.5099
-1.9657 1.9962
ITEM: ATOMS id type xs ys zs
1 1 .504559 .993544 .565092
2 1 .994424 .613895 .523466
3 1 .809563 .007259 .479992
4 1 .184205 .025493 .453702
5 1 .005938 .635894 .517726
6 1 .497935 .428936 .989652
7 1 .500333 .468947 .011295
ITEM: TIMESTEP
200
ITEM: NUMBER OF ATOMS
7
ITEM: BOX BOUNDS ss ss ss
-3.0125 3.2088
-2.5243 3.5166
-1.9625 2.0012
ITEM: ATOMS id type xs ys zs
1 1 .505298 .991748 .563273
2 1 .994075 .613335 .521740
3 1 .807973 .006836 .479397
4 1 .185017 .024699 .453457
5 1 .007005 .634258 .516640
6 1 .497768 .427912 .989922
7 1 .501761 .468053 .011732
ITEM: TIMESTEP
250
ITEM: NUMBER OF ATOMS
7
ITEM: BOX BOUNDS ss ss ss
-3.0120 3.2167
-2.5272 3.5185
-1.9545 2.0133
ITEM: ATOMS id type xs ys zs
1 1 .505048 .991032 .560358
2 1 .993514 .613156 .518704
3 1 .806245 .007860 .476742
4 1 .184855 .025009 .451496
5 1 .006993 .633409 .514001
6 1 .497192 .428164 .988145
7 1 .501860 .468442 .010640
ITEM: TIMESTEP
300
ITEM: NUMBER OF ATOMS
7
ITEM: BOX BOUNDS ss ss ss
-3.0148 3.2171
-2.5273 3.5280
-1.9572 2.0222
ITEM: ATOMS id type xs ys zs
1 1 .505322 .989225 .559173
2 1 .994088 .612081 .517821
3 1 .805418 .008322 .475669
4 1 .185311 .024735 .451931
5 1 .007490 .631395 .513366
6 1 .497703 .427896 .987280
7 1 .502434 .467846 .012136
ITEM: TIMESTEP
350
ITEM: NUMBER OF ATOMS
7
ITEM: BOX BOUNDS ss ss ss
-3.0117 3.2233
-2.5176 3.5138
-1.9520 2.0328
ITEM: ATOMS id type xs ys zs
1 1 .504712 .991423 .556294
2 1 .993695 .612647 .515495
3 1 .803299 .007202 .472620
4 1 .184755 .023000 .450794
5 1 .006981 .631352 .511330
6 1 .497240 .428590 .985853
7 1 .501715 .468454 .011228
ITEM: TIMESTEP
400
ITEM: NUMBER OF ATOMS
7
ITEM: BOX BOUNDS ss ss ss
-3.0108 3.2375
-2.5261 3.5077
-1.9591 2.0348
ITEM: ATOMS id type xs ys zs
1 1 .503865 .992300 .556240
2 1 .991926 .613565 .515718
3 1 .800128 .009231 .472240
4 1 .184221 .024276 .451792
5 1 .006831 .631940 .511246
6 1 .495876 .430460 .986224
7 1 .500450 .470192 .012957
ITEM: TIMESTEP
1
ITEM: NUMBER OF ATOMS
7
ITEM: BOX BOUNDS ss ss ss
-3.0020 3.2204
-2.4971 3.4848
-1.9410 2.0232
ITEM: ATOMS id type xs ys zs
1 1 .501586 .998186 .559420
2 1 .992258 .613332 .518493
3 1 .808875 .001610 .472939
4 1 .183535 .022205 .446238
5 1 .005989 .637593 .510199
6 1 .496916 .429050 .982424
7 1 .495634 .467266 .003167
ITEM: TIMESTEP
50
ITEM: NUMBER OF ATOMS
7
ITEM: BOX BOUNDS ss ss ss
-3.0020 3.2204
-2.5141 3.5029
-1.9580 2.0232
ITEM: ATOMS id type xs ys zs
1 1 .501641 .995337 .561443
2 1 .991920 .612552 .520314
3 1 .809198 .004295 .475521
4 1 .183410 .024808 .448566
5 1 .005832 .636996 .512457
6 1 .496990 .429179 .982259
7 1 .495891 .467323 .007131
ITEM: TIMESTEP
100
ITEM: NUMBER OF ATOMS
7
ITEM: BOX BOUNDS ss ss ss
-3.0029 3.2204
-2.5206 3.5112
-1.9632 2.0232
ITEM: ATOMS id type xs ys zs
1 1 .502327 .993875 .561686
2 1 .991493 .612186 .519833
3 1 .808944 .005843 .476223
4 1 .183380 .025307 .449403
5 1 .005628 .636399 .513354
6 1 .496562 .428696 .982556
7 1 .497332 .467616 .008911
ITEM: TIMESTEP
150
ITEM: NUMBER OF ATOMS
7
ITEM: BOX BOUNDS ss ss ss
-3.0057 3.2204
-2.5191 3.5166
-1.9681 2.0232
ITEM: ATOMS id type xs ys zs
1 1 .503691 .991806 .562428
2 1 .991632 .611736 .519290
3 1 .808452 .006828 .476316
4 1 .183543 .024751 .450303
5 1 .005661 .635517 .513514
6 1 .496109 .427424 .983800
7 1 .498418 .467798 .011627
ITEM: TIMESTEP
200
ITEM: NUMBER OF ATOMS
7
ITEM: BOX BOUNDS ss ss ss
-3.0102 3.2204
-2.5200 3.5138
-1.9782 2.0232
ITEM: ATOMS id type xs ys zs
1 1 .504707 .991434 .563731
2 1 .992224 .612333 .519690
3 1 .808157 .008155 .477669
4 1 .184519 .024752 .451327
5 1 .005952 .635227 .514616
6 1 .496099 .427508 .985316
7 1 .499669 .468845 .015286
ITEM: TIMESTEP
250
ITEM: NUMBER OF ATOMS
7
ITEM: BOX BOUNDS ss ss ss
-3.0163 3.2204
-2.5104 3.5083
-1.9801 2.0232
ITEM: ATOMS id type xs ys zs
1 1 .505623 .992860 .563403
2 1 .993170 .612618 .519946
3 1 .807363 .007441 .478053
4 1 .185810 .023657 .450956
5 1 .006872 .634419 .516530
6 1 .496980 .427919 .986436
7 1 .501534 .469319 .016878
ITEM: TIMESTEP
300
ITEM: NUMBER OF ATOMS
7
ITEM: BOX BOUNDS ss ss ss
-3.0151 3.2253
-2.5179 3.5133
-1.9644 2.0232
ITEM: ATOMS id type xs ys zs
1 1 .505868 .992807 .560889
2 1 .993626 .613378 .518516
3 1 .805372 .009617 .476051
4 1 .185329 .025533 .448419
5 1 .006474 .633878 .516980
6 1 .496632 .429765 .987335
7 1 .501905 .470880 .014802
ITEM: TIMESTEP
350
ITEM: NUMBER OF ATOMS
7
ITEM: BOX BOUNDS ss ss ss
-3.0214 3.2311
-2.5133 3.5119
-1.9549 2.0232
ITEM: ATOMS id type xs ys zs
1 1 .506407 .992994 .558808
2 1 .993674 .613548 .517589
3 1 .803387 .009530 .474448
4 1 .185157 .024880 .446806
5 1 .006987 .633683 .517103
6 1 .496331 .430107 .987380
7 1 .501864 .471373 .013492
ITEM: TIMESTEP
400
ITEM: NUMBER OF ATOMS
7
ITEM: BOX BOUNDS ss ss ss
-3.0245 3.2418
-2.5114 3.5175
-1.9454 2.0255
ITEM: ATOMS id type xs ys zs
1 1 .506077 .991888 .556672
2 1 .992530 .612766 .516033
3 1 .801121 .009776 .472534
4 1 .184850 .024425 .445279
5 1 .007282 .632695 .515887
6 1 .495475 .429684 .986899
7 1 .501004 .471253 .011281
ITEM: TIMESTEP
1
ITEM: NUMBER OF ATOMS
7
ITEM: BOX BOUNDS ss ss ss
-3.0020 3.2363
-2.4971 3.5038
-1.9410 2.0232
ITEM: ATOMS id type xs ys zs
1 1 .500314 .995022 .559422
2 1 .989737 .611382 .518488
3 1 .806822 .001604 .472940
4 1 .183066 .022138 .446240
5 1 .005973 .635571 .510198
6 1 .495653 .427686 .982425
7 1 .494372 .465781 .003163
ITEM: TIMESTEP
50
ITEM: NUMBER OF ATOMS
7
ITEM: BOX BOUNDS ss ss ss
-3.0020 3.2363
-2.5162 3.5038
-1.9556 2.0232
ITEM: ATOMS id type xs ys zs
1 1 .500293 .995241 .561183
2 1 .989417 .612604 .520075
3 1 .807209 .004567 .475216
4 1 .182961 .025189 .448283
5 1 .005850 .637098 .512177
6 1 .495732 .429284 .982197
7 1 .494499 .467381 .006456
ITEM: TIMESTEP
100
ITEM: NUMBER OF ATOMS
7
ITEM: BOX BOUNDS ss ss ss
-3.0041 3.2363
-2.5232 3.5131
-1.9609 2.0232
ITEM: ATOMS id type xs ys zs
1 1 .500932 .993722 .561420
2 1 .989060 .612307 .519260
3 1 .806814 .006067 .475592
4 1 .182980 .026031 .449314
5 1 .005463 .636543 .513265
6 1 .495390 .428930 .982264
7 1 .495768 .467768 .008166
ITEM: TIMESTEP
150
ITEM: NUMBER OF ATOMS
7
ITEM: BOX BOUNDS ss ss ss
-3.0083 3.2363
-2.5285 3.5155
-1.9683 2.0232
ITEM: ATOMS id type xs ys zs
1 1 .502154 .992666 .561130
2 1 .989514 .612341 .518261
3 1 .805686 .007716 .476185
4 1 .184267 .026209 .450325
5 1 .005807 .636470 .514113
6 1 .495518 .429452 .983276
7 1 .497127 .468543 .011022
ITEM: TIMESTEP
200
ITEM: NUMBER OF ATOMS
7
ITEM: BOX BOUNDS ss ss ss
-3.0129 3.2363
-2.5265 3.5135
-1.9562 2.0232
ITEM: ATOMS id type xs ys zs
1 1 .504989 .991594 .558639
2 1 .991436 .612354 .515550
3 1 .804483 .009091 .474807
4 1 .187101 .025301 .449203
5 1 .007340 .636556 .512099
6 1 .496148 .430384 .985751
7 1 .498954 .469070 .008402
ITEM: TIMESTEP
250
ITEM: NUMBER OF ATOMS
7
ITEM: BOX BOUNDS ss ss ss
-3.0132 3.2363
-2.5131 3.5101
-1.9660 2.0232
ITEM: ATOMS id type xs ys zs
1 1 .505759 .992181 .559257
2 1 .991668 .611864 .515541
3 1 .804108 .007346 .475897
4 1 .187104 .022964 .450901
5 1 .007522 .635692 .513261
6 1 .495924 .429420 .985962
7 1 .499471 .468625 .011118
ITEM: TIMESTEP
300
ITEM: NUMBER OF ATOMS
7
ITEM: BOX BOUNDS ss ss ss
-3.0168 3.2363
-2.5174 3.5092
-1.9743 2.0232
ITEM: ATOMS id type xs ys zs
1 1 .506480 .992552 .559931
2 1 .991775 .612127 .515887
3 1 .803704 .008322 .476504
4 1 .187377 .023387 .452228
5 1 .008126 .635151 .514427
6 1 .496064 .430159 .986012
7 1 .499917 .469557 .013495
ITEM: TIMESTEP
350
ITEM: NUMBER OF ATOMS
7
ITEM: BOX BOUNDS ss ss ss
-3.0162 3.2363
-2.5088 3.5145
-1.9693 2.0232
ITEM: ATOMS id type xs ys zs
1 1 .506749 .991976 .558906
2 1 .992250 .611027 .515147
3 1 .803142 .007205 .474814
4 1 .187185 .021650 .452329
5 1 .008174 .633043 .514266
6 1 .496281 .429294 .986103
7 1 .500113 .468748 .012646
ITEM: TIMESTEP
400
ITEM: NUMBER OF ATOMS
7
ITEM: BOX BOUNDS ss ss ss
-3.0177 3.2363
-2.5119 3.5125
-1.9642 2.0232
ITEM: ATOMS id type xs ys zs
1 1 .506949 .992496 .557591
2 1 .992997 .611439 .514684
3 1 .802712 .008229 .473389
4 1 .187578 .021917 .452453
5 1 .008762 .632556 .514031
6 1 .496793 .430206 .986573
7 1 .500596 .469489 .012059
ITEM: TIMESTEP
1
ITEM: NUMBER OF ATOMS
7
ITEM: BOX BOUNDS ss ss ss
-3.0020 3.2363
-2.4971 3.5038
-1.9410 2.0232
ITEM: ATOMS id type xs ys zs
1 1 .500311 .995023 .559419
2 1 .989737 .611383 .518495
3 1 .806823 .001604 .472943
4 1 .183070 .022138 .446235
5 1 .005976 .635573 .510203
6 1 .495654 .427689 .982430
7 1 .494373 .465782 .003164
ITEM: TIMESTEP
50
ITEM: NUMBER OF ATOMS
7
ITEM: BOX BOUNDS ss ss ss
-3.0020 3.2363
-2.5154 3.5038
-1.9608 2.0232
ITEM: ATOMS id type xs ys zs
1 1 .500276 .995284 .561900
2 1 .989377 .612516 .520732
3 1 .807346 .004349 .476029
4 1 .182959 .025079 .448930
5 1 .005869 .637125 .512829
6 1 .495741 .429221 .982116
7 1 .494412 .467259 .007741
ITEM: TIMESTEP
100
ITEM: NUMBER OF ATOMS
7
ITEM: BOX BOUNDS ss ss ss
-3.0038 3.2363
-2.5248 3.5139
-1.9615 2.0232
ITEM: ATOMS id type xs ys zs
1 1 .500957 .993804 .561893
2 1 .988959 .612267 .519192
3 1 .806967 .006172 .475954
4 1 .182975 .025781 .449541
5 1 .005554 .636684 .513191
6 1 .495196 .429217 .981829
7 1 .495700 .467629 .008021
ITEM: TIMESTEP
150
ITEM: NUMBER OF ATOMS
7
ITEM: BOX BOUNDS ss ss ss
-3.0130 3.2363
-2.5281 3.5209
-1.9654 2.0232
ITEM: ATOMS id type xs ys zs
1 1 .502152 .992457 .562563
2 1 .989025 .612084 .518229
3 1 .806435 .007419 .475828
4 1 .183929 .025325 .450977
5 1 .006560 .636007 .513963
6 1 .495090 .429095 .981417
7 1 .497288 .467451 .009935
ITEM: TIMESTEP
200
ITEM: NUMBER OF ATOMS
7
ITEM: BOX BOUNDS ss ss ss
-3.0200 3.2363
-2.5325 3.5149
-1.9669 2.0232
ITEM: ATOMS id type xs ys zs
1 1 .503010 .992881 .561375
2 1 .989767 .613866 .518425
3 1 .806175 .009522 .476056
4 1 .184513 .025901 .451912
5 1 .007044 .636711 .515532
6 1 .495249 .430243 .981413
7 1 .498598 .468329 .011803
ITEM: TIMESTEP
250
ITEM: NUMBER OF ATOMS
7
ITEM: BOX BOUNDS ss ss ss
-3.0295 3.2363
-2.5258 3.5169
-1.9696 2.0232
ITEM: ATOMS id type xs ys zs
1 1 .504213 .992388 .560058
2 1 .990252 .614147 .517948
3 1 .805602 .009504 .477027
4 1 .185127 .024001 .453386
5 1 .007951 .635676 .516865
6 1 .495427 .430012 .981440
7 1 .499304 .467439 .013953
ITEM: TIMESTEP
300
ITEM: NUMBER OF ATOMS
7
ITEM: BOX BOUNDS ss ss ss
-3.0314 3.2363
-2.5296 3.5188
-1.9654 2.0232
ITEM: ATOMS id type xs ys zs
1 1 .504745 .992323 .559051
2 1 .990465 .614449 .516285
3 1 .804323 .010600 .477365
4 1 .184646 .024012 .454142
5 1 .008121 .635334 .516487
6 1 .495461 .430606 .982174
7 1 .499354 .467265 .013972
ITEM: TIMESTEP
350
ITEM: NUMBER OF ATOMS
7
ITEM: BOX BOUNDS ss ss ss
-3.0328 3.2363
-2.5202 3.5156
-1.9738 2.0232
ITEM: ATOMS id type xs ys zs
1 1 .505082 .992688 .559702
2 1 .990812 .614140 .516315
3 1 .803344 .009469 .479789
4 1 .184337 .022193 .456542
5 1 .008707 .634730 .516986
6 1 .495615 .430101 .983607
7 1 .499543 .466608 .016835
ITEM: TIMESTEP
400
ITEM: NUMBER OF ATOMS
7
ITEM: BOX BOUNDS ss ss ss
-3.0349 3.2394
-2.5149 3.5221
-1.9677 2.0171
ITEM: ATOMS id type xs ys zs
1 1 .505450 .991163 .559982
2 1 .990616 .613103 .515375
3 1 .802024 .008554 .480321
4 1 .183903 .021439 .457148
5 1 .009545 .633201 .515972
6 1 .495642 .429062 .986316
7 1 .499650 .465620 .015669
ITEM: TIMESTEP
1
ITEM: NUMBER OF ATOMS
7
ITEM: BOX BOUNDS ss ss ss
-3.0006 3.2103
-2.4911 3.4935
-1.9434 2.0095
ITEM: ATOMS id type xs ys zs
1 1 .502288 .996724 .561632
2 1 .993865 .612046 .520589
3 1 .810149 .000602 .474902
4 1 .183646 .021197 .448115
5 1 .005775 .636300 .512264
6 1 .497611 .427848 .985852
7 1 .496320 .466046 .003764
ITEM: TIMESTEP
50
ITEM: NUMBER OF ATOMS
7
ITEM: BOX BOUNDS ss ss ss
-3.0006 3.2103
-2.5203 3.5058
-1.9554 2.0095
ITEM: ATOMS id type xs ys zs
1 1 .502211 .994970 .563319
2 1 .993514 .612680 .522028
3 1 .810740 .005103 .477056
4 1 .183478 .025936 .449717
5 1 .005711 .637228 .513944
6 1 .497808 .429547 .985495
7 1 .496293 .467498 .006359
ITEM: TIMESTEP
100
ITEM: NUMBER OF ATOMS
7
ITEM: BOX BOUNDS ss ss ss
-3.0052 3.2103
-2.5254 3.5125
-1.9655 2.0095
ITEM: ATOMS id type xs ys zs
1 1 .503131 .994226 .564474
2 1 .993192 .612652 .521673
3 1 .810919 .006153 .478472
4 1 .183712 .026296 .451667
5 1 .005887 .637195 .515413
6 1 .497709 .429331 .985340
7 1 .498040 .468022 .009286
ITEM: TIMESTEP
150
ITEM: NUMBER OF ATOMS
7
ITEM: BOX BOUNDS ss ss ss
-3.0204 3.2103
-2.5298 3.5156
-1.9707 2.0095
ITEM: ATOMS id type xs ys zs
1 1 .504928 .994084 .565293
2 1 .992973 .613535 .520474
3 1 .811307 .007447 .479269
4 1 .185103 .026809 .452440
5 1 .007831 .637608 .515751
6 1 .497913 .429247 .984969
7 1 .500318 .468287 .011406
ITEM: TIMESTEP
200
ITEM: NUMBER OF ATOMS
7
ITEM: BOX BOUNDS ss ss ss
-3.0282 3.2218
-2.5300 3.5198
-1.9611 2.0095
ITEM: ATOMS id type xs ys zs
1 1 .504953 .993440 .564353
2 1 .991366 .613845 .517777
3 1 .809766 .008013 .477240
4 1 .185974 .026397 .451137
5 1 .008899 .637058 .513690
6 1 .497260 .428742 .984989
7 1 .500986 .468139 .010370
ITEM: TIMESTEP
250
ITEM: NUMBER OF ATOMS
7
ITEM: BOX BOUNDS ss ss ss
-3.0280 3.2204
-2.5332 3.5209
-1.9629 2.0095
ITEM: ATOMS id type xs ys zs
1 1 .505079 .993097 .564683
2 1 .992131 .614335 .517267
3 1 .809320 .008842 .476206
4 1 .186987 .026596 .451339
5 1 .008404 .636550 .512028
6 1 .497517 .429601 .984962
7 1 .501803 .468784 .011932
ITEM: TIMESTEP
300
ITEM: NUMBER OF ATOMS
7
ITEM: BOX BOUNDS ss ss ss
-3.0271 3.2238
-2.5338 3.5302
-1.9561 2.0095
ITEM: ATOMS id type xs ys zs
1 1 .504567 .990713 .563794
2 1 .992138 .612853 .515341
3 1 .807840 .009167 .474806
4 1 .187461 .027093 .450731
5 1 .007260 .635125 .509694
6 1 .497282 .429580 .985176
7 1 .501453 .469226 .010088
ITEM: TIMESTEP
350
ITEM: NUMBER OF ATOMS
7
ITEM: BOX BOUNDS ss ss ss
-3.0315 3.2225
-2.5192 3.5225
-1.9570 2.0095
ITEM: ATOMS id type xs ys zs
1 1 .504851 .991092 .563308
2 1 .992600 .612067 .514090
3 1 .807164 .007306 .474978
4 1 .188709 .024892 .450867
5 1 .007312 .634617 .508542
6 1 .497714 .428958 .986070
7 1 .501533 .469556 .009909
ITEM: TIMESTEP
400
ITEM: NUMBER OF ATOMS
7
ITEM: BOX BOUNDS ss ss ss
-3.0414 3.2271
-2.5176 3.5264
-1.9653 2.0109
ITEM: ATOMS id type xs ys zs
1 1 .505415 .990249 .563427
2 1 .992210 .611531 .514335
3 1 .806430 .007574 .476254
4 1 .190420 .023952 .451816
5 1 .008981 .633560 .508526
6 1 .497914 .428706 .986250
7 1 .502243 .469443 .012206
ITEM: TIMESTEP
1
ITEM: NUMBER OF ATOMS
7
ITEM: BOX BOUNDS ss ss ss
-3.0178 3.2088
-2.4991 3.5058
-1.9472 1.9905
ITEM: ATOMS id type xs ys zs
1 1 .503781 .994700 .564761
2 1 .994119 .611315 .523557
3 1 .810865 .001937 .477701
4 1 .185944 .022465 .450816
5 1 .008526 .635489 .515209
6 1 .499115 .427739 .990617
7 1 .497827 .465808 .004748
ITEM: TIMESTEP
50
ITEM: NUMBER OF ATOMS
7
ITEM: BOX BOUNDS ss ss ss
-3.0178 3.2088
-2.5222 3.5058
-1.9581 1.9905
ITEM: ATOMS id type xs ys zs
1 1 .503622 .994999 .566375
2 1 .993723 .612861 .524922
3 1 .811502 .005396 .479696
4 1 .185767 .026254 .452275
5 1 .008481 .637426 .516710
6 1 .499323 .429739 .990175
7 1 .497722 .467611 .006995
ITEM: TIMESTEP
100
ITEM: NUMBER OF ATOMS
7
ITEM: BOX BOUNDS ss ss ss
-3.0178 3.2088
-2.5209 3.5144
-1.9732 1.9905
ITEM: ATOMS id type xs ys zs
1 1 .503863 .993730 .568247
2 1 .993310 .612325 .525717
3 1 .811568 .005728 .482535
4 1 .185777 .025169 .454544
5 1 .007808 .636587 .518928
6 1 .498967 .428414 .989708
7 1 .499257 .466932 .010872
ITEM: TIMESTEP
150
ITEM: NUMBER OF ATOMS
7
ITEM: BOX BOUNDS ss ss ss
-3.0178 3.2088
-2.5249 3.5154
-1.9702 1.9939
ITEM: ATOMS id type xs ys zs
1 1 .504437 .992529 .567991
2 1 .993772 .612795 .523677
3 1 .811117 .007531 .482985
4 1 .186180 .024926 .452605
5 1 .006343 .636266 .519870
6 1 .497137 .428835 .988616
7 1 .501759 .466812 .010704
ITEM: TIMESTEP
200
ITEM: NUMBER OF ATOMS
7
ITEM: BOX BOUNDS ss ss ss
-3.0178 3.2088
-2.5281 3.5112
-1.9663 1.9924
ITEM: ATOMS id type xs ys zs
1 1 .504143 .992563 .566961
2 1 .994008 .613591 .522490
3 1 .810749 .008247 .482835
4 1 .186128 .025547 .452112
5 1 .005776 .636109 .519774
6 1 .496287 .429155 .989579
7 1 .502935 .467543 .010923
ITEM: TIMESTEP
250
ITEM: NUMBER OF ATOMS
7
ITEM: BOX BOUNDS ss ss ss
-3.0329 3.2156
-2.5269 3.5223
-1.9612 1.9968
ITEM: ATOMS id type xs ys zs
1 1 .504249 .990660 .564231
2 1 .993179 .612912 .520220
3 1 .809669 .007544 .481419
4 1 .187437 .025771 .452204
5 1 .008054 .633963 .516306
6 1 .497338 .428053 .989580
7 1 .504027 .467105 .011334
ITEM: TIMESTEP
300
ITEM: NUMBER OF ATOMS
7
ITEM: BOX BOUNDS ss ss ss
-3.0316 3.2149
-2.5296 3.5119
-1.9665 2.0023
ITEM: ATOMS id type xs ys zs
1 1 .504331 .991752 .562743
2 1 .993582 .614508 .519309
3 1 .809232 .008508 .481555
4 1 .186845 .026097 .454064
5 1 .007985 .634503 .514356
6 1 .497602 .428951 .989815
7 1 .504070 .468218 .013799
ITEM: TIMESTEP
350
ITEM: NUMBER OF ATOMS
7
ITEM: BOX BOUNDS ss ss ss
-3.0351 3.2255
-2.5215 3.5160
-1.9610 2.0179
ITEM: ATOMS id type xs ys zs
1 1 .504479 .990292 .559639
2 1 .992171 .613787 .516547
3 1 .808090 .008367 .478661
4 1 .186427 .024209 .451606
5 1 .008689 .633492 .512046
6 1 .496642 .427639 .986786
7 1 .503325 .466785 .012582
ITEM: TIMESTEP
400
ITEM: NUMBER OF ATOMS
7
ITEM: BOX BOUNDS ss ss ss
-3.0293 3.2365
-2.5233 3.5164
-1.9680 2.0143
ITEM: ATOMS id type xs ys zs
1 1 .503422 .990034 .560550
2 1 .990798 .614451 .517839
3 1 .806219 .009756 .479936
4 1 .184626 .024646 .453494
5 1 .007678 .633591 .512780
6 1 .495052 .428162 .987721
7 1 .502003 .466832 .014065
ITEM: TIMESTEP
1
ITEM: NUMBER OF ATOMS
7
ITEM: BOX BOUNDS ss ss ss
-3.0178 3.2127
-2.5051 3.5058
-1.9472 1.9917
ITEM: ATOMS id type xs ys zs
1 1 .503470 .994700 .564580
2 1 .993504 .611699 .523390
3 1 .810366 .002926 .477547
4 1 .185830 .023438 .450668
5 1 .008516 .635852 .515046
6 1 .498807 .428308 .990297
7 1 .497518 .466336 .004746
ITEM: TIMESTEP
50
ITEM: NUMBER OF ATOMS
7
ITEM: BOX BOUNDS ss ss ss
-3.0178 3.2127
-2.5177 3.5058
-1.9599 1.9917
ITEM: ATOMS id type xs ys zs
1 1 .503253 .995033 .566473
2 1 .993089 .612536 .524982
3 1 .811085 .004571 .479769
4 1 .185665 .025568 .452274
5 1 .008514 .637214 .516816
6 1 .498994 .429320 .989789
7 1 .497387 .467184 .007293
ITEM: TIMESTEP
100
ITEM: NUMBER OF ATOMS
7
ITEM: BOX BOUNDS ss ss ss
-3.0178 3.2127
-2.5245 3.5185
-1.9711 1.9930
ITEM: ATOMS id type xs ys zs
1 1 .504436 .993448 .567013
2 1 .992097 .612447 .525452
3 1 .810603 .005900 .480083
4 1 .185352 .025521 .454843
5 1 .008047 .636764 .518795
6 1 .498102 .429018 .989053
7 1 .499283 .467517 .010527
ITEM: TIMESTEP
150
ITEM: NUMBER OF ATOMS
7
ITEM: BOX BOUNDS ss ss ss
-3.0178 3.2127
-2.5306 3.5239
-1.9751 1.9947
ITEM: ATOMS id type xs ys zs
1 1 .505134 .993064 .566325
2 1 .991393 .612745 .524087
3 1 .809919 .006983 .479084
4 1 .185526 .025417 .456097
5 1 .007976 .636459 .519276
6 1 .497316 .428977 .988402
7 1 .499351 .467745 .012441
ITEM: TIMESTEP
200
ITEM: NUMBER OF ATOMS
7
ITEM: BOX BOUNDS ss ss ss
-3.0178 3.2127
-2.5417 3.5258
-1.9660 2.0029
ITEM: ATOMS id type xs ys zs
1 1 .504885 .992751 .563831
2 1 .991434 .613216 .518342
3 1 .809300 .009543 .474308
4 1 .185916 .026400 .454952
5 1 .007125 .636313 .517297
6 1 .496924 .430184 .986133
7 1 .498574 .469261 .011495
ITEM: TIMESTEP
250
ITEM: NUMBER OF ATOMS
7
ITEM: BOX BOUNDS ss ss ss
-3.0199 3.2127
-2.5197 3.5271
-1.9594 1.9979
ITEM: ATOMS id type xs ys zs
1 1 .505105 .991867 .564992
2 1 .992048 .611571 .515760
3 1 .808590 .006775 .471877
4 1 .186311 .022507 .455868
5 1 .006751 .634474 .516922
6 1 .497382 .428050 .987620
7 1 .498487 .467770 .011221
ITEM: TIMESTEP
300
ITEM: NUMBER OF ATOMS
7
ITEM: BOX BOUNDS ss ss ss
-3.0211 3.2127
-2.5236 3.5229
-1.9634 1.9984
ITEM: ATOMS id type xs ys zs
1 1 .505474 .992234 .565516
2 1 .992526 .612271 .515078
3 1 .807900 .007986 .472116
4 1 .186787 .023160 .456355
5 1 .006517 .634776 .516385
6 1 .497420 .428876 .988207
7 1 .499131 .468924 .012603
ITEM: TIMESTEP
350
ITEM: NUMBER OF ATOMS
7
ITEM: BOX BOUNDS ss ss ss
-3.0320 3.2127
-2.5213 3.5246
-1.9704 2.0033
ITEM: ATOMS id type xs ys zs
1 1 .506330 .991815 .565278
2 1 .993044 .612204 .514499
3 1 .807589 .008131 .472596
4 1 .188437 .022912 .456152
5 1 .008469 .634335 .515954
6 1 .498421 .428640 .987700
7 1 .500748 .468948 .014415
ITEM: TIMESTEP
400
ITEM: NUMBER OF ATOMS
7
ITEM: BOX BOUNDS ss ss ss
-3.0349 3.2108
-2.5219 3.5221
-1.9699 2.0019
ITEM: ATOMS id type xs ys zs
1 1 .506830 .992100 .565015
2 1 .993724 .612932 .513738
3 1 .807487 .008759 .472945
4 1 .188984 .023283 .455337
5 1 .009183 .634039 .516097
6 1 .498912 .428789 .988770
7 1 .501641 .469506 .014171
ITEM: TIMESTEP
1
ITEM: NUMBER OF ATOMS
7
ITEM: BOX BOUNDS ss ss ss
-3.0178 3.2093
-2.4993 3.5058
-1.9472 1.9905
ITEM: ATOMS id type xs ys zs
1 1 .503739 .994696 .564769
2 1 .994043 .611328 .523569
3 1 .810809 .001967 .477711
4 1 .185935 .022493 .450817
5 1 .008525 .635500 .515218
6 1 .499080 .427759 .990615
7 1 .497786 .465824 .004764
ITEM: TIMESTEP
50
ITEM: NUMBER OF ATOMS
7
ITEM: BOX BOUNDS ss ss ss
-3.0178 3.2093
-2.5176 3.5058
-1.9603 1.9905
ITEM: ATOMS id type xs ys zs
1 1 .503445 .995024 .566667
2 1 .993599 .612510 .525239
3 1 .811619 .004458 .480110
4 1 .185739 .025577 .452386
5 1 .008571 .637214 .516961
6 1 .499326 .429268 .990138
7 1 .497531 .467092 .007423
ITEM: TIMESTEP
100
ITEM: NUMBER OF ATOMS
7
ITEM: BOX BOUNDS ss ss ss
-3.0178 3.2093
-2.5304 3.5123
-1.9733 2.0101
ITEM: ATOMS id type xs ys zs
1 1 .503816 .994166 .565339
2 1 .992883 .612644 .523316
3 1 .811790 .006947 .479809
4 1 .185456 .027073 .452193
5 1 .008302 .637671 .516055
6 1 .499113 .429766 .985583
7 1 .498356 .467807 .010679
ITEM: TIMESTEP
150
ITEM: NUMBER OF ATOMS
7
ITEM: BOX BOUNDS ss ss ss
-3.0178 3.2093
-2.5301 3.5177
-1.9713 2.0118
ITEM: ATOMS id type xs ys zs
1 1 .504792 .993357 .564172
2 1 .992894 .612430 .520382
3 1 .811350 .008049 .478558
4 1 .185262 .025662 .451278
5 1 .008212 .637584 .514643
6 1 .498654 .429576 .986558
7 1 .498973 .466766 .012130
ITEM: TIMESTEP
200
ITEM: NUMBER OF ATOMS
7
ITEM: BOX BOUNDS ss ss ss
-3.0197 3.2093
-2.5427 3.5275
-1.9679 2.0134
ITEM: ATOMS id type xs ys zs
1 1 .505582 .992097 .563603
2 1 .993030 .612628 .518671
3 1 .811307 .010364 .478500
4 1 .184966 .027408 .451016
5 1 .008229 .637779 .513580
6 1 .498327 .429854 .985304
7 1 .499810 .467057 .012186
ITEM: TIMESTEP
250
ITEM: NUMBER OF ATOMS
7
ITEM: BOX BOUNDS ss ss ss
-3.0178 3.2112
-2.5335 3.5233
-1.9780 2.0112
ITEM: ATOMS id type xs ys zs
1 1 .506355 .992792 .566740
2 1 .992932 .612478 .520531
3 1 .810235 .009879 .480093
4 1 .184150 .026512 .454835
5 1 .008058 .637733 .514676
6 1 .497200 .429272 .985488
7 1 .500009 .467257 .013681
ITEM: TIMESTEP
300
ITEM: NUMBER OF ATOMS
7
ITEM: BOX BOUNDS ss ss ss
-3.0238 3.2088
-2.5262 3.5313
-1.9763 2.0127
ITEM: ATOMS id type xs ys zs
1 1 .507706 .991581 .566935
2 1 .993297 .611460 .520117
3 1 .810064 .009588 .479264
4 1 .184436 .025849 .455865
5 1 .009142 .636976 .514088
6 1 .497133 .428330 .985441
7 1 .500915 .466448 .013366
ITEM: TIMESTEP
350
ITEM: NUMBER OF ATOMS
7
ITEM: BOX BOUNDS ss ss ss
-3.0172 3.2121
-2.5170 3.5276
-1.9676 2.0160
ITEM: ATOMS id type xs ys zs
1 1 .507572 .991861 .565069
2 1 .993093 .611394 .517519
3 1 .808942 .008397 .478285
4 1 .182652 .024793 .455382
5 1 .007902 .637560 .512391
6 1 .495973 .427596 .985202
7 1 .500246 .466441 .012973
ITEM: TIMESTEP
400
ITEM: NUMBER OF ATOMS
7
ITEM: BOX BOUNDS ss ss ss
-3.0222 3.2124
-2.5231 3.5219
-1.9704 2.0119
ITEM: ATOMS id type xs ys zs
1 1 .507868 .992328 .564774
2 1 .993622 .613225 .517256
3 1 .808442 .010053 .478381
4 1 .182586 .026081 .457093
5 1 .008642 .638731 .513270
6 1 .496636 .428409 .986447
7 1 .500916 .468111 .014698
ITEM: TIMESTEP
1
ITEM: NUMBER OF ATOMS
7
ITEM: BOX BOUNDS ss ss ss
-2.9991 3.2040
-2.4917 3.4955
-1.9443 1.9876
ITEM: ATOMS id type xs ys zs
1 1 .502678 .996404 .564861
2 1 .994875 .611882 .523597
3 1 .810933 .000692 .477667
4 1 .183641 .021283 .450740
5 1 .005552 .636131 .515234
6 1 .498002 .427762 .991323
7 1 .496701 .465942 .004026
ITEM: TIMESTEP
50
ITEM: NUMBER OF ATOMS
7
ITEM: BOX BOUNDS ss ss ss
-2.9991 3.2040
-2.5185 3.5074
-1.9663 1.9876
ITEM: ATOMS id type xs ys zs
1 1 .502386 .994781 .567731
2 1 .994470 .612356 .526394
3 1 .811750 .004565 .481233
4 1 .183477 .025729 .453588
5 1 .005648 .637110 .518163
6 1 .498281 .429276 .990783
7 1 .496405 .467034 .008911
ITEM: TIMESTEP
100
ITEM: NUMBER OF ATOMS
7
ITEM: BOX BOUNDS ss ss ss
-2.9992 3.2083
-2.5344 3.5261
-1.9752 1.9883
ITEM: ATOMS id type xs ys zs
1 1 .502240 .991636 .568864
2 1 .993086 .611640 .526623
3 1 .811212 .007079 .482888
4 1 .182760 .028004 .454993
5 1 .005176 .636257 .519620
6 1 .497730 .428730 .990426
7 1 .497096 .467145 .011062
ITEM: TIMESTEP
150
ITEM: NUMBER OF ATOMS
7
ITEM: BOX BOUNDS ss ss ss
-3.0092 3.2040
-2.5400 3.5185
-1.9681 1.9919
ITEM: ATOMS id type xs ys zs
1 1 .505668 .991511 .568270
2 1 .993540 .613042 .525131
3 1 .809781 .006553 .483244
4 1 .184843 .028614 .453469
5 1 .006125 .636798 .519081
6 1 .497486 .428586 .989948
7 1 .500532 .468373 .009978
ITEM: TIMESTEP
200
ITEM: NUMBER OF ATOMS
7
ITEM: BOX BOUNDS ss ss ss
-3.0142 3.2040
-2.5472 3.5175
-1.9716 1.9959
ITEM: ATOMS id type xs ys zs
1 1 .507185 .990496 .569589
2 1 .993497 .613320 .524746
3 1 .808232 .006529 .484474
4 1 .186020 .029023 .454152
5 1 .006345 .637216 .519374
6 1 .497166 .428811 .989286
7 1 .502122 .469195 .011591
ITEM: TIMESTEP
250
ITEM: NUMBER OF ATOMS
7
ITEM: BOX BOUNDS ss ss ss
-3.0218 3.2040
-2.5485 3.5286
-1.9665 1.9898
ITEM: ATOMS id type xs ys zs
1 1 .507036 .988645 .569710
2 1 .993616 .612235 .523556
3 1 .807735 .007061 .484586
4 1 .187144 .028306 .454720
5 1 .007370 .635789 .519019
6 1 .497654 .428410 .991156
7 1 .502785 .468526 .011355
ITEM: TIMESTEP
300
ITEM: NUMBER OF ATOMS
7
ITEM: BOX BOUNDS ss ss ss
-3.0278 3.2094
-2.5529 3.5049
-1.9708 1.9994
ITEM: ATOMS id type xs ys zs
1 1 .506382 .992879 .567352
2 1 .992840 .615113 .521687
3 1 .806776 .008115 .483732
4 1 .187823 .028159 .454723
5 1 .007930 .638566 .517749
6 1 .497134 .430876 .988642
7 1 .502610 .470606 .013597
ITEM: TIMESTEP
350
ITEM: NUMBER OF ATOMS
7
ITEM: BOX BOUNDS ss ss ss
-3.0252 3.2088
-2.5510 3.5077
-1.9638 2.0091
ITEM: ATOMS id type xs ys zs
1 1 .505579 .992852 .561907
2 1 .992790 .613887 .519185
3 1 .806225 .007757 .480439
4 1 .187978 .026722 .451610
5 1 .006974 .637723 .514669
6 1 .496182 .430579 .985691
7 1 .502351 .470778 .012156
ITEM: TIMESTEP
400
ITEM: NUMBER OF ATOMS
7
ITEM: BOX BOUNDS ss ss ss
-3.0357 3.2064
-2.5588 3.5170
-1.9674 2.0049
ITEM: ATOMS id type xs ys zs
1 1 .505888 .991336 .560234
2 1 .993189 .611980 .520716
3 1 .805847 .008878 .480451
4 1 .190648 .027072 .451323
5 1 .008370 .636233 .514394
6 1 .497159 .431065 .987256
7 1 .503236 .471543 .012227
ITEM: TIMESTEP
1
ITEM: NUMBER OF ATOMS
7
ITEM: BOX BOUNDS ss ss ss
-3.0088 3.2040
-2.5335 3.4955
-1.9524 1.9980
ITEM: ATOMS id type xs ys zs
1 1 .503452 .996427 .564274
2 1 .994887 .614577 .523202
3 1 .811230 .007631 .477495
4 1 .184910 .028082 .450684
5 1 .007095 .638655 .514876
6 1 .498779 .431739 .988744
7 1 .497485 .469648 .006063
ITEM: TIMESTEP
50
ITEM: NUMBER OF ATOMS
7
ITEM: BOX BOUNDS ss ss ss
-3.0088 3.2040
-2.5335 3.5064
-1.9616 1.9980
ITEM: ATOMS id type xs ys zs
1 1 .503176 .995027 .565839
2 1 .994431 .613471 .524441
3 1 .812129 .007006 .479410
4 1 .184792 .028181 .451656
5 1 .007151 .638225 .516178
6 1 .499085 .430747 .988111
7 1 .497152 .468367 .007732
ITEM: TIMESTEP
100
ITEM: NUMBER OF ATOMS
7
ITEM: BOX BOUNDS ss ss ss
-3.0088 3.2103
-2.5335 3.5163
-1.9649 1.9980
ITEM: ATOMS id type xs ys zs
1 1 .502972 .993649 .566524
2 1 .992732 .612578 .523753
3 1 .811325 .006838 .480275
4 1 .184332 .027809 .452317
5 1 .006896 .637756 .517083
6 1 .498590 .429364 .987997
7 1 .497947 .467857 .008845
ITEM: TIMESTEP
150
ITEM: NUMBER OF ATOMS
7
ITEM: BOX BOUNDS ss ss ss
-3.0088 3.2045
-2.5380 3.5207
-1.9738 1.9980
ITEM: ATOMS id type xs ys zs
1 1 .504045 .993362 .567774
2 1 .993073 .613060 .523519
3 1 .811715 .007523 .481283
4 1 .183989 .027954 .453805
5 1 .007400 .637373 .518261
6 1 .498560 .428838 .988316
7 1 .499301 .468139 .010944
ITEM: TIMESTEP
200
ITEM: NUMBER OF ATOMS
7
ITEM: BOX BOUNDS ss ss ss
-3.0088 3.2080
-2.5395 3.5292
-1.9850 1.9980
ITEM: ATOMS id type xs ys zs
1 1 .505481 .991375 .566981
2 1 .992900 .612121 .524545
3 1 .810790 .009221 .482705
4 1 .182540 .028507 .455312
5 1 .008334 .635895 .519644
6 1 .497675 .427746 .989477
7 1 .500197 .468099 .011436
ITEM: TIMESTEP
250
ITEM: NUMBER OF ATOMS
7
ITEM: BOX BOUNDS ss ss ss
-3.0088 3.2040
-2.5354 3.5224
-1.9903 1.9980
ITEM: ATOMS id type xs ys zs
1 1 .507029 .991940 .566453
2 1 .993770 .612676 .524402
3 1 .810762 .010108 .483778
4 1 .181942 .028183 .456194
5 1 .008667 .636174 .520736
6 1 .497327 .428060 .989256
7 1 .501066 .467936 .011532
ITEM: TIMESTEP
300
ITEM: NUMBER OF ATOMS
7
ITEM: BOX BOUNDS ss ss ss
-3.0088 3.2040
-2.5335 3.5212
-1.9883 2.0060
ITEM: ATOMS id type xs ys zs
1 1 .509032 .990714 .566698
2 1 .994520 .613860 .520671
3 1 .809532 .011345 .481797
4 1 .181700 .028197 .455461
5 1 .008753 .637122 .517846
6 1 .497293 .428302 .987064
7 1 .501604 .466786 .011293
ITEM: TIMESTEP
350
ITEM: NUMBER OF ATOMS
7
ITEM: BOX BOUNDS ss ss ss
-3.0060 3.2174
-2.5228 3.5249
-1.9884 2.0022
ITEM: ATOMS id type xs ys zs
1 1 .508287 .989515 .568234