ITEM: TIMESTEP
1
ITEM: NUMBER OF ATOMS
7
ITEM: BOX BOUNDS ss ss ss
-2.9687 3.1768
-2.4911 3.4777
-1.9321 1.9573
ITEM: ATOMS id type xs ys zs
1 1 .502657 .999452 .567750
2 1 .999598 .613758 .526087
3 1 .813245 .000821 .480000
4 1 .180529 .021282 .452293
5 1 .000817 .638115 .517273
6 1 .497759 .428984 .998953
7 1 .496428 .467465 .001147
ITEM: TIMESTEP
50
ITEM: NUMBER OF ATOMS
7
ITEM: BOX BOUNDS ss ss ss
-2.9942 3.1992
-2.5165 3.4998
-1.9554 1.9792
ITEM: ATOMS id type xs ys zs
1 1 .503351 .996067 .567253
2 1 .997439 .612112 .530386
3 1 .813003 .005367 .481670
4 1 .184064 .024056 .454530
5 1 .003516 .638225 .518588
6 1 .497532 .429116 .995469
7 1 .497345 .467449 .005401
ITEM: TIMESTEP
100
ITEM: NUMBER OF ATOMS
7
ITEM: BOX BOUNDS ss ss ss
-3.0031 3.2042
-2.5243 3.5083
-1.9636 1.9853
ITEM: ATOMS id type xs ys zs
1 1 .501880 .997699 .568849
2 1 .993677 .616205 .523934
3 1 .810044 .009074 .476470
4 1 .183739 .023794 .453739
5 1 .003951 .635916 .517131
6 1 .497317 .430212 .990463
7 1 .498741 .470071 .011596
ITEM: TIMESTEP
150
ITEM: NUMBER OF ATOMS
7
ITEM: BOX BOUNDS ss ss ss
-3.0055 3.2024
-2.5276 3.5099
-1.9657 1.9962
ITEM: ATOMS id type xs ys zs
1 1 .501684 .995852 .569225
2 1 .994258 .618683 .521852
3 1 .810780 .008961 .477519
4 1 .183284 .024357 .450289
5 1 .003965 .634277 .516970
6 1 .496570 .430572 .989363
7 1 .496747 .470827 .011328
ITEM: TIMESTEP
200
ITEM: NUMBER OF ATOMS
7
ITEM: BOX BOUNDS ss ss ss
-3.0125 3.2088
-2.5243 3.5166
-1.9625 2.0012
ITEM: ATOMS id type xs ys zs
1 1 .505150 .991887 .564509
2 1 .994234 .614752 .522378
3 1 .807426 .008603 .475069
4 1 .184506 .025388 .452294
5 1 .009920 .635623 .514968
6 1 .499548 .427663 .983805
7 1 .502684 .466822 .012654
ITEM: TIMESTEP
250
ITEM: NUMBER OF ATOMS
7
ITEM: BOX BOUNDS ss ss ss
-3.0120 3.2167
-2.5272 3.5185
-1.9545 2.0133
ITEM: ATOMS id type xs ys zs
1 1 .504718 .989177 .558173
2 1 .995176 .613598 .519988
3 1 .807008 .010758 .474628
4 1 .185355 .025311 .446901
5 1 .007110 .636586 .514627
6 1 .496891 .426925 .990595
7 1 .501628 .471303 .010283
ITEM: TIMESTEP
300
ITEM: NUMBER OF ATOMS
7
ITEM: BOX BOUNDS ss ss ss
-3.0148 3.2171
-2.5273 3.5280
-1.9572 2.0222
ITEM: ATOMS id type xs ys zs
1 1 .506452 .989768 .553645
2 1 .994022 .609106 .515589
3 1 .800146 .008940 .467957
4 1 .182298 .022607 .448894
5 1 .006787 .629009 .510924
6 1 .497912 .429870 .983939
7 1 .502431 .469186 .008347
ITEM: TIMESTEP
350
ITEM: NUMBER OF ATOMS
7
ITEM: BOX BOUNDS ss ss ss
-3.0117 3.2233
-2.5176 3.5138
-1.9520 2.0328
ITEM: ATOMS id type xs ys zs
1 1 .504966 .991569 .554887
2 1 .996004 .609558 .514630
3 1 .797876 .005786 .465254
4 1 .179221 .021006 .446797
5 1 .006206 .629235 .506308
6 1 .498783 .431402 .981209
7 1 .501294 .469930 .004808
ITEM: TIMESTEP
400
ITEM: NUMBER OF ATOMS
7
ITEM: BOX BOUNDS ss ss ss
-3.0108 3.2375
-2.5261 3.5077
-1.9591 2.0348
ITEM: ATOMS id type xs ys zs
1 1 .501861 .991878 .551106
2 1 .988975 .611683 .509516
3 1 .795518 .009332 .468613
4 1 .182607 .022148 .449735
5 1 .006891 .631265 .512253
6 1 .494633 .431473 .981420
7 1 .501045 .469778 .008965
ITEM: TIMESTEP
1
ITEM: NUMBER OF ATOMS
7
ITEM: BOX BOUNDS ss ss ss
-3.0020 3.2204
-2.4971 3.4848
-1.9410 2.0232
ITEM: ATOMS id type xs ys zs
1 1 .501533 .998342 .559762
2 1 .992384 .613466 .518359
3 1 .808767 .001558 .472561
4 1 .183404 .022399 .446329
5 1 .006217 .637645 .510397
6 1 .496999 .428832 .982539
7 1 .495592 .467562 .003216
ITEM: TIMESTEP
50
ITEM: NUMBER OF ATOMS
7
ITEM: BOX BOUNDS ss ss ss
-3.0020 3.2204
-2.5141 3.5029
-1.9580 2.0232
ITEM: ATOMS id type xs ys zs
1 1 .503158 .995066 .560717
2 1 .990471 .611054 .521462
3 1 .809645 .004025 .476006
4 1 .182856 .027430 .449570
5 1 .004195 .637745 .513686
6 1 .497900 .428226 .982209
7 1 .496349 .467746 .007586
ITEM: TIMESTEP
100
ITEM: NUMBER OF ATOMS
7
ITEM: BOX BOUNDS ss ss ss
-3.0029 3.2204
-2.5206 3.5112
-1.9632 2.0232
ITEM: ATOMS id type xs ys zs
1 1 .501532 .992333 .566918
2 1 .992572 .612565 .521068
3 1 .808308 .003578 .472714
4 1 .181846 .024289 .454846
5 1 .002609 .636763 .511363
6 1 .497857 .429458 .981859
7 1 .498393 .468323 .010147
ITEM: TIMESTEP
150
ITEM: NUMBER OF ATOMS
7
ITEM: BOX BOUNDS ss ss ss
-3.0057 3.2204
-2.5191 3.5166
-1.9681 2.0232
ITEM: ATOMS id type xs ys zs
1 1 .504243 .990548 .563121
2 1 .990058 .612133 .518864
3 1 .811014 .004469 .478163
4 1 .185262 .023032 .448598
5 1 .002268 .635411 .525857
6 1 .494704 .425461 .983483
7 1 .499555 .464391 .013138
ITEM: TIMESTEP
200
ITEM: NUMBER OF ATOMS
7
ITEM: BOX BOUNDS ss ss ss
-3.0102 3.2204
-2.5200 3.5138
-1.9782 2.0232
ITEM: ATOMS id type xs ys zs
1 1 .501894 .997060 .564769
2 1 .993301 .610931 .519228
3 1 .804163 .005947 .477974
4 1 .178020 .025555 .453149
5 1 .003290 .634646 .515166
6 1 .495341 .428272 .979058
7 1 .496869 .469729 .013610
ITEM: TIMESTEP
250
ITEM: NUMBER OF ATOMS
7
ITEM: BOX BOUNDS ss ss ss
-3.0163 3.2204
-2.5104 3.5083
-1.9801 2.0232
ITEM: ATOMS id type xs ys zs
1 1 .506185 .990925 .561752
2 1 .992980 .610776 .514333
3 1 .809359 .005525 .472700
4 1 .185090 .023976 .459369
5 1 .007248 .635767 .511434
6 1 .495846 .426914 .990614
7 1 .498394 .467891 .013323
ITEM: TIMESTEP
300
ITEM: NUMBER OF ATOMS
7
ITEM: BOX BOUNDS ss ss ss
-3.0151 3.2253
-2.5179 3.5133
-1.9644 2.0232
ITEM: ATOMS id type xs ys zs
1 1 .504269 .994940 .563391
2 1 .996209 .611344 .517216
3 1 .805597 .011499 .476050
4 1 .186808 .029308 .448588
5 1 .005949 .632421 .517052
6 1 .494550 .433432 .988335
7 1 .502032 .474465 .014614
ITEM: TIMESTEP
350
ITEM: NUMBER OF ATOMS
7
ITEM: BOX BOUNDS ss ss ss
-3.0214 3.2311
-2.5133 3.5119
-1.9549 2.0232
ITEM: ATOMS id type xs ys zs
1 1 .504904 .995696 .563544
2 1 .995741 .610955 .515292
3 1 .804591 .012214 .475773
4 1 .187083 .027798 .447229
5 1 .007085 .631897 .517929
6 1 .494693 .433393 .988454
7 1 .504166 .471807 .009697
ITEM: TIMESTEP
400
ITEM: NUMBER OF ATOMS
7
ITEM: BOX BOUNDS ss ss ss
-3.0245 3.2418
-2.5114 3.5175
-1.9454 2.0255
ITEM: ATOMS id type xs ys zs
1 1 .503734 .991106 .558271
2 1 .990107 .610514 .518514
3 1 .804773 .010525 .476735
4 1 .188257 .023845 .445203
5 1 .007897 .635937 .514672
6 1 .493572 .428218 .990991
7 1 .500593 .470883 .009729
ITEM: TIMESTEP
1
ITEM: NUMBER OF ATOMS
7
ITEM: BOX BOUNDS ss ss ss
-3.0020 3.2363
-2.4971 3.5038
-1.9410 2.0232
ITEM: ATOMS id type xs ys zs
1 1 .500363 .994804 .559570
2 1 .989899 .611322 .518411
3 1 .806890 .001461 .472796
4 1 .183379 .021952 .446646
5 1 .005871 .635632 .510408
6 1 .495493 .427567 .982589
7 1 .493970 .465884 .003645
ITEM: TIMESTEP
50
ITEM: NUMBER OF ATOMS
7
ITEM: BOX BOUNDS ss ss ss
-3.0020 3.2363
-2.5162 3.5038
-1.9556 2.0232
ITEM: ATOMS id type xs ys zs
1 1 .498881 .994956 .562590
2 1 .989785 .614035 .520361
3 1 .808286 .004502 .473918
4 1 .181931 .024028 .449072
5 1 .007625 .636416 .513662
6 1 .496652 .428880 .980874
7 1 .492748 .465704 .006750
ITEM: TIMESTEP
100
ITEM: NUMBER OF ATOMS
7
ITEM: BOX BOUNDS ss ss ss
-3.0041 3.2363
-2.5232 3.5131
-1.9609 2.0232
ITEM: ATOMS id type xs ys zs
1 1 .502160 .993944 .565862
2 1 .988191 .609775 .517297
3 1 .808005 .005650 .477706
4 1 .184040 .024475 .446861
5 1 .005230 .639492 .513101
6 1 .494628 .428656 .980541
7 1 .496664 .466168 .007257
ITEM: TIMESTEP
150
ITEM: NUMBER OF ATOMS
7
ITEM: BOX BOUNDS ss ss ss
-3.0083 3.2363
-2.5285 3.5155
-1.9683 2.0232
ITEM: ATOMS id type xs ys zs
1 1 .504426 .989741 .559978
2 1 .992380 .613216 .518385
3 1 .804918 .011432 .476824
4 1 .184729 .024429 .449201
5 1 .005095 .634096 .513130
6 1 .497445 .430938 .986012
7 1 .496371 .469400 .014962
ITEM: TIMESTEP
200
ITEM: NUMBER OF ATOMS
7
ITEM: BOX BOUNDS ss ss ss
-3.0129 3.2363
-2.5265 3.5135
-1.9562 2.0232
ITEM: ATOMS id type xs ys zs
1 1 .505928 .991173 .555602
2 1 .991465 .612466 .515688
3 1 .803929 .008381 .475509
4 1 .186979 .024202 .454765
5 1 .010271 .634714 .510136
6 1 .495021 .429913 .982431
7 1 .498560 .468031 .008213
ITEM: TIMESTEP
250
ITEM: NUMBER OF ATOMS
7
ITEM: BOX BOUNDS ss ss ss
-3.0132 3.2363
-2.5131 3.5101
-1.9660 2.0232
ITEM: ATOMS id type xs ys zs
1 1 .504570 .991390 .555829
2 1 .991651 .612773 .520066
3 1 .803057 .007012 .475893
4 1 .185597 .022028 .455296
5 1 .010599 .636342 .511911
6 1 .497677 .430295 .985390
7 1 .493098 .467671 .010266
ITEM: TIMESTEP
300
ITEM: NUMBER OF ATOMS
7
ITEM: BOX BOUNDS ss ss ss
-3.0168 3.2363
-2.5174 3.5092
-1.9743 2.0232
ITEM: ATOMS id type xs ys zs
1 1 .507636 .992391 .562175
2 1 .991955 .610644 .517042
3 1 .805794 .004127 .473692
4 1 .188532 .021998 .456448
5 1 .006146 .630276 .522773
6 1 .498467 .430731 .986492
7 1 .497932 .467905 .020733
ITEM: TIMESTEP
350
ITEM: NUMBER OF ATOMS
7
ITEM: BOX BOUNDS ss ss ss
-3.0162 3.2363
-2.5088 3.5145
-1.9693 2.0232
ITEM: ATOMS id type xs ys zs
1 1 .507279 .991341 .558981
2 1 .992348 .613443 .516602
3 1 .803062 .007657 .471471
4 1 .187886 .020192 .451508
5 1 .006456 .631829 .518923
6 1 .496564 .430600 .985314
7 1 .499213 .471792 .008113
ITEM: TIMESTEP
400
ITEM: NUMBER OF ATOMS
7
ITEM: BOX BOUNDS ss ss ss
-3.0177 3.2363
-2.5119 3.5125
-1.9642 2.0232
ITEM: ATOMS id type xs ys zs
1 1 .509313 .998049 .555074
2 1 .994657 .614407 .506101
3 1 .800650 .008899 .469986
4 1 .183713 .022073 .455555
5 1 .012766 .634299 .519633
6 1 .497576 .431876 .989120
7 1 .501613 .473342 .016827
ITEM: TIMESTEP
1
ITEM: NUMBER OF ATOMS
7
ITEM: BOX BOUNDS ss ss ss
-3.0020 3.2363
-2.4971 3.5038
-1.9410 2.0232
ITEM: ATOMS id type xs ys zs
1 1 .500201 .994685 .559596
2 1 .990032 .611323 .518563
3 1 .806812 .001708 .472926
4 1 .182804 .022180 .446315
5 1 .006096 .635660 .509916
6 1 .496022 .427551 .982307
7 1 .494397 .465954 .002871
ITEM: TIMESTEP
50
ITEM: NUMBER OF ATOMS
7
ITEM: BOX BOUNDS ss ss ss
-3.0020 3.2363
-2.5154 3.5038
-1.9608 2.0232
ITEM: ATOMS id type xs ys zs
1 1 .501573 .993059 .561863
2 1 .990911 .611826 .521299
3 1 .807626 .006123 .476464
4 1 .182529 .026165 .449813
5 1 .007152 .636505 .512282
6 1 .494190 .427988 .982523
7 1 .492673 .466513 .005303
ITEM: TIMESTEP
100
ITEM: NUMBER OF ATOMS
7
ITEM: BOX BOUNDS ss ss ss
-3.0038 3.2363
-2.5248 3.5139
-1.9615 2.0232
ITEM: ATOMS id type xs ys zs
1 1 .501598 .994349 .554638
2 1 .988510 .613670 .518480
3 1 .806121 .003700 .474770
4 1 .184952 .027253 .444368
5 1 .004257 .636349 .515206
6 1 .494693 .428674 .982624
7 1 .493594 .467465 .008815
ITEM: TIMESTEP
150
ITEM: NUMBER OF ATOMS
7
ITEM: BOX BOUNDS ss ss ss
-3.0130 3.2363
-2.5281 3.5209
-1.9654 2.0232
ITEM: ATOMS id type xs ys zs
1 1 .501602 .994510 .565129
2 1 .991200 .610371 .517037
3 1 .804415 .005832 .474219
4 1 .184153 .023282 .450215
5 1 .007032 .634251 .511790
6 1 .497847 .429338 .977556
7 1 .498273 .464194 .010531
ITEM: TIMESTEP
200
ITEM: NUMBER OF ATOMS
7
ITEM: BOX BOUNDS ss ss ss
-3.0200 3.2363
-2.5325 3.5149
-1.9669 2.0232
ITEM: ATOMS id type xs ys zs
1 1 .505355 .990210 .563834
2 1 .988463 .614130 .520782
3 1 .805895 .013093 .476369
4 1 .183317 .025745 .455997
5 1 .006862 .637364 .522815
6 1 .495700 .433084 .981396
7 1 .496632 .467910 .011786
ITEM: TIMESTEP
250
ITEM: NUMBER OF ATOMS
7
ITEM: BOX BOUNDS ss ss ss
-3.0295 3.2363
-2.5258 3.5169
-1.9696 2.0232
ITEM: ATOMS id type xs ys zs
1 1 .503693 .992544 .562025
2 1 .988465 .614773 .516120
3 1 .807863 .011261 .478290
4 1 .186790 .024599 .452475
5 1 .010585 .637950 .514572
6 1 .492939 .428125 .981394
7 1 .499858 .467807 .010952
ITEM: TIMESTEP
300
ITEM: NUMBER OF ATOMS
7
ITEM: BOX BOUNDS ss ss ss
-3.0314 3.2363
-2.5296 3.5188
-1.9654 2.0232
ITEM: ATOMS id type xs ys zs
1 1 .503198 .992339 .560268
2 1 .991831 .614844 .518713
3 1 .802532 .012297 .481812
4 1 .188754 .023992 .451727
5 1 .007068 .634286 .521096
6 1 .494990 .432044 .979507
7 1 .499640 .469950 .014236
ITEM: TIMESTEP
350
ITEM: NUMBER OF ATOMS
7
ITEM: BOX BOUNDS ss ss ss
-3.0328 3.2363
-2.5202 3.5156
-1.9738 2.0232
ITEM: ATOMS id type xs ys zs
1 1 .504691 .991922 .564136
2 1 .994229 .614608 .513970
3 1 .800362 .011872 .483201
4 1 .183378 .020125 .459707
5 1 .010961 .633961 .517854
6 1 .497407 .429078 .982451
7 1 .497761 .467766 .016069
ITEM: TIMESTEP
400
ITEM: NUMBER OF ATOMS
7
ITEM: BOX BOUNDS ss ss ss
-3.0349 3.2394
-2.5149 3.5221
-1.9677 2.0171
ITEM: ATOMS id type xs ys zs
1 1 .504338 .991646 .561275
2 1 .993627 .615804 .513200
3 1 .801281 .009942 .483513
4 1 .184371 .019674 .457989
5 1 .010593 .634322 .516291
6 1 .498420 .426794 .985915
7 1 .496843 .466601 .016840
ITEM: TIMESTEP
1
ITEM: NUMBER OF ATOMS
7
ITEM: BOX BOUNDS ss ss ss
-3.0006 3.2103
-2.4911 3.4935
-1.9434 2.0095
ITEM: ATOMS id type xs ys zs
1 1 .502230 .996731 .561457
2 1 .994034 .611918 .520774
3 1 .810081 .000527 .475140
4 1 .183551 .021186 .448192
5 1 .005845 .635992 .512496
6 1 .497449 .427747 .985764
7 1 .496197 .466345 .003772
ITEM: TIMESTEP
50
ITEM: NUMBER OF ATOMS
7
ITEM: BOX BOUNDS ss ss ss
-3.0006 3.2103
-2.5203 3.5058
-1.9554 2.0095
ITEM: ATOMS id type xs ys zs
1 1 .505155 .994903 .564874
2 1 .992622 .612332 .519398
3 1 .810546 .006385 .476636
4 1 .183913 .025325 .450974
5 1 .005709 .638355 .512694
6 1 .496687 .429716 .981474
7 1 .494225 .468484 .003923
ITEM: TIMESTEP
100
ITEM: NUMBER OF ATOMS
7
ITEM: BOX BOUNDS ss ss ss
-3.0052 3.2103
-2.5254 3.5125
-1.9655 2.0095
ITEM: ATOMS id type xs ys zs
1 1 .503078 .993914 .565334
2 1 .992034 .611046 .514508
3 1 .809904 .004195 .476163
4 1 .181189 .026954 .455314
5 1 .006498 .634311 .516967
6 1 .499708 .431014 .987072
7 1 .496877 .471205 .012302
ITEM: TIMESTEP
150
ITEM: NUMBER OF ATOMS
7
ITEM: BOX BOUNDS ss ss ss
-3.0204 3.2103
-2.5298 3.5156
-1.9707 2.0095
ITEM: ATOMS id type xs ys zs
1 1 .503837 .991518 .562648
2 1 .992102 .613676 .524493
3 1 .813282 .008282 .483063
4 1 .185723 .024109 .452053
5 1 .007003 .633280 .519877
6 1 .496871 .428902 .986565
7 1 .501287 .465067 .006931
ITEM: TIMESTEP
200
ITEM: NUMBER OF ATOMS
7
ITEM: BOX BOUNDS ss ss ss
-3.0282 3.2218
-2.5300 3.5198
-1.9611 2.0095
ITEM: ATOMS id type xs ys zs
1 1 .504494 .990559 .557892
2 1 .991958 .616021 .522268
3 1 .808376 .006964 .481498
4 1 .184513 .028056 .450930
5 1 .006037 .635074 .519766
6 1 .496290 .425329 .983816
7 1 .501961 .467917 .008379
ITEM: TIMESTEP
250
ITEM: NUMBER OF ATOMS
7
ITEM: BOX BOUNDS ss ss ss
-3.0280 3.2204
-2.5332 3.5209
-1.9629 2.0095
ITEM: ATOMS id type xs ys zs
1 1 .502145 .990079 .558193
2 1 .990432 .616330 .518026
3 1 .809946 .006615 .486537
4 1 .185328 .029653 .449656
5 1 .005045 .635664 .521272
6 1 .497084 .422728 .984267
7 1 .502360 .469529 .006777
ITEM: TIMESTEP
300
ITEM: NUMBER OF ATOMS
7
ITEM: BOX BOUNDS ss ss ss
-3.0271 3.2238
-2.5338 3.5302
-1.9561 2.0095
ITEM: ATOMS id type xs ys zs
1 1 .503847 .988205 .562498
2 1 .991809 .610117 .514420
3 1 .804418 .010189 .475370
4 1 .187110 .029708 .451873
5 1 .006165 .636513 .510175
6 1 .496468 .429891 .986871
7 1 .497857 .470031 .010063
ITEM: TIMESTEP
350
ITEM: NUMBER OF ATOMS
7
ITEM: BOX BOUNDS ss ss ss
-3.0315 3.2225
-2.5192 3.5225
-1.9570 2.0095
ITEM: ATOMS id type xs ys zs
1 1 .507899 .993413 .561525
2 1 .995175 .613017 .515053
3 1 .808104 .010112 .477921
4 1 .190547 .020836 .445315
5 1 .010273 .636922 .500082
6 1 .499789 .426598 .984354
7 1 .505549 .469872 .012461
ITEM: TIMESTEP
400
ITEM: NUMBER OF ATOMS
7
ITEM: BOX BOUNDS ss ss ss
-3.0414 3.2271
-2.5176 3.5264
-1.9653 2.0109
ITEM: ATOMS id type xs ys zs
1 1 .507061 .988989 .566791
2 1 .990929 .609451 .515043
3 1 .805439 .009996 .475436
4 1 .186191 .029749 .450791
5 1 .008161 .634669 .515734
6 1 .495989 .429906 .993025
7 1 .497398 .473149 .010449
ITEM: TIMESTEP
1
ITEM: NUMBER OF ATOMS
7
ITEM: BOX BOUNDS ss ss ss
-3.0178 3.2088
-2.4991 3.5058
-1.9472 1.9905
ITEM: ATOMS id type xs ys zs
1 1 .503940 .994776 .564974
2 1 .994262 .611319 .523637
3 1 .810980 .002079 .477313
4 1 .186108 .022578 .450937
5 1 .008721 .635300 .515377
6 1 .498863 .428036 .990484
7 1 .497981 .465622 .004813
ITEM: TIMESTEP
50
ITEM: NUMBER OF ATOMS
7
ITEM: BOX BOUNDS ss ss ss
-3.0178 3.2088
-2.5222 3.5058
-1.9581 1.9905
ITEM: ATOMS id type xs ys zs
1 1 .504566 .996059 .566553
2 1 .992146 .613184 .523892
3 1 .811141 .004754 .477920
4 1 .185944 .028369 .452857
5 1 .009336 .636778 .515368
6 1 .499918 .429020 .991771
7 1 .498591 .466238 .005280
ITEM: TIMESTEP
100
ITEM: NUMBER OF ATOMS
7
ITEM: BOX BOUNDS ss ss ss
-3.0178 3.2088
-2.5209 3.5144
-1.9732 1.9905
ITEM: ATOMS id type xs ys zs
1 1 .504553 .994842 .567024
2 1 .993755 .612095 .528462
3 1 .813220 .005350 .481428
4 1 .183730 .028522 .455411
5 1 .011167 .635862 .519357
6 1 .499549 .426760 .992619
7 1 .498708 .465159 .013454
ITEM: TIMESTEP
150
ITEM: NUMBER OF ATOMS
7
ITEM: BOX BOUNDS ss ss ss
-3.0178 3.2088
-2.5249 3.5154
-1.9702 1.9939
ITEM: ATOMS id type xs ys zs
1 1 .504923 .993172 .570539
2 1 .995292 .609690 .522444
3 1 .814489 .008979 .482364
4 1 .185571 .025832 .452439
5 1 .006534 .636890 .516819
6 1 .499436 .431486 .989453
7 1 .500808 .464943 .012493
ITEM: TIMESTEP
200
ITEM: NUMBER OF ATOMS
7
ITEM: BOX BOUNDS ss ss ss
-3.0178 3.2088
-2.5281 3.5112
-1.9663 1.9924
ITEM: ATOMS id type xs ys zs
1 1 .507026 .994367 .564294
2 1 .994285 .614964 .523037
3 1 .811283 .009473 .479237
4 1 .185885 .023689 .450241
5 1 .004837 .636872 .517481
6 1 .494041 .428831 .987325
7 1 .505271 .466765 .014341
ITEM: TIMESTEP
250
ITEM: NUMBER OF ATOMS
7
ITEM: BOX BOUNDS ss ss ss
-3.0329 3.2156
-2.5269 3.5223
-1.9612 1.9968
ITEM: ATOMS id type xs ys zs
1 1 .500475 .989708 .564728
2 1 .993658 .608889 .515269
3 1 .810153 .006581 .488373
4 1 .187509 .027172 .448074
5 1 .008524 .630772 .512147
6 1 .496147 .425388 .992843
7 1 .501955 .468856 .009089
ITEM: TIMESTEP
300
ITEM: NUMBER OF ATOMS
7
ITEM: BOX BOUNDS ss ss ss
-3.0316 3.2149
-2.5296 3.5119
-1.9665 2.0023
ITEM: ATOMS id type xs ys zs
1 1 .506436 .991075 .556757
2 1 .994790 .619698 .520833
3 1 .808872 .007503 .484760
4 1 .183214 .026594 .456055
5 1 .007070 .637892 .505016
6 1 .497647 .429525 .990255
7 1 .504281 .469794 .017732
ITEM: TIMESTEP
350
ITEM: NUMBER OF ATOMS
7
ITEM: BOX BOUNDS ss ss ss
-3.0351 3.2255
-2.5215 3.5160
-1.9610 2.0179
ITEM: ATOMS id type xs ys zs
1 1 .504821 .993900 .558132
2 1 .988207 .615951 .520024
3 1 .810736 .011329 .480330
4 1 .185616 .027291 .447512
5 1 .009781 .633941 .508298
6 1 .496054 .429530 .988113
7 1 .505467 .470102 .009519
ITEM: TIMESTEP
400
ITEM: NUMBER OF ATOMS
7
ITEM: BOX BOUNDS ss ss ss
-3.0293 3.2365
-2.5233 3.5164
-1.9680 2.0143
ITEM: ATOMS id type xs ys zs
1 1 .503374 .988720 .557773
2 1 .991920 .616576 .516753
3 1 .803968 .015592 .478777
4 1 .181943 .029517 .451934
5 1 .007137 .632278 .510777
6 1 .496272 .432458 .987349
7 1 .502099 .467197 .006742
ITEM: TIMESTEP
1
ITEM: NUMBER OF ATOMS
7
ITEM: BOX BOUNDS ss ss ss
-3.0178 3.2127
-2.5051 3.5058
-1.9472 1.9917
ITEM: ATOMS id type xs ys zs
1 1 .503126 .994764 .564937
2 1 .993614 .611764 .523072
3 1 .810215 .002740 .477610
4 1 .185887 .023610 .451157
5 1 .008435 .635868 .515256
6 1 .498719 .428069 .990332
7 1 .497367 .466193 .004545
ITEM: TIMESTEP
50
ITEM: NUMBER OF ATOMS
7
ITEM: BOX BOUNDS ss ss ss
-3.0178 3.2127
-2.5177 3.5058
-1.9599 1.9917
ITEM: ATOMS id type xs ys zs
1 1 .502767 .994672 .565795
2 1 .993372 .612628 .525920
3 1 .810678 .005603 .480596
4 1 .183800 .024174 .452156
5 1 .008544 .638107 .517227
6 1 .495884 .428569 .990758
7 1 .496044 .468968 .009326
ITEM: TIMESTEP
100
ITEM: NUMBER OF ATOMS
7
ITEM: BOX BOUNDS ss ss ss
-3.0178 3.2127
-2.5245 3.5185
-1.9711 1.9930
ITEM: ATOMS id type xs ys zs
1 1 .506556 .992710 .570661
2 1 .991698 .613141 .524012
3 1 .810684 .009177 .479105
4 1 .185722 .026657 .454092
5 1 .006440 .637908 .517914
6 1 .498063 .424901 .986795
7 1 .498544 .464802 .004164
ITEM: TIMESTEP
150
ITEM: NUMBER OF ATOMS
7
ITEM: BOX BOUNDS ss ss ss
-3.0178 3.2127
-2.5306 3.5239
-1.9751 1.9947
ITEM: ATOMS id type xs ys zs
1 1 .506056 .992928 .564693
2 1 .990791 .613581 .529445
3 1 .811300 .006890 .479528
4 1 .186326 .022429 .456488
5 1 .008311 .634722 .517372
6 1 .496545 .430088 .994360
7 1 .496149 .466950 .018340
ITEM: TIMESTEP
200
ITEM: NUMBER OF ATOMS
7
ITEM: BOX BOUNDS ss ss ss
-3.0178 3.2127
-2.5417 3.5258
-1.9660 2.0029
ITEM: ATOMS id type xs ys zs
1 1 .501040 .990841 .566159
2 1 .988737 .613270 .528161
3 1 .806469 .011083 .479055
4 1 .185786 .028268 .452248
5 1 .009902 .633932 .516036
6 1 .498326 .429433 .990935
7 1 .500962 .466947 .012934
ITEM: TIMESTEP
250
ITEM: NUMBER OF ATOMS
7
ITEM: BOX BOUNDS ss ss ss
-3.0199 3.2127
-2.5197 3.5271
-1.9594 1.9979
ITEM: ATOMS id type xs ys zs
1 1 .504094 .993190 .560470
2 1 .990597 .612475 .513268
3 1 .806628 .007052 .472065
4 1 .188135 .020991 .454767
5 1 .007051 .632871 .513146
6 1 .495575 .427066 .984357
7 1 .497172 .468730 .009308
ITEM: TIMESTEP
300
ITEM: NUMBER OF ATOMS
7
ITEM: BOX BOUNDS ss ss ss
-3.0211 3.2127
-2.5236 3.5229
-1.9634 1.9984
ITEM: ATOMS id type xs ys zs
1 1 .508051 .991728 .565488
2 1 .992897 .609196 .518974
3 1 .807289 .008788 .470412
4 1 .187365 .023889 .454442
5 1 .006671 .635563 .514310
6 1 .493469 .427244 .985862
7 1 .495624 .470436 .006677
ITEM: TIMESTEP
350
ITEM: NUMBER OF ATOMS
7
ITEM: BOX BOUNDS ss ss ss
-3.0320 3.2127
-2.5213 3.5246
-1.9704 2.0033
ITEM: ATOMS id type xs ys zs
1 1 .506063 .993078 .563409
2 1 .994838 .615406 .514035
3 1 .808871 .011176 .467261
4 1 .189732 .027196 .454786
5 1 .011379 .633285 .514798
6 1 .498670 .432349 .987967
7 1 .501528 .469149 .015646
ITEM: TIMESTEP
400
ITEM: NUMBER OF ATOMS
7
ITEM: BOX BOUNDS ss ss ss
-3.0349 3.2108
-2.5219 3.5221
-1.9699 2.0019
ITEM: ATOMS id type xs ys zs
1 1 .506221 .992412 .561600
2 1 .994228 .617315 .513425
3 1 .810681 .010635 .467997
4 1 .188101 .027334 .457360
5 1 .011920 .633202 .516957
6 1 .498211 .431854 .990511
7 1 .502262 .468739 .016069
ITEM: TIMESTEP
1
ITEM: NUMBER OF ATOMS
7
ITEM: BOX BOUNDS ss ss ss
-3.0178 3.2093
-2.4993 3.5058
-1.9472 1.9905
ITEM: ATOMS id type xs ys zs
1 1 .503644 .994657 .564956
2 1 .994252 .611513 .523622
3 1 .810897 .001881 .477695
4 1 .185786 .022705 .450535
5 1 .008442 .635855 .515273
6 1 .498940 .427493 .990832
7 1 .497673 .465796 .005106
ITEM: TIMESTEP
50
ITEM: NUMBER OF ATOMS
7
ITEM: BOX BOUNDS ss ss ss
-3.0178 3.2093
-2.5176 3.5058
-1.9603 1.9905
ITEM: ATOMS id type xs ys zs
1 1 .504480 .994721 .566911
2 1 .994945 .611460 .523978
3 1 .811895 .003819 .480246
4 1 .186351 .026220 .450946
5 1 .008181 .635558 .515161
6 1 .498157 .427709 .991737
7 1 .495778 .466906 .008572
ITEM: TIMESTEP
100
ITEM: NUMBER OF ATOMS
7
ITEM: BOX BOUNDS ss ss ss
-3.0178 3.2093
-2.5304 3.5123
-1.9733 2.0101
ITEM: ATOMS id type xs ys zs
1 1 .508363 .994964 .564620
2 1 .990745 .614409 .524970
3 1 .811669 .007098 .482698
4 1 .186201 .025276 .452358
5 1 .010445 .637105 .520582
6 1 .495364 .430710 .982733
7 1 .501012 .465420 .011657
ITEM: TIMESTEP
150
ITEM: NUMBER OF ATOMS
7
ITEM: BOX BOUNDS ss ss ss
-3.0178 3.2093
-2.5301 3.5177
-1.9713 2.0118
ITEM: ATOMS id type xs ys zs
1 1 .504484 .997222 .568134
2 1 .992170 .611311 .516885
3 1 .812015 .009732 .477832
4 1 .182281 .023247 .451140
5 1 .005231 .635110 .511226
6 1 .499099 .432001 .980101
7 1 .500265 .468522 .015979
ITEM: TIMESTEP
200
ITEM: NUMBER OF ATOMS
7
ITEM: BOX BOUNDS ss ss ss
-3.0197 3.2093
-2.5427 3.5275
-1.9679 2.0134
ITEM: ATOMS id type xs ys zs
1 1 .504678 .993835 .559145
2 1 .995725 .613921 .512197
3 1 .812980 .010672 .475871
4 1 .181502 .025868 .455371
5 1 .007292 .636661 .508834
6 1 .502696 .434173 .982090
7 1 .498921 .465909 .015084
ITEM: TIMESTEP
250
ITEM: NUMBER OF ATOMS
7
ITEM: BOX BOUNDS ss ss ss
-3.0178 3.2112
-2.5335 3.5233
-1.9780 2.0112
ITEM: ATOMS id type xs ys zs
1 1 .504213 .993181 .559349
2 1 .990086 .614336 .523991
3 1 .814356 .005672 .479282
4 1 .187248 .024695 .452683
5 1 .004209 .635897 .516553
6 1 .499233 .432143 .982967
7 1 .498122 .469891 .013477
ITEM: TIMESTEP
300
ITEM: NUMBER OF ATOMS
7
ITEM: BOX BOUNDS ss ss ss
-3.0238 3.2088
-2.5262 3.5313
-1.9763 2.0127
ITEM: ATOMS id type xs ys zs
1 1 .507289 .987212 .558235
2 1 .997680 .612116 .514006
3 1 .812642 .008725 .480419
4 1 .185524 .025226 .451943
5 1 .006182 .639076 .516800
6 1 .500500 .425883 .990814
7 1 .504896 .464381 .020042
ITEM: TIMESTEP
350
ITEM: NUMBER OF ATOMS
7
ITEM: BOX BOUNDS ss ss ss
-3.0172 3.2121
-2.5170 3.5276
-1.9676 2.0160
ITEM: ATOMS id type xs ys zs
1 1 .506700 .988228 .559644
2 1 .996630 .611802 .511522
3 1 .812964 .007362 .476975
4 1 .183328 .024544 .450747
5 1 .004248 .639248 .517488
6 1 .498825 .424293 .989043
7 1 .504564 .462321 .017048
ITEM: TIMESTEP
400
ITEM: NUMBER OF ATOMS
7
ITEM: BOX BOUNDS ss ss ss
-3.0222 3.2124
-2.5231 3.5219
-1.9704 2.0119
ITEM: ATOMS id type xs ys zs
1 1 .504721 .993063 .558953
2 1 .995238 .616441 .517876
3 1 .809587 .013050 .471989
4 1 .176283 .024210 .461738
5 1 .007516 .636231 .517273
6 1 .496903 .428314 .983913
7 1 .499758 .464382 .016275
ITEM: TIMESTEP
1
ITEM: NUMBER OF ATOMS
7
ITEM: BOX BOUNDS ss ss ss
-2.9991 3.2040
-2.4917 3.4955
-1.9443 1.9876
ITEM: ATOMS id type xs ys zs
1 1 .502785 .996155 .564757
2 1 .994503 .611930 .523250
3 1 .811143 .000422 .477557
4 1 .183520 .021013 .451565
5 1 .005598 .636084 .514956
6 1 .498154 .427920 .991527
7 1 .496685 .465957 .003536
ITEM: TIMESTEP
50
ITEM: NUMBER OF ATOMS
7
ITEM: BOX BOUNDS ss ss ss
-2.9991 3.2040
-2.5185 3.5074
-1.9663 1.9876
ITEM: ATOMS id type xs ys zs
1 1 .503502 .994986 .569950
2 1 .993582 .612149 .527061
3 1 .811200 .004957 .482234
4 1 .183228 .026032 .453549
5 1 .005959 .637376 .521744
6 1 .497875 .429865 .990161
7 1 .497160 .468720 .007168
ITEM: TIMESTEP
100
ITEM: NUMBER OF ATOMS
7
ITEM: BOX BOUNDS ss ss ss
-2.9992 3.2083
-2.5344 3.5261
-1.9752 1.9883
ITEM: ATOMS id type xs ys zs
1 1 .503529 .988653 .565889
2 1 .992938 .613918 .525256
3 1 .809014 .005711 .482255
4 1 .185181 .028301 .456198
5 1 .006243 .638090 .519805
6 1 .496369 .429614 .991093
7 1 .496058 .465802 .011540
ITEM: TIMESTEP
150
ITEM: NUMBER OF ATOMS
7
ITEM: BOX BOUNDS ss ss ss
-3.0092 3.2040
-2.5400 3.5185
-1.9681 1.9919
ITEM: ATOMS id type xs ys zs
1 1 .506908 .989895 .566706
2 1 .995491 .614370 .525372
3 1 .812298 .004729 .484450
4 1 .183038 .030685 .452440
5 1 .006489 .635190 .517650
6 1 .498513 .428556 .988306
7 1 .498277 .466800 .006088
ITEM: TIMESTEP
200
ITEM: NUMBER OF ATOMS
7
ITEM: BOX BOUNDS ss ss ss
-3.0142 3.2040
-2.5472 3.5175
-1.9716 1.9959
ITEM: ATOMS id type xs ys zs
1 1 .507912 .991409 .570528
2 1 .989843 .614457 .522971
3 1 .808639 .006870 .485275
4 1 .186518 .027529 .458175
5 1 .004378 .636029 .516637
6 1 .496363 .427882 .986713
7 1 .502519 .468248 .012732
ITEM: TIMESTEP
250
ITEM: NUMBER OF ATOMS
7
ITEM: BOX BOUNDS ss ss ss
-3.0218 3.2040
-2.5485 3.5286
-1.9665 1.9898
ITEM: ATOMS id type xs ys zs
1 1 .509834 .988849 .569225
2 1 .995956 .610567 .524930
3 1 .812446 .006807 .481843
4 1 .184787 .027123 .447826
5 1 .012769 .636419 .522188
6 1 .499391 .427784 .988295
7 1 .501326 .467821 .007955
ITEM: TIMESTEP
300
ITEM: NUMBER OF ATOMS
7
ITEM: BOX BOUNDS ss ss ss
-3.0278 3.2094
-2.5529 3.5049
-1.9708 1.9994
ITEM: ATOMS id type xs ys zs
1 1 .507766 .992664 .563525
2 1 .992516 .611801 .517169
3 1 .810495 .004437 .481872
4 1 .187508 .029643 .453980
5 1 .010183 .637344 .514124
6 1 .501140 .431911 .985375
7 1 .503863 .470740 .014779
ITEM: TIMESTEP
350
ITEM: NUMBER OF ATOMS
7
ITEM: BOX BOUNDS ss ss ss
-3.0252 3.2088
-2.5510 3.5077
-1.9638 2.0091
ITEM: ATOMS id type xs ys zs
1 1 .506575 .992506 .562904
2 1 .992869 .614304 .517598
3 1 .804462 .007883 .474638
4 1 .185856 .023389 .452542
5 1 .005771 .639072 .518654
6 1 .498307 .429935 .983096
7 1 .504523 .468963 .012697
ITEM: TIMESTEP
400
ITEM: NUMBER OF ATOMS
7
ITEM: BOX BOUNDS ss ss ss
-3.0357 3.2064
-2.5588 3.5170
-1.9674 2.0049
ITEM: ATOMS id type xs ys zs
1 1 .504527 .990191 .559126
2 1 .996058 .609172 .520385
3 1 .802301 .010349 .480618
4 1 .189596 .027802 .455246
5 1 .010837 .632225 .512723
6 1 .499245 .432206 .989978
7 1 .502749 .471244 .008977
ITEM: TIMESTEP
1
ITEM: NUMBER OF ATOMS
7
ITEM: BOX BOUNDS ss ss ss
-3.0088 3.2040
-2.5335 3.4955
-1.9524 1.9980
ITEM: ATOMS id type xs ys zs
1 1 .503503 .996451 .564226
2 1 .994818 .614460 .523423
3 1 .811253 .007746 .477421
4 1 .184787 .028093 .450765
5 1 .006864 .638613 .515327
6 1 .498671 .431629 .988649
7 1 .497220 .469688 .006149
ITEM: TIMESTEP
50
ITEM: NUMBER OF ATOMS
7
ITEM: BOX BOUNDS ss ss ss
-3.0088 3.2040
-2.5335 3.5064
-1.9616 1.9980
ITEM: ATOMS id type xs ys zs
1 1 .504164 .995242 .565369
2 1 .995248 .612625 .524076
3 1 .812160 .006870 .480372
4 1 .184655 .026650 .450137
5 1 .006875 .638854 .514400
6 1 .495660 .431133 .989633
7 1 .496324 .468593 .007589
ITEM: TIMESTEP
100
ITEM: NUMBER OF ATOMS
7
ITEM: BOX BOUNDS ss ss ss
-3.0088 3.2103
-2.5335 3.5163
-1.9649 1.9980
ITEM: ATOMS id type xs ys zs
1 1 .503693 .992050 .567166
2 1 .993232 .613229 .524981
3 1 .811435 .006419 .486397
4 1 .182052 .028789 .449253
5 1 .008589 .636535 .520617
6 1 .497914 .430248 .988065
7 1 .497775 .468619 .015558
ITEM: TIMESTEP
150
ITEM: NUMBER OF ATOMS
7
ITEM: BOX BOUNDS ss ss ss
-3.0088 3.2045
-2.5380 3.5207
-1.9738 1.9980
ITEM: ATOMS id type xs ys zs
1 1 .501965 .994054 .570317
2 1 .993828 .613755 .527584
3 1 .813220 .005268 .473436
4 1 .180466 .028191 .459782
5 1 .006410 .636801 .517827
6 1 .496770 .427793 .990617
7 1 .499739 .467665 .009530
ITEM: TIMESTEP
200
ITEM: NUMBER OF ATOMS
7
ITEM: BOX BOUNDS ss ss ss
-3.0088 3.2080
-2.5395 3.5292
-1.9850 1.9980
ITEM: ATOMS id type xs ys zs
1 1 .503341 .988250 .570376
2 1 .995538 .614100 .522523
3 1 .810288 .006004 .487572
4 1 .184443 .032641 .453464
5 1 .007197 .634149 .525326
6 1 .502635 .427574 .993634
7 1 .500823 .468176 .016217
ITEM: TIMESTEP
250
ITEM: NUMBER OF ATOMS
7
ITEM: BOX BOUNDS ss ss ss
-3.0088 3.2040
-2.5354 3.5224
-1.9903 1.9980
ITEM: ATOMS id type xs ys zs
1 1 .504824 .990405 .564406
2 1 .991846 .613705 .531581
3 1 .812296 .009052 .476870
4 1 .181243 .031153 .451091
5 1 .011329 .639165 .520794
6 1 .500093 .422329 .988612
7 1 .497787 .471210 .010888
ITEM: TIMESTEP
300
ITEM: NUMBER OF ATOMS
7
ITEM: BOX BOUNDS ss ss ss
-3.0088 3.2040
-2.5335 3.5212
-1.9883 2.0060
ITEM: ATOMS id type xs ys zs
1 1 .511102 .988615 .566569
2 1 .993360 .614314 .518531
3 1 .808566 .012600 .477392
4 1 .178821 .029452 .456904
5 1 .008704 .636496 .517823
6 1 .497708 .427827 .987936
7 1 .506110 .469331 .009014
ITEM: TIMESTEP
350
ITEM: NUMBER OF ATOMS
7
ITEM: BOX BOUNDS ss ss ss
-3.0060 3.2174
-2.5228 3.5249
-1.9884 2.0022
ITEM: ATOMS id type xs ys zs
1 1 .508667 .986713 .570139