ITEM: TIMESTEP
1
ITEM: NUMBER OF ATOMS
7
ITEM: BOX BOUNDS ss ss ss
-9.1840 9.4587
-8.5445 9.2562
-5.6572 5.9239
ITEM: ATOMS id type xs ys zs
1 1 .489564 .666666 .464894
2 1 .666668 .557227 .495669
3 1 .617417 .345983 .512615
4 1 .411302 .333335 .524032
5 1 .333332 .531569 .509553
6 1 .506782 .496263 .666665
7 1 .503668 .475587 .333334
ITEM: TIMESTEP
50
ITEM: NUMBER OF ATOMS
7
ITEM: BOX BOUNDS ss ss ss
-9.1840 9.4587
-8.5445 9.2562
-5.6572 5.9239
ITEM: ATOMS id type xs ys zs
1 1 .489522 .666633 .464706
2 1 .666686 .557263 .495850
3 1 .617440 .345953 .512541
4 1 .411276 .333364 .523991
5 1 .333299 .531597 .509720
6 1 .506790 .496244 .666613
7 1 .503708 .475574 .333330
ITEM: TIMESTEP
100
ITEM: NUMBER OF ATOMS
7
ITEM: BOX BOUNDS ss ss ss
-9.1840 9.4587
-8.5445 9.2562
-5.6572 5.9239
ITEM: ATOMS id type xs ys zs
1 1 .489552 .666663 .464601
2 1 .666670 .557221 .495948
3 1 .617508 .346028 .512544
4 1 .411188 .333413 .523984
5 1 .333365 .531616 .509844
6 1 .506798 .496153 .666700
7 1 .503653 .475570 .333343
ITEM: TIMESTEP
150
ITEM: NUMBER OF ATOMS
7
ITEM: BOX BOUNDS ss ss ss
-9.1840 9.4587
-8.5445 9.2562
-5.6572 5.9239
ITEM: ATOMS id type xs ys zs
1 1 .489595 .666618 .464571
2 1 .666651 .557209 .496033
3 1 .617589 .346077 .512616
4 1 .411118 .333388 .523925
5 1 .333450 .531644 .510006
6 1 .506835 .496067 .666827
7 1 .503598 .475534 .333421
ITEM: TIMESTEP
200
ITEM: NUMBER OF ATOMS
7
ITEM: BOX BOUNDS ss ss ss
-9.1840 9.4587
-8.5445 9.2562
-5.6572 5.9239
ITEM: ATOMS id type xs ys zs
1 1 .489538 .666777 .464674
2 1 .666571 .557187 .495949
3 1 .617520 .346033 .512794
4 1 .411167 .333246 .523944
5 1 .333560 .531437 .510282
6 1 .506855 .496033 .666941
7 1 .503623 .475553 .333612
ITEM: TIMESTEP
250
ITEM: NUMBER OF ATOMS
7
ITEM: BOX BOUNDS ss ss ss
-9.1840 9.4587
-8.5445 9.2562
-5.6572 5.9239
ITEM: ATOMS id type xs ys zs
1 1 .489501 .666857 .464805
2 1 .666509 .557188 .496009
3 1 .617636 .346146 .513005
4 1 .411355 .333096 .523808
5 1 .333543 .531405 .510248
6 1 .506806 .495965 .666941
7 1 .503624 .475617 .333582
ITEM: TIMESTEP
300
ITEM: NUMBER OF ATOMS
7
ITEM: BOX BOUNDS ss ss ss
-9.1840 9.4587
-8.5445 9.2562
-5.6572 5.9239
ITEM: ATOMS id type xs ys zs
1 1 .489536 .666896 .464930
2 1 .666560 .557128 .495994
3 1 .617654 .346208 .513147
4 1 .411370 .333039 .523892
5 1 .333532 .531376 .510241
6 1 .506823 .495897 .666984
7 1 .503580 .475628 .333631
ITEM: TIMESTEP
350
ITEM: NUMBER OF ATOMS
7
ITEM: BOX BOUNDS ss ss ss
-9.1840 9.4587
-8.5445 9.2562
-5.6572 5.9239
ITEM: ATOMS id type xs ys zs
1 1 .489515 .666874 .464843
2 1 .666547 .557102 .496075
3 1 .617644 .346294 .513144
4 1 .411325 .332984 .523914
5 1 .333621 .531339 .510288
6 1 .506837 .495915 .667072
7 1 .503522 .475657 .333621
ITEM: TIMESTEP
400
ITEM: NUMBER OF ATOMS
7
ITEM: BOX BOUNDS ss ss ss
-9.1840 9.4587
-8.5445 9.2562
-5.6572 5.9239
ITEM: ATOMS id type xs ys zs
1 1 .489535 .666835 .464639
2 1 .666504 .557112 .496164
3 1 .617649 .346451 .513172
4 1 .411394 .332904 .523771
5 1 .333612 .531336 .510288
6 1 .506804 .495909 .667110
7 1 .503479 .475691 .333568
ITEM: TIMESTEP
1
ITEM: NUMBER OF ATOMS
7
ITEM: BOX BOUNDS ss ss ss
-9.1840 9.4587
-8.5445 9.2562
-5.6572 5.9239
ITEM: ATOMS id type xs ys zs
1 1 .489563 .666666 .464893
2 1 .666669 .557227 .495669
3 1 .617416 .345983 .512614
4 1 .411301 .333335 .524032
5 1 .333331 .531569 .509554
6 1 .506781 .496263 .666665
7 1 .503669 .475587 .333334
ITEM: TIMESTEP
50
ITEM: NUMBER OF ATOMS
7
ITEM: BOX BOUNDS ss ss ss
-9.1840 9.4587
-8.5445 9.2562
-5.6572 5.9239
ITEM: ATOMS id type xs ys zs
1 1 .489504 .666630 .464666
2 1 .666708 .557278 .495889
3 1 .617432 .345932 .512512
4 1 .411266 .333375 .524000
5 1 .333285 .531599 .509775
6 1 .506803 .496246 .666598
7 1 .503723 .475561 .333335
ITEM: TIMESTEP
100
ITEM: NUMBER OF ATOMS
7
ITEM: BOX BOUNDS ss ss ss
-9.1840 9.4587
-8.5445 9.2562
-5.6572 5.9239
ITEM: ATOMS id type xs ys zs
1 1 .489517 .666624 .464577
2 1 .666688 .557281 .495932
3 1 .617530 .345982 .512544
4 1 .411260 .333315 .523952
5 1 .333326 .531541 .509874
6 1 .506848 .496171 .666635
7 1 .503746 .475574 .333365
ITEM: TIMESTEP
150
ITEM: NUMBER OF ATOMS
7
ITEM: BOX BOUNDS ss ss ss
-9.1840 9.4587
-8.5445 9.2562
-5.6572 5.9239
ITEM: ATOMS id type xs ys zs
1 1 .489500 .666759 .464336
2 1 .666549 .557380 .496181
3 1 .617661 .346075 .512573
4 1 .411356 .333276 .524078
5 1 .333510 .531472 .509914
6 1 .506903 .496035 .666701
7 1 .503676 .475640 .333404
ITEM: TIMESTEP
200
ITEM: NUMBER OF ATOMS
7
ITEM: BOX BOUNDS ss ss ss
-9.1840 9.4587
-8.5445 9.2562
-5.6572 5.9239
ITEM: ATOMS id type xs ys zs
1 1 .489458 .666951 .463970
2 1 .666431 .557486 .496438
3 1 .617750 .346089 .512650
4 1 .411451 .333243 .524117
5 1 .333738 .531526 .509897
6 1 .506891 .495988 .666906
7 1 .503593 .475702 .333478
ITEM: TIMESTEP
250
ITEM: NUMBER OF ATOMS
7
ITEM: BOX BOUNDS ss ss ss
-9.1840 9.4587
-8.5445 9.2562
-5.6572 5.9239
ITEM: ATOMS id type xs ys zs
1 1 .489563 .666934 .463797
2 1 .666385 .557537 .496710
3 1 .617690 .346201 .512421
4 1 .411312 .333240 .523934
5 1 .333816 .531578 .509930
6 1 .506856 .495889 .666996
7 1 .503520 .475714 .333314
ITEM: TIMESTEP
300
ITEM: NUMBER OF ATOMS
7
ITEM: BOX BOUNDS ss ss ss
-9.1840 9.4587
-8.5445 9.2562
-5.6572 5.9239
ITEM: ATOMS id type xs ys zs
1 1 .489660 .666956 .463636
2 1 .666325 .557575 .496877
3 1 .617636 .346270 .512251
4 1 .411189 .333180 .523836
5 1 .333903 .531630 .510096
6 1 .506850 .495868 .667085
7 1 .503464 .475668 .333258
ITEM: TIMESTEP
350
ITEM: NUMBER OF ATOMS
7
ITEM: BOX BOUNDS ss ss ss
-9.1840 9.4587
-8.5445 9.2562
-5.6572 5.9239
ITEM: ATOMS id type xs ys zs
1 1 .489644 .666881 .463420
2 1 .666331 .557509 .497044
3 1 .617531 .346298 .512361
4 1 .411047 .333122 .523831
5 1 .333956 .531540 .510145
6 1 .506805 .495980 .667312
7 1 .503401 .475498 .333404
ITEM: TIMESTEP
400
ITEM: NUMBER OF ATOMS
7
ITEM: BOX BOUNDS ss ss ss
-9.1840 9.4587
-8.5445 9.2562
-5.6572 5.9239
ITEM: ATOMS id type xs ys zs
1 1 .489552 .666832 .463147
2 1 .666346 .557453 .497089
3 1 .617527 .346352 .512483
4 1 .411019 .333116 .523876
5 1 .333956 .531533 .510194
6 1 .506732 .495996 .667442
7 1 .503427 .475422 .333390
ITEM: TIMESTEP
450
ITEM: NUMBER OF ATOMS
7
ITEM: BOX BOUNDS ss ss ss
-9.1840 9.4587
-8.5445 9.2562
-5.6572 5.9239
ITEM: ATOMS id type xs ys zs
1 1 .489564 .666790 .462941
2 1 .666387 .557417 .497134
3 1 .617571 .346419 .512591
4 1 .411054 .333035 .523899
5 1 .333947 .531490 .510206
6 1 .506686 .495941 .667417
7 1 .503456 .475381 .333386
ITEM: TIMESTEP
500
ITEM: NUMBER OF ATOMS
7
ITEM: BOX BOUNDS ss ss ss
-9.1840 9.4587
-8.5445 9.2562
-5.6572 5.9239
ITEM: ATOMS id type xs ys zs
1 1 .489607 .666594 .462886
2 1 .666393 .557444 .497256
3 1 .617611 .346482 .512629
4 1 .410989 .332995 .524144
5 1 .333828 .531465 .510093
6 1 .506624 .495905 .667384
7 1 .503521 .475250 .333256
ITEM: TIMESTEP
550
ITEM: NUMBER OF ATOMS
7
ITEM: BOX BOUNDS ss ss ss
-9.1840 9.4587
-8.5445 9.2562
-5.6572 5.9239
ITEM: ATOMS id type xs ys zs
1 1 .489572 .666452 .462828
2 1 .666350 .557541 .497342
3 1 .617626 .346498 .512668
4 1 .410918 .333004 .524294
5 1 .333763 .531500 .510002
6 1 .506572 .495876 .667327
7 1 .503519 .475137 .333279
ITEM: TIMESTEP
600
ITEM: NUMBER OF ATOMS
7
ITEM: BOX BOUNDS ss ss ss
-9.1840 9.4587
-8.5445 9.2562
-5.6572 5.9239
ITEM: ATOMS id type xs ys zs
1 1 .489416 .666451 .462758
2 1 .666296 .557641 .497275
3 1 .617618 .346580 .512600
4 1 .410919 .333000 .524340
5 1 .333725 .531548 .509900
6 1 .506552 .495844 .667285
7 1 .503550 .475126 .333312
ITEM: TIMESTEP
650
ITEM: NUMBER OF ATOMS
7
ITEM: BOX BOUNDS ss ss ss
-9.1840 9.4587
-8.5445 9.2562
-5.6572 5.9239
ITEM: ATOMS id type xs ys zs
1 1 .489345 .666473 .462724
2 1 .666262 .557667 .497296
3 1 .617652 .346696 .512556
4 1 .410902 .333020 .524217
5 1 .333745 .531610 .509977
6 1 .506558 .495805 .667322
7 1 .503556 .475186 .333306
ITEM: TIMESTEP
700
ITEM: NUMBER OF ATOMS
7
ITEM: BOX BOUNDS ss ss ss
-9.1840 9.4587
-8.5445 9.2562
-5.6572 5.9239
ITEM: ATOMS id type xs ys zs
1 1 .489344 .666478 .462670
2 1 .666215 .557799 .497273
3 1 .617724 .346812 .512414
4 1 .410913 .332968 .524097
5 1 .333774 .531697 .510146
6 1 .506550 .495729 .667357
7 1 .503558 .475239 .333242
ITEM: TIMESTEP
750
ITEM: NUMBER OF ATOMS
7
ITEM: BOX BOUNDS ss ss ss
-9.1840 9.4587
-8.5445 9.2562
-5.6572 5.9239
ITEM: ATOMS id type xs ys zs
1 1 .489269 .666501 .462645
2 1 .666006 .557907 .497405
3 1 .617728 .346901 .512255
4 1 .411075 .332997 .523962
5 1 .333872 .531649 .510423
6 1 .506631 .495699 .667663
7 1 .503461 .475384 .333179
ITEM: TIMESTEP
800
ITEM: NUMBER OF ATOMS
7
ITEM: BOX BOUNDS ss ss ss
-9.1840 9.4587
-8.5445 9.2562
-5.6572 5.9239
ITEM: ATOMS id type xs ys zs
1 1 .489288 .666555 .462355
2 1 .665878 .558023 .497604
3 1 .617701 .346826 .512223
4 1 .411292 .333049 .523817
5 1 .333978 .531561 .510583
6 1 .506723 .495702 .667894
7 1 .503399 .475406 .333148
ITEM: TIMESTEP
850
ITEM: NUMBER OF ATOMS
7
ITEM: BOX BOUNDS ss ss ss
-9.1840 9.4587
-8.5445 9.2562
-5.6572 5.9239
ITEM: ATOMS id type xs ys zs
1 1 .489337 .666628 .462185
2 1 .665876 .558070 .497733
3 1 .617650 .346841 .512244
4 1 .411332 .333024 .523802
5 1 .334064 .531506 .510834
6 1 .506678 .495744 .668053
7 1 .503413 .475431 .333210
ITEM: TIMESTEP
900
ITEM: NUMBER OF ATOMS
7
ITEM: BOX BOUNDS ss ss ss
-9.1840 9.4587
-8.5445 9.2562
-5.6572 5.9239
ITEM: ATOMS id type xs ys zs
1 1 .489336 .666768 .462058
2 1 .665897 .558030 .497878
3 1 .617675 .346873 .512384
4 1 .411274 .332978 .523672
5 1 .334151 .531618 .511100
6 1 .506725 .495748 .668075
7 1 .503298 .475454 .333268
ITEM: TIMESTEP
950
ITEM: NUMBER OF ATOMS
7
ITEM: BOX BOUNDS ss ss ss
-9.1840 9.4587
-8.5445 9.2562
-5.6572 5.9239
ITEM: ATOMS id type xs ys zs
1 1 .489242 .666879 .462006
2 1 .665779 .557964 .498090
3 1 .617764 .346989 .512849
4 1 .411310 .332934 .523468
5 1 .334264 .531699 .511385
6 1 .506671 .495698 .668431
7 1 .503163 .475495 .333260
ITEM: TIMESTEP
1000
ITEM: NUMBER OF ATOMS
7
ITEM: BOX BOUNDS ss ss ss
-9.1840 9.4587
-8.5445 9.2562
-5.6572 5.9239
ITEM: ATOMS id type xs ys zs
1 1 .489276 .666903 .461848
2 1 .665653 .557927 .498183
3 1 .617753 .347121 .512909
4 1 .411321 .332937 .523319
5 1 .334387 .531774 .511604
6 1 .506665 .495668 .668580
7 1 .503141 .475504 .333306
ITEM: TIMESTEP
1050
ITEM: NUMBER OF ATOMS
7
ITEM: BOX BOUNDS ss ss ss
-9.1840 9.4587
-8.5445 9.2562
-5.6572 5.9239
ITEM: ATOMS id type xs ys zs
1 1 .489433 .666888 .461803
2 1 .665643 .557885 .498124
3 1 .617791 .347246 .512712
4 1 .411265 .332923 .523237
5 1 .334455 .531869 .511808
6 1 .506681 .495607 .668680
7 1 .503124 .475469 .333373
ITEM: TIMESTEP
1100
ITEM: NUMBER OF ATOMS
7
ITEM: BOX BOUNDS ss ss ss
-9.1840 9.4587
-8.5445 9.2562
-5.6572 5.9239
ITEM: ATOMS id type xs ys zs
1 1 .489506 .666907 .461677
2 1 .665642 .557879 .498102
3 1 .617781 .347304 .512568
4 1 .411240 .332881 .523159
5 1 .334403 .531930 .512039
6 1 .506640 .495509 .668653
7 1 .503049 .475462 .333287
ITEM: TIMESTEP
1150
ITEM: NUMBER OF ATOMS
7
ITEM: BOX BOUNDS ss ss ss
-9.1840 9.4587
-8.5445 9.2562
-5.6572 5.9239
ITEM: ATOMS id type xs ys zs
1 1 .489587 .666938 .461527
2 1 .665661 .557881 .498155
3 1 .617827 .347288 .512449
4 1 .411241 .332835 .523117
5 1 .334408 .531953 .512263
6 1 .506668 .495456 .668604
7 1 .502956 .475485 .333308
ITEM: TIMESTEP
1200
ITEM: NUMBER OF ATOMS
7
ITEM: BOX BOUNDS ss ss ss
-9.1840 9.4587
-8.5445 9.2562
-5.6572 5.9239
ITEM: ATOMS id type xs ys zs
1 1 .489699 .667080 .461461
2 1 .665820 .557663 .498352
3 1 .617715 .347131 .512522
4 1 .411248 .332715 .522926
5 1 .334590 .531864 .512390
6 1 .506823 .495478 .668815
7 1 .502955 .475592 .333469
ITEM: TIMESTEP
1250
ITEM: NUMBER OF ATOMS
7
ITEM: BOX BOUNDS ss ss ss
-9.1840 9.4587
-8.5445 9.2562
-5.6572 5.9239
ITEM: ATOMS id type xs ys zs
1 1 .489768 .667076 .461497
2 1 .665710 .557472 .498239
3 1 .617585 .346839 .512534
4 1 .411372 .332779 .522830
5 1 .334691 .531884 .512459
6 1 .506920 .495310 .669028
7 1 .503034 .475641 .333256
ITEM: TIMESTEP
1300
ITEM: NUMBER OF ATOMS
7
ITEM: BOX BOUNDS ss ss ss
-9.1840 9.4587
-8.5445 9.2562
-5.6572 5.9239
ITEM: ATOMS id type xs ys zs
1 1 .489776 .667088 .461549
2 1 .665668 .557358 .498048
3 1 .617536 .346708 .512542
4 1 .411405 .332865 .522832
5 1 .334750 .531968 .512715
6 1 .506918 .495150 .669047
7 1 .503133 .475642 .333076
ITEM: TIMESTEP
1350
ITEM: NUMBER OF ATOMS
7
ITEM: BOX BOUNDS ss ss ss
-9.1840 9.4587
-8.5445 9.2562
-5.6572 5.9239
ITEM: ATOMS id type xs ys zs
1 1 .489747 .667031 .461439
2 1 .665662 .557322 .498072
3 1 .617569 .346674 .512581
4 1 .411393 .332890 .522806
5 1 .334771 .532042 .512959
6 1 .506967 .495088 .669107
7 1 .503167 .475583 .333143
ITEM: TIMESTEP
1400
ITEM: NUMBER OF ATOMS
7
ITEM: BOX BOUNDS ss ss ss
-9.1840 9.4587
-8.5445 9.2562
-5.6572 5.9239
ITEM: ATOMS id type xs ys zs
1 1 .489731 .666990 .461339
2 1 .665574 .557306 .498049
3 1 .617685 .346684 .512609
4 1 .411403 .332821 .522777
5 1 .334819 .532109 .513149
6 1 .507007 .494962 .669240
7 1 .503222 .475504 .333252
ITEM: TIMESTEP
1450
ITEM: NUMBER OF ATOMS
7
ITEM: BOX BOUNDS ss ss ss
-9.1840 9.4587
-8.5445 9.2562
-5.6572 5.9239
ITEM: ATOMS id type xs ys zs
1 1 .489863 .667107 .461284
2 1 .665505 .557376 .498100
3 1 .617907 .346748 .512559
4 1 .411549 .332803 .522662
5 1 .334984 .532089 .513078
6 1 .507027 .494980 .669433
7 1 .503320 .475411 .333370
ITEM: TIMESTEP
1500
ITEM: NUMBER OF ATOMS
7
ITEM: BOX BOUNDS ss ss ss
-9.1840 9.4587
-8.5445 9.2562
-5.6572 5.9239
ITEM: ATOMS id type xs ys zs
1 1 .489925 .667146 .461160
2 1 .665465 .557468 .498248
3 1 .617996 .346775 .512511
4 1 .411615 .332823 .522599
5 1 .335036 .532097 .513155
6 1 .507031 .495048 .669534
7 1 .503394 .475428 .333380
ITEM: TIMESTEP
1550
ITEM: NUMBER OF ATOMS
7
ITEM: BOX BOUNDS ss ss ss
-9.1840 9.4587
-8.5445 9.2562
-5.6572 5.9239
ITEM: ATOMS id type xs ys zs
1 1 .489984 .667100 .461143
2 1 .665455 .557542 .498449
3 1 .618071 .346829 .512413
4 1 .411618 .332795 .522532
5 1 .335038 .532104 .513345
6 1 .507061 .494989 .669536
7 1 .503337 .475493 .333420
ITEM: TIMESTEP
1600
ITEM: NUMBER OF ATOMS
7
ITEM: BOX BOUNDS ss ss ss
-9.1840 9.4587
-8.5445 9.2562
-5.6572 5.9239
ITEM: ATOMS id type xs ys zs
1 1 .490053 .667079 .461263
2 1 .665468 .557629 .498498
3 1 .618272 .347033 .512382
4 1 .411740 .332625 .522440
5 1 .334997 .532025 .513658
6 1 .507107 .494881 .669412
7 1 .503205 .475524 .333451
ITEM: TIMESTEP
1650
ITEM: NUMBER OF ATOMS
7
ITEM: BOX BOUNDS ss ss ss
-9.1840 9.4587
-8.5445 9.2562
-5.6572 5.9239
ITEM: ATOMS id type xs ys zs
1 1 .490094 .667042 .461301
2 1 .665473 .557678 .498539
3 1 .618372 .347149 .512352
4 1 .411850 .332503 .522360
5 1 .334943 .531959 .514018
6 1 .507109 .494801 .669502
7 1 .503176 .475514 .333483
ITEM: TIMESTEP
1700
ITEM: NUMBER OF ATOMS
7
ITEM: BOX BOUNDS ss ss ss
-9.1840 9.4587
-8.5445 9.2562
-5.6572 5.9239
ITEM: ATOMS id type xs ys zs
1 1 .490154 .667025 .461265
2 1 .665443 .557697 .498655
3 1 .618360 .347134 .512417
4 1 .411827 .332459 .522389
5 1 .334920 .531968 .514142
6 1 .507045 .494716 .669611
7 1 .503162 .475470 .333485
ITEM: TIMESTEP
1750
ITEM: NUMBER OF ATOMS
7
ITEM: BOX BOUNDS ss ss ss
-9.1840 9.4587
-8.5445 9.2562
-5.6572 5.9239
ITEM: ATOMS id type xs ys zs
1 1 .490151 .666930 .461255
2 1 .665401 .557689 .498820
3 1 .618414 .347137 .512696
4 1 .411710 .332436 .522449
5 1 .334893 .532007 .514147
6 1 .507003 .494626 .669708
7 1 .503135 .475286 .333563
ITEM: TIMESTEP
1800
ITEM: NUMBER OF ATOMS
7
ITEM: BOX BOUNDS ss ss ss
-9.1840 9.4587
-8.5445 9.2562
-5.6572 5.9239
ITEM: ATOMS id type xs ys zs
1 1 .490137 .666865 .461280
2 1 .665406 .557691 .498995
3 1 .618515 .347167 .512803
4 1 .411719 .332453 .522614
5 1 .334850 .532153 .514317
6 1 .506956 .494663 .669792
7 1 .503105 .475236 .333712
ITEM: TIMESTEP
1850
ITEM: NUMBER OF ATOMS
7
ITEM: BOX BOUNDS ss ss ss
-9.1840 9.4587
-8.5445 9.2562
-5.6572 5.9239
ITEM: ATOMS id type xs ys zs
1 1 .490243 .666895 .461321
2 1 .665350 .557808 .499151
3 1 .618591 .347278 .512863
4 1 .411760 .332496 .522639
5 1 .334825 .532325 .514384
6 1 .506922 .494686 .669947
7 1 .503087 .475279 .333804
ITEM: TIMESTEP
1900
ITEM: NUMBER OF ATOMS
7
ITEM: BOX BOUNDS ss ss ss
-9.1840 9.4587
-8.5445 9.2562
-5.6572 5.9239
ITEM: ATOMS id type xs ys zs
1 1 .490386 .666909 .461225
2 1 .665389 .557623 .499205
3 1 .618555 .347172 .513005
4 1 .411460 .332564 .522232
5 1 .334997 .532296 .514387
6 1 .506948 .494508 .669890
7 1 .503026 .475223 .333646
ITEM: TIMESTEP
1950
ITEM: NUMBER OF ATOMS
7
ITEM: BOX BOUNDS ss ss ss
-9.1840 9.4587
-8.5445 9.2562
-5.6572 5.9239
ITEM: ATOMS id type xs ys zs
1 1 .490426 .666863 .461018
2 1 .665422 .557595 .499311
3 1 .618500 .347162 .513000
4 1 .411325 .332567 .521987
5 1 .335098 .532298 .514511
6 1 .506970 .494403 .669916
7 1 .503047 .475168 .333594
ITEM: TIMESTEP
2000
ITEM: NUMBER OF ATOMS
7
ITEM: BOX BOUNDS ss ss ss
-9.1840 9.4587
-8.5445 9.2562
-5.6572 5.9239
ITEM: ATOMS id type xs ys zs
1 1 .490490 .666869 .460816
2 1 .665401 .557579 .499372
3 1 .618536 .347145 .512887
4 1 .411321 .332501 .521802
5 1 .335211 .532340 .514578
6 1 .506999 .494260 .669945
7 1 .503012 .475115 .333600
ITEM: TIMESTEP
2050
ITEM: NUMBER OF ATOMS
7
ITEM: BOX BOUNDS ss ss ss
-9.1840 9.4587
-8.5445 9.2562
-5.6572 5.9239
ITEM: ATOMS id type xs ys zs
1 1 .490516 .666833 .460630
2 1 .665402 .557566 .499306
3 1 .618689 .347139 .512644
4 1 .411397 .332470 .521804
5 1 .335288 .532443 .514626
6 1 .507048 .494190 .669943
7 1 .502981 .475068 .333667
ITEM: TIMESTEP
2100
ITEM: NUMBER OF ATOMS
7
ITEM: BOX BOUNDS ss ss ss
-9.1840 9.4587
-8.5445 9.2562
-5.6572 5.9239
ITEM: ATOMS id type xs ys zs
1 1 .490518 .666747 .460448
2 1 .665444 .557566 .499269
3 1 .618732 .347108 .512643
4 1 .411421 .332430 .521908
5 1 .335322 .532472 .514841
6 1 .507108 .494151 .669973
7 1 .502994 .474977 .333735
ITEM: TIMESTEP
2150
ITEM: NUMBER OF ATOMS
7
ITEM: BOX BOUNDS ss ss ss
-9.1840 9.4587
-8.5445 9.2562
-5.6572 5.9239
ITEM: ATOMS id type xs ys zs
1 1 .490583 .666609 .460170
2 1 .665531 .557443 .499232
3 1 .618662 .347064 .512708
4 1 .411380 .332363 .521943
5 1 .335349 .532398 .514944
6 1 .507111 .494017 .670112
7 1 .502958 .474871 .333726
ITEM: TIMESTEP
2200
ITEM: NUMBER OF ATOMS
7
ITEM: BOX BOUNDS ss ss ss
-9.1840 9.4587
-8.5445 9.2562
-5.6572 5.9239
ITEM: ATOMS id type xs ys zs
1 1 .490695 .666464 .459959
2 1 .665561 .557181 .499077
3 1 .618435 .346954 .512508
4 1 .411379 .332183 .522115
5 1 .335325 .532265 .515097
6 1 .507042 .493862 .670249
7 1 .502872 .474835 .333619
ITEM: TIMESTEP
2250
ITEM: NUMBER OF ATOMS
7
ITEM: BOX BOUNDS ss ss ss
-9.1840 9.4587
-8.5445 9.2562
-5.6572 5.9239
ITEM: ATOMS id type xs ys zs
1 1 .490772 .666404 .459956
2 1 .665553 .557051 .499151
3 1 .618227 .346836 .512500
4 1 .411385 .332164 .522163
5 1 .335297 .532343 .515216
6 1 .507054 .493961 .670209
7 1 .502840 .474788 .333628
ITEM: TIMESTEP
2300
ITEM: NUMBER OF ATOMS
7
ITEM: BOX BOUNDS ss ss ss
-9.1840 9.4587
-8.5445 9.2562
-5.6572 5.9239
ITEM: ATOMS id type xs ys zs
1 1 .490895 .666393 .459963
2 1 .665627 .556922 .499191
3 1 .618054 .346765 .512561
4 1 .411381 .332053 .522119
5 1 .335365 .532322 .515391
6 1 .507095 .493980 .670269
7 1 .502804 .474833 .333580
ITEM: TIMESTEP
2350
ITEM: NUMBER OF ATOMS
7
ITEM: BOX BOUNDS ss ss ss
-9.1840 9.4587
-8.5445 9.2562
-5.6572 5.9239
ITEM: ATOMS id type xs ys zs
1 1 .490967 .666444 .459774
2 1 .665723 .556839 .499030
3 1 .617995 .346671 .512339
4 1 .411425 .331953 .522090
5 1 .335449 .532286 .515509
6 1 .507182 .493943 .670137
7 1 .502781 .474822 .333447
ITEM: TIMESTEP
2400
ITEM: NUMBER OF ATOMS
7
ITEM: BOX BOUNDS ss ss ss
-9.1840 9.4587
-8.5445 9.2562
-5.6572 5.9239
ITEM: ATOMS id type xs ys zs
1 1 .490980 .666453 .459567
2 1 .665753 .556893 .499108
3 1 .618010 .346665 .512210
4 1 .411412 .331987 .522046
5 1 .335542 .532243 .515547
6 1 .507233 .493872 .670146
7 1 .502806 .474807 .333366
ITEM: TIMESTEP
2450
ITEM: NUMBER OF ATOMS
7
ITEM: BOX BOUNDS ss ss ss
-9.1840 9.4587
-8.5445 9.2562
-5.6572 5.9239
ITEM: ATOMS id type xs ys zs
1 1 .490987 .666430 .459401
2 1 .665730 .556950 .499272
3 1 .618008 .346651 .512032
4 1 .411491 .331944 .522045
5 1 .335676 .532150 .515621
6 1 .507321 .493845 .670187
7 1 .502818 .474777 .333274
ITEM: TIMESTEP
2500
ITEM: NUMBER OF ATOMS
7
ITEM: BOX BOUNDS ss ss ss
-9.1840 9.4587
-8.5445 9.2562
-5.6572 5.9239
ITEM: ATOMS id type xs ys zs
1 1 .491027 .666456 .459237
2 1 .665715 .557015 .499441
3 1 .618053 .346664 .511889
4 1 .411588 .331904 .522014
5 1 .335695 .532114 .515753
6 1 .507354 .493794 .670167
7 1 .502779 .474774 .333280
ITEM: TIMESTEP
2550
ITEM: NUMBER OF ATOMS
7
ITEM: BOX BOUNDS ss ss ss
-9.1840 9.4587
-8.5445 9.2562
-5.6572 5.9239
ITEM: ATOMS id type xs ys zs
1 1 .491059 .666471 .459134
2 1 .665644 .557027 .499664
3 1 .618090 .346703 .511900
4 1 .411661 .331881 .522075
5 1 .335713 .532099 .515910
6 1 .507354 .493745 .670262
7 1 .502725 .474778 .333297
ITEM: TIMESTEP
2600
ITEM: NUMBER OF ATOMS
7
ITEM: BOX BOUNDS ss ss ss
-9.1840 9.4587
-8.5445 9.2562
-5.6572 5.9239
ITEM: ATOMS id type xs ys zs
1 1 .490943 .666467 .458930
2 1 .665653 .556979 .499797
3 1 .618143 .346709 .511965
4 1 .411690 .331908 .522050
5 1 .335726 .532150 .516006
6 1 .507389 .493729 .670375
7 1 .502728 .474724 .333282
ITEM: TIMESTEP
2650
ITEM: NUMBER OF ATOMS
7
ITEM: BOX BOUNDS ss ss ss
-9.1840 9.4587
-8.5445 9.2562
-5.6572 5.9239
ITEM: ATOMS id type xs ys zs
1 1 .490835 .666368 .458754
2 1 .665661 .556998 .500009
3 1 .618172 .346717 .512028
4 1 .411724 .331941 .521955
5 1 .335691 .532177 .516150
6 1 .507383 .493717 .670562
7 1 .502786 .474671 .333296
ITEM: TIMESTEP
2700
ITEM: NUMBER OF ATOMS
7
ITEM: BOX BOUNDS ss ss ss
-9.1840 9.4587
-8.5445 9.2562
-5.6572 5.9239
ITEM: ATOMS id type xs ys zs
1 1 .490775 .666338 .458579
2 1 .665605 .557062 .500212
3 1 .618218 .346687 .512014
4 1 .411719 .331983 .521888
5 1 .335677 .532212 .516357
6 1 .507397 .493686 .670729
7 1 .502850 .474618 .333247
ITEM: TIMESTEP
2750
ITEM: NUMBER OF ATOMS
7
ITEM: BOX BOUNDS ss ss ss
-9.1840 9.4587
-8.5445 9.2562
-5.6572 5.9239
ITEM: ATOMS id type xs ys zs
1 1 .490817 .666372 .458453
2 1 .665573 .557126 .500403
3 1 .618268 .346693 .511861
4 1 .411694 .332029 .521894
5 1 .335732 .532261 .516534
6 1 .507412 .493657 .670837
7 1 .502899 .474607 .333218
ITEM: TIMESTEP
2800
ITEM: NUMBER OF ATOMS
7
ITEM: BOX BOUNDS ss ss ss
-9.1840 9.4587
-8.5445 9.2562
-5.6572 5.9239
ITEM: ATOMS id type xs ys zs
1 1 .490877 .666300 .458755
2 1 .665527 .557305 .500367
3 1 .618528 .346897 .511890
4 1 .411733 .332212 .521776
5 1 .335676 .532294 .517156
6 1 .507496 .493580 .670835
7 1 .503039 .474686 .333187
ITEM: TIMESTEP
2850
ITEM: NUMBER OF ATOMS
7
ITEM: BOX BOUNDS ss ss ss
-9.1840 9.4587
-8.5445 9.2562
-5.6572 5.9239
ITEM: ATOMS id type xs ys zs
1 1 .490848 .666223 .458510
2 1 .665542 .557257 .500650
3 1 .618433 .346900 .511875
4 1 .411650 .332150 .521828
5 1 .335697 .532293 .517142
6 1 .507512 .493505 .670971
7 1 .502926 .474581 .333124
ITEM: TIMESTEP
2900
ITEM: NUMBER OF ATOMS
7
ITEM: BOX BOUNDS ss ss ss
-9.1840 9.4587
-8.5445 9.2562
-5.6572 5.9239
ITEM: ATOMS id type xs ys zs
1 1 .490961 .666023 .458201
2 1 .665666 .557076 .501150
3 1 .618022 .346886 .512028
4 1 .411432 .331945 .522170
5 1 .335715 .532208 .516693
6 1 .507351 .493623 .671095
7 1 .502461 .474327 .332882
ITEM: TIMESTEP
2950
ITEM: NUMBER OF ATOMS
7
ITEM: BOX BOUNDS ss ss ss
-9.1840 9.4587
-8.5445 9.2562
-5.6572 5.9239
ITEM: ATOMS id type xs ys zs
1 1 .491147 .665825 .458036
2 1 .665742 .557011 .501439
3 1 .617833 .346903 .512174
4 1 .411320 .331901 .522269
5 1 .335667 .532124 .516675
6 1 .507232 .493711 .671197
7 1 .502108 .474151 .332736
ITEM: TIMESTEP
3000
ITEM: NUMBER OF ATOMS
7
ITEM: BOX BOUNDS ss ss ss
-9.1840 9.4587
-8.5445 9.2562
-5.6572 5.9239
ITEM: ATOMS id type xs ys zs
1 1 .491211 .665772 .457949
2 1 .665799 .556989 .501482
3 1 .617866 .347034 .512156
4 1 .411295 .331878 .522209
5 1 .335668 .532131 .516743
6 1 .507248 .493698 .671303
7 1 .502114 .474093 .332670
ITEM: TIMESTEP
3050
ITEM: NUMBER OF ATOMS
7
ITEM: BOX BOUNDS ss ss ss
-9.1840 9.4587
-8.5445 9.2562
-5.6572 5.9239
ITEM: ATOMS id type xs ys zs
1 1 .491353 .665577 .457980
2 1 .665836 .556987 .501584
3 1 .618026 .347168 .512305
4 1 .411243 .331929 .522255
5 1 .335665 .532212 .516782
6 1 .507204 .493612 .671408
7 1 .502070 .473925 .332715
ITEM: TIMESTEP
3100
ITEM: NUMBER OF ATOMS
7
ITEM: BOX BOUNDS ss ss ss
-9.1840 9.4587
-8.5445 9.2562
-5.6572 5.9239
ITEM: ATOMS id type xs ys zs
1 1 .491445 .665481 .457904
2 1 .665855 .557053 .501797
3 1 .618102 .347268 .512154
4 1 .411204 .331957 .522398
5 1 .335720 .532265 .516972
6 1 .507248 .493539 .671379
7 1 .502018 .473845 .332683
ITEM: TIMESTEP
3150
ITEM: NUMBER OF ATOMS
7
ITEM: BOX BOUNDS ss ss ss
-9.1840 9.4587
-8.5445 9.2562
-5.6572 5.9239
ITEM: ATOMS id type xs ys zs
1 1 .491523 .665404 .457751
2 1 .665839 .557110 .502015
3 1 .618166 .347330 .512120
4 1 .411215 .331951 .522467
5 1 .335786 .532265 .517058
6 1 .507297 .493470 .671393
7 1 .501936 .473780 .332673
ITEM: TIMESTEP
3200
ITEM: NUMBER OF ATOMS
7
ITEM: BOX BOUNDS ss ss ss
-9.1840 9.4587
-8.5445 9.2562
-5.6572 5.9239
ITEM: ATOMS id type xs ys zs
1 1 .491605 .665343 .457690
2 1 .665813 .556945 .502063
3 1 .618237 .347218 .512094
4 1 .411157 .331895 .522463
5 1 .335862 .532235 .517095
6 1 .507314 .493416 .671506
7 1 .501917 .473700 .332635
ITEM: TIMESTEP
3201
ITEM: NUMBER OF ATOMS
7
ITEM: BOX BOUNDS ss ss ss
-9.1840 9.4587
-8.5445 9.2562
-5.6572 5.9239
ITEM: ATOMS id type xs ys zs
1 1 .491606 .665349 .457730
2 1 .665813 .556939 .502027
3 1 .618233 .347217 .512105
4 1 .411161 .331892 .522476
5 1 .335861 .532229 .517063
6 1 .507312 .493422 .671501
7 1 .501918 .473706 .332643
ITEM: TIMESTEP
3250
ITEM: NUMBER OF ATOMS
7
ITEM: BOX BOUNDS ss ss ss
-9.1840 9.4587
-8.5445 9.2562
-5.6572 5.9239
ITEM: ATOMS id type xs ys zs
1 1 .491629 .665502 .458755
2 1 .665793 .556766 .501130
3 1 .618141 .347171 .512395
4 1 .411274 .331819 .522786
5 1 .335832 .532091 .516238
6 1 .507261 .493573 .671373
7 1 .501982 .473845 .332859
ITEM: TIMESTEP
3300
ITEM: NUMBER OF ATOMS
7
ITEM: BOX BOUNDS ss ss ss
-9.1840 9.4587
-8.5445 9.2562
-5.6572 5.9239
ITEM: ATOMS id type xs ys zs
1 1 .491629 .665494 .458563
2 1 .665777 .556807 .501302
3 1 .618138 .347198 .512289
4 1 .411277 .331799 .522827
5 1 .335842 .532159 .516396
6 1 .507271 .493509 .671362
7 1 .502013 .473828 .332831
ITEM: TIMESTEP
3350
ITEM: NUMBER OF ATOMS
7
ITEM: BOX BOUNDS ss ss ss
-9.1840 9.4587
-8.5445 9.2562
-5.6572 5.9239
ITEM: ATOMS id type xs ys zs
1 1 .491702 .665546 .458738
2 1 .665834 .556632 .501318
3 1 .617959 .347108 .512232
4 1 .411400 .331807 .522949
5 1 .335905 .532165 .516505
6 1 .507371 .493459 .671248
7 1 .502033 .473906 .332611
ITEM: TIMESTEP
3400
ITEM: NUMBER OF ATOMS
7
ITEM: BOX BOUNDS ss ss ss
-9.1840 9.4587
-8.5445 9.2562
-5.6572 5.9239
ITEM: ATOMS id type xs ys zs
1 1 .491688 .665600 .458652
2 1 .665829 .556612 .501433
3 1 .617877 .347070 .512181
4 1 .411411 .331823 .522941
5 1 .335952 .532201 .516651
6 1 .507396 .493371 .671326
7 1 .502100 .473978 .332534
ITEM: TIMESTEP
3450
ITEM: NUMBER OF ATOMS
7
ITEM: BOX BOUNDS ss ss ss
-9.1840 9.4587
-8.5445 9.2562
-5.6572 5.9239
ITEM: ATOMS id type xs ys zs
1 1 .491646 .665594 .458384
2 1 .665793 .556636 .501516
3 1 .617920 .347058 .512135
4 1 .411376 .331804 .522898
5 1 .335934 .532286 .516811
6 1 .507345 .493268 .671433
7 1 .502065 .473948 .332547
ITEM: TIMESTEP
3500
ITEM: NUMBER OF ATOMS
7
ITEM: BOX BOUNDS ss ss ss
-9.1840 9.4587
-8.5445 9.2562
-5.6572 5.9239
ITEM: ATOMS id type xs ys zs
1 1 .491619 .665558 .458148
2 1 .665796 .556627 .501599
3 1 .617988 .346983 .511997
4 1 .411293 .331802 .523001
5 1 .335830 .532383 .516988
6 1 .507330 .493214 .671447
7 1 .502040 .473893 .332728
ITEM: TIMESTEP
3550
ITEM: NUMBER OF ATOMS
7
ITEM: BOX BOUNDS ss ss ss
-9.1840 9.4587
-8.5445 9.2562
-5.6572 5.9239
ITEM: ATOMS id type xs ys zs
1 1 .491662 .665513 .458201
2 1 .665804 .556407 .501831
3 1 .617856 .346703 .512067
4 1 .411225 .331845 .522999
5 1 .335882 .532403 .517315
6 1 .507405 .493107 .671759
7 1 .502060 .473852 .332938
ITEM: TIMESTEP
3600
ITEM: NUMBER OF ATOMS
7
ITEM: BOX BOUNDS ss ss ss
-9.1840 9.4587
-8.5445 9.2562
-5.6572 5.9239
ITEM: ATOMS id type xs ys zs
1 1 .491717 .665546 .458051
2 1 .665748 .556454 .502031
3 1 .617837 .346684 .512030
4 1 .411169 .331801 .522910
5 1 .335939 .532397 .517500
6 1 .507385 .493024 .671830
7 1 .502027 .473826 .332942
ITEM: TIMESTEP
3650
ITEM: NUMBER OF ATOMS
7
ITEM: BOX BOUNDS ss ss ss
-9.1840 9.4587
-8.5445 9.2562
-5.6572 5.9239
ITEM: ATOMS id type xs ys zs
1 1 .491764 .665602 .457844
2 1 .665769 .556678 .502151
3 1 .617941 .346707 .512042
4 1 .411088 .331622 .522680
5 1 .335956 .532328 .517603
6 1 .507347 .492813 .671752
7 1 .501931 .473759 .333112
ITEM: TIMESTEP
3700
ITEM: NUMBER OF ATOMS
7
ITEM: BOX BOUNDS ss ss ss
-9.1840 9.4587
-8.5445 9.2562
-5.6572 5.9239
ITEM: ATOMS id type xs ys zs
1 1 .491842 .665652 .457578
2 1 .665768 .556825 .502196
3 1 .617992 .346703 .512018
4 1 .411017 .331489 .522577
5 1 .336001 .532376 .517718
6 1 .507324 .492691 .671688
7 1 .501964 .473703 .333330
ITEM: TIMESTEP
3750
ITEM: NUMBER OF ATOMS
7
ITEM: BOX BOUNDS ss ss ss
-9.1840 9.4587
-8.5445 9.2562
-5.6572 5.9239
ITEM: ATOMS id type xs ys zs
1 1 .491926 .665665 .457344
2 1 .665788 .556867 .502243
3 1 .618003 .346710 .511954
4 1 .410981 .331374 .522556
5 1 .336053 .532404 .517857
6 1 .507348 .492606 .671751
7 1 .501993 .473688 .333511
ITEM: TIMESTEP
3800
ITEM: NUMBER OF ATOMS
7
ITEM: BOX BOUNDS ss ss ss
-9.1840 9.4587
-8.5445 9.2562
-5.6572 5.9239
ITEM: ATOMS id type xs ys zs
1 1 .491802 .665463 .457542
2 1 .665756 .556850 .502489
3 1 .618053 .346656 .512121
4 1 .411104 .331198 .522306
5 1 .336110 .532372 .517708
6 1 .507371 .492449 .671826
7 1 .501858 .473500 .333296
ITEM: TIMESTEP
3850
ITEM: NUMBER OF ATOMS
7
ITEM: BOX BOUNDS ss ss ss
-9.1840 9.4587
-8.5445 9.2562
-5.6572 5.9239
ITEM: ATOMS id type xs ys zs
1 1 .491824 .665285 .457556
2 1 .665669 .556841 .502738
3 1 .618121 .346634 .512039
4 1 .411154 .331164 .522174
5 1 .336183 .532396 .517655
6 1 .507390 .492278 .671932
7 1 .501874 .473364 .333143
ITEM: TIMESTEP
3900
ITEM: NUMBER OF ATOMS
7
ITEM: BOX BOUNDS ss ss ss
-9.1840 9.4587
-8.5445 9.2562
-5.6572 5.9239