ITEM: TIMESTEP
1
ITEM: NUMBER OF ATOMS
7
ITEM: BOX BOUNDS ss ss ss
-2.9993 3.1968
-2.5787 3.4849
-1.9681 1.8604
ITEM: ATOMS id type xs ys zs
1 1 .494591 .999228 .451705
2 1 .999389 .641845 .387232
3 1 .838024 .040655 .467954
4 1 .231731 .000643 .588355
5 1 .000714 .587492 .601084
6 1 .545095 .477625 .998980
7 1 .465981 .445500 .001066
ITEM: TIMESTEP
50
ITEM: NUMBER OF ATOMS
7
ITEM: BOX BOUNDS ss ss ss
-3.0305 3.2256
-2.6077 3.5115
-1.9905 1.8832
ITEM: ATOMS id type xs ys zs
1 1 .492761 .993026 .452830
2 1 .994922 .640506 .389164
3 1 .834460 .045318 .466006
4 1 .234285 .006369 .586901
5 1 .006131 .587297 .600150
6 1 .545327 .477773 .994425
7 1 .467662 .445394 .007007
ITEM: TIMESTEP
100
ITEM: NUMBER OF ATOMS
7
ITEM: BOX BOUNDS ss ss ss
-3.0379 3.2297
-2.6134 3.5214
-2.0005 1.8900
ITEM: ATOMS id type xs ys zs
1 1 .492728 .990374 .455886
2 1 .995731 .642260 .388056
3 1 .834015 .046142 .471115
4 1 .235647 .007062 .586180
5 1 .008212 .587472 .599538
6 1 .546230 .477921 .992236
7 1 .468458 .446070 .007202
ITEM: TIMESTEP
150
ITEM: NUMBER OF ATOMS
7
ITEM: BOX BOUNDS ss ss ss
-3.0441 3.2413
-2.6146 3.5265
-2.0046 1.9013
ITEM: ATOMS id type xs ys zs
1 1 .491416 .990279 .454881
2 1 .990935 .639940 .390527
3 1 .832982 .045639 .466551
4 1 .235482 .006555 .584535
5 1 .009206 .588461 .597577
6 1 .543954 .476659 .990300
7 1 .468230 .445345 .010973
ITEM: TIMESTEP
200
ITEM: NUMBER OF ATOMS
7
ITEM: BOX BOUNDS ss ss ss
-3.0399 3.2420
-2.6261 3.5193
-2.0079 1.9049
ITEM: ATOMS id type xs ys zs
1 1 .491486 .992134 .455449
2 1 .993154 .642620 .390937
3 1 .833740 .048012 .466875
4 1 .233941 .010008 .587688
5 1 .009063 .592029 .597240
6 1 .545139 .478955 .990213
7 1 .468354 .446642 .013884
ITEM: TIMESTEP
250
ITEM: NUMBER OF ATOMS
7
ITEM: BOX BOUNDS ss ss ss
-3.0431 3.2447
-2.6276 3.5165
-2.0043 1.9119
ITEM: ATOMS id type xs ys zs
1 1 .488770 .993151 .453849
2 1 .992421 .641855 .386343
3 1 .831268 .048156 .462126
4 1 .235235 .009209 .585720
5 1 .009686 .592309 .593094
6 1 .546288 .477556 .986214
7 1 .467265 .446772 .010097
ITEM: TIMESTEP
300
ITEM: NUMBER OF ATOMS
7
ITEM: BOX BOUNDS ss ss ss
-3.0506 3.2475
-2.6155 3.5216
-2.0108 1.9137
ITEM: ATOMS id type xs ys zs
1 1 .490982 .991409 .459218
2 1 .993042 .639414 .394387
3 1 .833983 .047858 .464696
4 1 .233598 .013193 .591130
5 1 .010174 .594516 .599443
6 1 .546106 .476562 .992039
7 1 .468089 .446540 .013413
ITEM: TIMESTEP
350
ITEM: NUMBER OF ATOMS
7
ITEM: BOX BOUNDS ss ss ss
-3.0388 3.2489
-2.6176 3.5166
-2.0113 1.9113
ITEM: ATOMS id type xs ys zs
1 1 .487768 .989996 .451065
2 1 .991308 .639322 .386266
3 1 .829986 .044983 .462566
4 1 .232186 .009593 .584061
5 1 .008968 .591490 .592152
6 1 .544903 .477771 .986089
7 1 .467967 .445377 .008403
ITEM: TIMESTEP
400
ITEM: NUMBER OF ATOMS
7
ITEM: BOX BOUNDS ss ss ss
-3.0422 3.2478
-2.6142 3.5103
-2.0301 1.9147
ITEM: ATOMS id type xs ys zs
1 1 .488146 .989986 .456784
2 1 .990259 .641728 .392486
3 1 .831995 .045564 .468332
4 1 .232043 .009558 .585010
5 1 .010893 .592504 .595193
6 1 .545212 .477649 .987932
7 1 .467856 .444591 .013802
ITEM: TIMESTEP
1
ITEM: NUMBER OF ATOMS
7
ITEM: BOX BOUNDS ss ss ss
-3.0270 3.2325
-2.6130 3.4962
-2.0049 1.9003
ITEM: ATOMS id type xs ys zs
1 1 .494004 .997397 .452268
2 1 .993700 .642680 .389045
3 1 .833946 .045974 .468187
4 1 .233806 .006258 .586209
5 1 .005132 .588729 .598693
6 1 .544001 .479688 .988774
7 1 .465681 .447808 .010470
ITEM: TIMESTEP
50
ITEM: NUMBER OF ATOMS
7
ITEM: BOX BOUNDS ss ss ss
-3.0270 3.2325
-2.6130 3.5108
-2.0049 1.9003
ITEM: ATOMS id type xs ys zs
1 1 .491267 .994203 .452717
2 1 .992769 .642618 .390955
3 1 .832777 .045211 .465872
4 1 .230948 .007678 .583803
5 1 .005097 .586733 .596032
6 1 .544336 .477492 .988862
7 1 .465944 .444915 .007362
ITEM: TIMESTEP
100
ITEM: NUMBER OF ATOMS
7
ITEM: BOX BOUNDS ss ss ss
-3.0327 3.2325
-2.6153 3.5282
-2.0021 1.9003
ITEM: ATOMS id type xs ys zs
1 1 .491086 .990842 .452675
2 1 .990968 .641555 .388192
3 1 .832822 .044163 .461982
4 1 .230641 .008041 .583813
5 1 .007490 .586575 .593947
6 1 .544509 .476143 .991538
7 1 .466195 .441970 .008379
ITEM: TIMESTEP
150
ITEM: NUMBER OF ATOMS
7
ITEM: BOX BOUNDS ss ss ss
-3.0469 3.2419
-2.6229 3.5250
-2.0043 1.9003
ITEM: ATOMS id type xs ys zs
1 1 .491371 .990787 .452502
2 1 .991292 .641271 .387442
3 1 .833229 .047478 .465497
4 1 .235517 .008510 .585297
5 1 .009594 .588663 .596541
6 1 .545911 .477433 .990437
7 1 .466151 .444605 .009111
ITEM: TIMESTEP
200
ITEM: NUMBER OF ATOMS
7
ITEM: BOX BOUNDS ss ss ss
-3.0447 3.2471
-2.6174 3.5247
-2.0098 1.9002
ITEM: ATOMS id type xs ys zs
1 1 .491122 .989467 .453912
2 1 .991070 .639088 .388754
3 1 .832692 .045562 .468753
4 1 .233598 .008594 .587300
5 1 .009101 .588930 .596821
6 1 .545867 .476129 .991399
7 1 .466634 .442978 .009853
ITEM: TIMESTEP
250
ITEM: NUMBER OF ATOMS
7
ITEM: BOX BOUNDS ss ss ss
-3.0422 3.2417
-2.6225 3.5206
-2.0099 1.9103
ITEM: ATOMS id type xs ys zs
1 1 .492577 .988088 .454140
2 1 .992434 .640338 .388398
3 1 .834256 .045283 .468419
4 1 .233306 .011390 .587986
5 1 .010131 .591129 .595315
6 1 .547277 .478140 .989032
7 1 .467562 .442934 .008899
ITEM: TIMESTEP
300
ITEM: NUMBER OF ATOMS
7
ITEM: BOX BOUNDS ss ss ss
-3.0462 3.2442
-2.6176 3.5162
-2.0116 1.9076
ITEM: ATOMS id type xs ys zs
1 1 .490646 .988246 .453978
2 1 .992575 .641897 .386732
3 1 .834501 .044970 .466894
4 1 .233106 .008316 .582478
5 1 .011398 .591553 .594328
6 1 .547331 .478043 .988179
7 1 .469138 .441745 .006306
ITEM: TIMESTEP
350
ITEM: NUMBER OF ATOMS
7
ITEM: BOX BOUNDS ss ss ss
-3.0352 3.2472
-2.6257 3.5098
-2.0150 1.9125
ITEM: ATOMS id type xs ys zs
1 1 .489533 .990211 .456227
2 1 .991666 .642400 .387837
3 1 .832178 .046510 .467074
4 1 .231906 .011938 .586567
5 1 .009059 .592639 .593913
6 1 .545746 .477811 .987527
7 1 .466650 .444442 .009683
ITEM: TIMESTEP
400
ITEM: NUMBER OF ATOMS
7
ITEM: BOX BOUNDS ss ss ss
-3.0275 3.2434
-2.6195 3.5110
-2.0119 1.9188
ITEM: ATOMS id type xs ys zs
1 1 .485810 .988045 .452405
2 1 .991997 .641050 .387473
3 1 .830741 .043604 .471266
4 1 .228251 .012055 .585791
5 1 .008168 .592748 .593784
6 1 .543875 .476620 .986095
7 1 .466091 .441927 .004834
ITEM: TIMESTEP
1
ITEM: NUMBER OF ATOMS
7
ITEM: BOX BOUNDS ss ss ss
-3.0154 3.2406
-2.6060 3.4964
-2.0143 1.9064
ITEM: ATOMS id type xs ys zs
1 1 .492418 .997339 .452881
2 1 .992395 .642247 .389903
3 1 .832565 .044877 .468731
4 1 .232079 .005111 .586303
5 1 .003281 .588236 .598721
6 1 .542451 .479062 .987286
7 1 .464088 .447150 .012819
ITEM: TIMESTEP
50
ITEM: NUMBER OF ATOMS
7
ITEM: BOX BOUNDS ss ss ss
-3.0239 3.2406
-2.6060 3.5094
-2.0143 1.9064
ITEM: ATOMS id type xs ys zs
1 1 .490880 .994154 .455035
2 1 .992952 .642147 .389126
3 1 .833220 .044128 .471091
4 1 .232827 .005711 .588048
5 1 .005422 .588106 .598863
6 1 .543336 .478132 .988451
7 1 .464737 .446529 .011781
ITEM: TIMESTEP
100
ITEM: NUMBER OF ATOMS
7
ITEM: BOX BOUNDS ss ss ss
-3.0348 3.2339
-2.6241 3.5167
-2.0143 1.9064
ITEM: ATOMS id type xs ys zs
1 1 .493704 .992981 .454256
2 1 .993429 .641076 .389990
3 1 .833608 .047349 .470148
4 1 .233418 .009004 .586582
5 1 .007397 .590323 .597490
6 1 .545156 .477965 .986282
7 1 .467225 .446546 .012678
ITEM: TIMESTEP
150
ITEM: NUMBER OF ATOMS
7
ITEM: BOX BOUNDS ss ss ss
-3.0420 3.2398
-2.6248 3.5253
-2.0143 1.9064
ITEM: ATOMS id type xs ys zs
1 1 .493089 .990209 .453377
2 1 .991595 .638986 .386800
3 1 .833925 .047989 .468736
4 1 .236409 .008941 .584069
5 1 .009696 .589570 .599096
6 1 .546113 .477012 .988360
7 1 .466508 .445214 .010790
ITEM: TIMESTEP
200
ITEM: NUMBER OF ATOMS
7
ITEM: BOX BOUNDS ss ss ss
-3.0484 3.2469
-2.6258 3.5239
-2.0174 1.9064
ITEM: ATOMS id type xs ys zs
1 1 .494252 .990552 .457486
2 1 .991461 .638377 .386642
3 1 .834105 .045195 .467340
4 1 .237127 .010074 .584140
5 1 .013049 .590616 .600130
6 1 .546615 .476172 .987234
7 1 .468005 .447471 .007492
ITEM: TIMESTEP
250
ITEM: NUMBER OF ATOMS
7
ITEM: BOX BOUNDS ss ss ss
-3.0481 3.2563
-2.6232 3.5199
-2.0143 1.9064
ITEM: ATOMS id type xs ys zs
1 1 .493297 .989957 .456661
2 1 .990632 .638298 .385266
3 1 .832494 .045384 .465978
4 1 .235419 .008613 .582985
5 1 .013166 .593560 .599971
6 1 .546286 .475502 .988600
7 1 .465146 .446840 .010018
ITEM: TIMESTEP
300
ITEM: NUMBER OF ATOMS
7
ITEM: BOX BOUNDS ss ss ss
-3.0510 3.2492
-2.6206 3.5283
-2.0205 1.9077
ITEM: ATOMS id type xs ys zs
1 1 .493094 .989567 .459757
2 1 .991197 .638092 .387089
3 1 .833331 .044669 .465286
4 1 .236997 .008842 .583079
5 1 .014517 .593689 .600940
6 1 .547458 .475257 .988173
7 1 .466510 .445265 .011670
ITEM: TIMESTEP
350
ITEM: NUMBER OF ATOMS
7
ITEM: BOX BOUNDS ss ss ss
-3.0464 3.2540
-2.6137 3.5137
-2.0239 1.9133
ITEM: ATOMS id type xs ys zs
1 1 .491131 .990373 .460223
2 1 .989717 .639649 .386525
3 1 .832927 .043603 .464829
4 1 .235524 .008796 .583737
5 1 .013842 .593690 .597846
6 1 .546234 .474965 .985464
7 1 .466164 .445660 .012323
ITEM: TIMESTEP
400
ITEM: NUMBER OF ATOMS
7
ITEM: BOX BOUNDS ss ss ss
-3.0400 3.2531
-2.6154 3.5128
-2.0325 1.9015
ITEM: ATOMS id type xs ys zs
1 1 .491252 .990220 .464576
2 1 .989227 .638803 .387906
3 1 .832630 .044204 .463521
4 1 .233121 .009005 .587542
5 1 .012195 .595766 .598823
6 1 .546717 .473638 .989339
7 1 .463861 .445983 .012714
ITEM: TIMESTEP
1
ITEM: NUMBER OF ATOMS
7
ITEM: BOX BOUNDS ss ss ss
-3.0067 3.2301
-2.6095 3.5097
-2.0188 1.8931
ITEM: ATOMS id type xs ys zs
1 1 .492545 .995179 .455039
2 1 .994049 .641055 .391930
3 1 .833732 .045325 .470932
4 1 .231403 .005682 .588766
5 1 .001900 .587202 .601215
6 1 .542719 .478327 .990648
7 1 .464119 .446497 .014006
ITEM: TIMESTEP
50
ITEM: NUMBER OF ATOMS
7
ITEM: BOX BOUNDS ss ss ss
-3.0262 3.2301
-2.6095 3.5112
-2.0188 1.8931
ITEM: ATOMS id type xs ys zs
1 1 .492353 .994143 .454717
2 1 .994038 .641655 .391808
3 1 .834003 .045041 .470737
4 1 .233637 .005301 .592888
5 1 .007173 .588787 .599736
6 1 .544527 .479398 .991064
7 1 .466004 .446738 .014367
ITEM: TIMESTEP
100
ITEM: NUMBER OF ATOMS
7
ITEM: BOX BOUNDS ss ss ss
-3.0411 3.2363
-2.6116 3.5205
-2.0188 1.8972
ITEM: ATOMS id type xs ys zs
1 1 .492909 .990880 .456249
2 1 .990398 .641435 .393221
3 1 .834851 .045988 .472179
4 1 .233997 .006719 .588724
5 1 .008090 .589359 .597146
6 1 .545166 .477017 .993799
7 1 .468045 .444225 .014187
ITEM: TIMESTEP
150
ITEM: NUMBER OF ATOMS
7
ITEM: BOX BOUNDS ss ss ss
-3.0422 3.2437
-2.6233 3.5207
-2.0188 1.8944
ITEM: ATOMS id type xs ys zs
1 1 .491237 .990505 .459521
2 1 .989857 .641561 .394084
3 1 .833654 .047782 .471243
4 1 .233234 .009978 .587708
5 1 .007003 .589912 .599308
6 1 .543120 .476700 .996095
7 1 .466879 .442751 .015201
ITEM: TIMESTEP
200
ITEM: NUMBER OF ATOMS
7
ITEM: BOX BOUNDS ss ss ss
-3.0504 3.2417
-2.6329 3.5266
-2.0188 1.9004
ITEM: ATOMS id type xs ys zs
1 1 .490699 .989213 .456267
2 1 .990017 .640662 .393558
3 1 .833726 .047565 .475173
4 1 .232982 .011320 .586688
5 1 .010163 .590598 .596636
6 1 .545550 .478480 .990872
7 1 .468155 .445332 .014703
ITEM: TIMESTEP
250
ITEM: NUMBER OF ATOMS
7
ITEM: BOX BOUNDS ss ss ss
-3.0399 3.2501
-2.6197 3.5218
-2.0094 1.9028
ITEM: ATOMS id type xs ys zs
1 1 .490106 .990677 .454447
2 1 .988705 .643423 .389923
3 1 .831860 .045900 .467678
4 1 .232127 .009132 .587584
5 1 .009795 .592993 .594917
6 1 .544648 .476066 .987419
7 1 .466433 .443888 .011526
ITEM: TIMESTEP
300
ITEM: NUMBER OF ATOMS
7
ITEM: BOX BOUNDS ss ss ss
-3.0492 3.2510
-2.6254 3.5227
-2.0023 1.9100
ITEM: ATOMS id type xs ys zs
1 1 .486761 .989667 .455222
2 1 .991226 .640961 .389815
3 1 .830503 .045382 .462435
4 1 .234420 .011674 .589081
5 1 .009847 .592361 .596810
6 1 .546105 .478426 .989892
7 1 .467884 .448244 .010575
ITEM: TIMESTEP
350
ITEM: NUMBER OF ATOMS
7
ITEM: BOX BOUNDS ss ss ss
-3.0467 3.2422
-2.6325 3.5182
-2.0011 1.9110
ITEM: ATOMS id type xs ys zs
1 1 .485090 .988285 .453319
2 1 .991541 .641979 .390786
3 1 .831570 .044448 .464932
4 1 .232201 .014133 .588120
5 1 .010081 .592660 .596345
6 1 .544000 .476696 .987121
7 1 .469866 .446471 .011403
ITEM: TIMESTEP
400
ITEM: NUMBER OF ATOMS
7
ITEM: BOX BOUNDS ss ss ss
-3.0412 3.2448
-2.6139 3.5302
-2.0089 1.9078
ITEM: ATOMS id type xs ys zs
1 1 .487568 .986733 .452932
2 1 .989981 .640900 .392227
3 1 .833703 .043963 .462905
4 1 .231547 .010192 .585122
5 1 .010286 .591263 .591725
6 1 .544063 .474033 .987902
7 1 .467269 .443062 .008948
ITEM: TIMESTEP
1
ITEM: NUMBER OF ATOMS
7
ITEM: BOX BOUNDS ss ss ss
-3.0321 3.2447
-2.6129 3.5099
-2.0069 1.9042
ITEM: ATOMS id type xs ys zs
1 1 .493444 .995137 .452083
2 1 .991766 .641225 .388986
3 1 .832464 .045847 .467977
4 1 .233972 .006221 .585845
5 1 .005933 .587407 .598310
6 1 .543314 .478592 .987817
7 1 .465215 .446773 .010949
ITEM: TIMESTEP
50
ITEM: NUMBER OF ATOMS
7
ITEM: BOX BOUNDS ss ss ss
-3.0324 3.2447
-2.6129 3.5128
-2.0069 1.9042
ITEM: ATOMS id type xs ys zs
1 1 .491965 .993169 .453223
2 1 .991571 .640671 .389347
3 1 .832868 .045006 .467877
4 1 .233514 .006497 .586937
5 1 .005824 .588544 .598275
6 1 .543427 .477655 .989735
7 1 .465076 .446206 .009889
ITEM: TIMESTEP
100
ITEM: NUMBER OF ATOMS
7
ITEM: BOX BOUNDS ss ss ss
-3.0411 3.2447
-2.6176 3.5201
-2.0069 1.9042
ITEM: ATOMS id type xs ys zs
1 1 .493753 .992762 .452298
2 1 .992737 .638845 .392575
3 1 .832199 .045973 .467957
4 1 .234533 .010956 .589707
5 1 .008335 .589693 .596383
6 1 .542653 .478564 .988069
7 1 .467628 .447294 .009437
ITEM: TIMESTEP
150
ITEM: NUMBER OF ATOMS
7
ITEM: BOX BOUNDS ss ss ss
-3.0429 3.2447
-2.6256 3.5289
-2.0069 1.9042
ITEM: ATOMS id type xs ys zs
1 1 .491978 .991150 .456358
2 1 .989839 .643729 .392588
3 1 .832318 .047812 .467092
4 1 .232222 .009187 .588226
5 1 .007346 .589697 .597054
6 1 .545462 .477180 .987283
7 1 .464229 .446830 .012708
ITEM: TIMESTEP
200
ITEM: NUMBER OF ATOMS
7
ITEM: BOX BOUNDS ss ss ss
-3.0487 3.2464
-2.6242 3.5366
-2.0069 1.9118
ITEM: ATOMS id type xs ys zs
1 1 .492042 .990063 .454602
2 1 .990408 .642242 .392207
3 1 .831567 .046629 .466329
4 1 .233640 .009962 .587846
5 1 .008497 .590019 .597272
6 1 .545957 .477247 .985374
7 1 .465270 .445956 .011354
ITEM: TIMESTEP
250
ITEM: NUMBER OF ATOMS
7
ITEM: BOX BOUNDS ss ss ss
-3.0486 3.2474
-2.6348 3.5276
-2.0108 1.9170
ITEM: ATOMS id type xs ys zs
1 1 .493177 .989962 .454380
2 1 .990631 .641953 .389663
3 1 .830791 .050777 .466326
4 1 .233705 .011204 .586296
5 1 .009195 .590814 .596021
6 1 .544862 .480332 .986669
7 1 .465540 .446854 .010677
ITEM: TIMESTEP
300
ITEM: NUMBER OF ATOMS
7
ITEM: BOX BOUNDS ss ss ss
-3.0546 3.2575
-2.6294 3.5297
-2.0214 1.9094
ITEM: ATOMS id type xs ys zs
1 1 .491692 .990160 .454455
2 1 .989734 .641989 .393163
3 1 .830902 .049565 .467517
4 1 .233714 .010695 .589699
5 1 .008933 .592271 .596848
6 1 .545970 .479423 .987193
7 1 .465149 .445612 .013273
ITEM: TIMESTEP
350
ITEM: NUMBER OF ATOMS
7
ITEM: BOX BOUNDS ss ss ss
-3.0525 3.2539
-2.6262 3.5247
-2.0238 1.9162
ITEM: ATOMS id type xs ys zs
1 1 .491588 .988606 .455436
2 1 .992741 .639297 .392431
3 1 .832939 .049309 .464220
4 1 .235780 .008744 .588257
5 1 .011928 .595080 .600642
6 1 .544566 .478960 .989335
7 1 .464452 .443835 .016751
ITEM: TIMESTEP
400
ITEM: NUMBER OF ATOMS
7
ITEM: BOX BOUNDS ss ss ss
-3.0519 3.2545
-2.6201 3.5268
-2.0123 1.9167
ITEM: ATOMS id type xs ys zs
1 1 .490689 .990337 .451486
2 1 .989666 .640885 .391801
3 1 .830825 .047303 .463616
4 1 .235310 .009038 .587962
5 1 .010354 .588914 .594901
6 1 .545403 .477978 .986307
7 1 .467627 .446000 .011611
ITEM: TIMESTEP
1
ITEM: NUMBER OF ATOMS
7
ITEM: BOX BOUNDS ss ss ss
-3.0440 3.2526
-2.6129 3.5243
-2.0054 1.9073
ITEM: ATOMS id type xs ys zs
1 1 .493779 .992802 .451526
2 1 .990539 .639727 .388415
3 1 .831737 .045739 .467411
4 1 .235128 .006224 .585241
5 1 .007805 .586023 .597680
6 1 .543509 .477475 .987035
7 1 .465652 .445731 .010560
ITEM: TIMESTEP
50
ITEM: NUMBER OF ATOMS
7
ITEM: BOX BOUNDS ss ss ss
-3.0440 3.2526
-2.6129 3.5243
-2.0054 1.9073
ITEM: ATOMS id type xs ys zs
1 1 .493326 .990815 .450650
2 1 .992148 .640967 .388185
3 1 .831945 .047320 .467405
4 1 .235172 .006931 .585785
5 1 .008963 .587555 .596280
6 1 .545222 .478216 .989272
7 1 .465608 .444156 .009134
ITEM: TIMESTEP
100
ITEM: NUMBER OF ATOMS
7
ITEM: BOX BOUNDS ss ss ss
-3.0440 3.2526
-2.6180 3.5250
-2.0054 1.9073
ITEM: ATOMS id type xs ys zs
1 1 .490381 .992679 .447772
2 1 .991924 .639969 .388826
3 1 .831943 .046663 .468102
4 1 .233464 .008082 .586002
5 1 .010293 .586988 .592870
6 1 .545449 .475598 .988796
7 1 .466299 .444097 .010558
ITEM: TIMESTEP
150
ITEM: NUMBER OF ATOMS
7
ITEM: BOX BOUNDS ss ss ss
-3.0481 3.2526
-2.6232 3.5291
-2.0144 1.9073
ITEM: ATOMS id type xs ys zs
1 1 .489555 .992252 .447313
2 1 .991819 .639741 .389603
3 1 .830359 .048064 .470683
4 1 .234689 .007748 .586295
5 1 .011403 .587914 .590473
6 1 .546038 .474708 .986471
7 1 .467162 .444938 .010291
ITEM: TIMESTEP
200
ITEM: NUMBER OF ATOMS
7
ITEM: BOX BOUNDS ss ss ss
-3.0530 3.2526
-2.6315 3.5326
-2.0055 1.9073
ITEM: ATOMS id type xs ys zs
1 1 .491266 .988127 .453627
2 1 .991395 .641662 .389230
3 1 .829693 .048765 .470817
4 1 .236363 .013378 .587097
5 1 .009439 .589708 .599251
6 1 .545652 .479692 .989898
7 1 .467247 .447038 .012048
ITEM: TIMESTEP
250
ITEM: NUMBER OF ATOMS
7
ITEM: BOX BOUNDS ss ss ss
-3.0532 3.2584
-2.6250 3.5258
-2.0091 1.9092
ITEM: ATOMS id type xs ys zs
1 1 .490720 .989973 .450463
2 1 .990066 .639668 .388565
3 1 .830289 .047593 .469067
4 1 .235296 .013031 .586064
5 1 .011487 .590633 .598869
6 1 .544765 .479881 .988097
7 1 .467307 .447137 .010517
ITEM: TIMESTEP
300
ITEM: NUMBER OF ATOMS
7
ITEM: BOX BOUNDS ss ss ss
-3.0562 3.2526
-2.6281 3.5268
-2.0054 1.9073
ITEM: ATOMS id type xs ys zs
1 1 .490430 .990146 .453586
2 1 .990923 .640866 .390290
3 1 .830692 .048911 .468506
4 1 .236698 .012098 .586921
5 1 .012206 .589786 .599702
6 1 .547950 .479746 .991786
7 1 .467432 .444933 .011962
ITEM: TIMESTEP
350
ITEM: NUMBER OF ATOMS
7
ITEM: BOX BOUNDS ss ss ss
-3.0397 3.2500
-2.6205 3.5204
-2.0094 1.9039
ITEM: ATOMS id type xs ys zs
1 1 .491038 .989539 .454933
2 1 .989577 .641586 .385930
3 1 .832489 .048719 .470435
4 1 .232885 .012082 .588010
5 1 .012210 .591085 .598330
6 1 .546141 .477596 .995115
7 1 .466105 .445375 .009847
ITEM: TIMESTEP
400
ITEM: NUMBER OF ATOMS
7
ITEM: BOX BOUNDS ss ss ss
-3.0404 3.2512
-2.6145 3.5243
-2.0211 1.9120
ITEM: ATOMS id type xs ys zs
1 1 .492137 .988238 .457191
2 1 .990207 .641790 .387766
3 1 .831684 .047364 .470389
4 1 .232481 .009563 .589135
5 1 .012856 .590091 .598420
6 1 .547171 .475590 .995248
7 1 .466159 .444702 .013369
ITEM: TIMESTEP
1
ITEM: NUMBER OF ATOMS
7
ITEM: BOX BOUNDS ss ss ss
-3.0314 3.2418
-2.6129 3.5185
-2.0042 1.9118
ITEM: ATOMS id type xs ys zs
1 1 .493622 .993767 .450836
2 1 .992218 .640334 .387792
3 1 .832830 .045778 .466722
4 1 .233988 .006224 .584427
5 1 .005821 .586573 .596870
6 1 .543515 .477934 .985885
7 1 .465363 .446169 .010271
ITEM: TIMESTEP
50
ITEM: NUMBER OF ATOMS
7
ITEM: BOX BOUNDS ss ss ss
-3.0314 3.2418
-2.6129 3.5152
-2.0042 1.9118
ITEM: ATOMS id type xs ys zs
1 1 .490835 .994222 .450512
2 1 .993908 .639990 .387162
3 1 .832814 .043995 .465942
4 1 .233422 .005704 .585991
5 1 .006044 .588259 .594125
6 1 .543529 .476594 .986735
7 1 .464900 .445690 .010608
ITEM: TIMESTEP
100
ITEM: NUMBER OF ATOMS
7
ITEM: BOX BOUNDS ss ss ss
-3.0446 3.2418
-2.6207 3.5225
-2.0042 1.9118
ITEM: ATOMS id type xs ys zs
1 1 .490456 .993286 .454839
2 1 .993648 .640738 .385372
3 1 .833628 .045651 .460661
4 1 .237220 .006210 .584446
5 1 .008904 .584893 .591629
6 1 .543026 .476225 .984912
7 1 .468673 .447065 .007921
ITEM: TIMESTEP
150
ITEM: NUMBER OF ATOMS
7
ITEM: BOX BOUNDS ss ss ss
-3.0518 3.2418
-2.6325 3.5379
-2.0042 1.9118
ITEM: ATOMS id type xs ys zs
1 1 .492922 .986583 .452643
2 1 .992618 .638528 .387707
3 1 .830533 .046086 .471148
4 1 .235799 .012377 .581343
5 1 .008429 .587214 .599810
6 1 .543211 .478868 .988022
7 1 .465747 .445416 .011393
ITEM: TIMESTEP
200
ITEM: NUMBER OF ATOMS
7
ITEM: BOX BOUNDS ss ss ss
-3.0607 3.2459
-2.6358 3.5335
-2.0104 1.9118
ITEM: ATOMS id type xs ys zs
1 1 .495786 .988167 .452113
2 1 .991167 .637972 .389781
3 1 .829111 .048438 .468559
4 1 .236006 .009923 .585031
5 1 .012542 .587402 .596874
6 1 .546333 .480024 .988302
7 1 .467435 .446777 .010110
ITEM: TIMESTEP
250
ITEM: NUMBER OF ATOMS
7
ITEM: BOX BOUNDS ss ss ss
-3.0592 3.2565
-2.6396 3.5349
-2.0121 1.9118
ITEM: ATOMS id type xs ys zs
1 1 .491333 .987708 .457269
2 1 .990698 .636262 .389686
3 1 .828597 .049847 .475904
4 1 .236388 .013490 .583543
5 1 .009513 .590525 .599949
6 1 .545373 .481197 .987407
7 1 .464413 .448254 .011084
ITEM: TIMESTEP
300
ITEM: NUMBER OF ATOMS
7
ITEM: BOX BOUNDS ss ss ss
-3.0623 3.2495
-2.6352 3.5283
-2.0081 1.9118
ITEM: ATOMS id type xs ys zs
1 1 .491543 .989567 .449632
2 1 .989677 .639535 .387948
3 1 .832917 .047733 .470079
4 1 .239743 .012350 .585553
5 1 .010245 .589627 .598289
6 1 .542764 .481327 .991175
7 1 .466598 .445961 .010106
ITEM: TIMESTEP
350
ITEM: NUMBER OF ATOMS
7
ITEM: BOX BOUNDS ss ss ss
-3.0600 3.2585
-2.6338 3.5251
-2.0195 1.9209
ITEM: ATOMS id type xs ys zs
1 1 .488427 .988574 .448241
2 1 .989885 .640721 .388204
3 1 .825210 .047546 .468336
4 1 .235911 .009507 .582997
5 1 .012267 .586143 .601285
6 1 .546690 .480320 .985908
7 1 .464540 .444634 .011148
ITEM: TIMESTEP
400
ITEM: NUMBER OF ATOMS
7
ITEM: BOX BOUNDS ss ss ss
-3.0577 3.2617
-2.6441 3.5259
-2.0191 1.9238
ITEM: ATOMS id type xs ys zs
1 1 .489382 .989692 .453165
2 1 .989514 .641347 .389663
3 1 .826938 .045540 .471721
4 1 .230663 .011965 .579314
5 1 .012326 .588422 .592755
6 1 .545471 .483931 .984253
7 1 .469016 .446716 .011886
ITEM: TIMESTEP
450
ITEM: NUMBER OF ATOMS
7
ITEM: BOX BOUNDS ss ss ss
-3.0677 3.2657
-2.6303 3.5344
-2.0191 1.9261
ITEM: ATOMS id type xs ys zs
1 1 .487982 .988021 .444676
2 1 .990122 .641190 .386792
3 1 .827620 .048613 .470718
4 1 .234882 .010276 .586312
5 1 .013941 .586174 .600150
6 1 .546345 .481084 .985321
7 1 .467148 .444692 .011343
ITEM: TIMESTEP
500
ITEM: NUMBER OF ATOMS
7
ITEM: BOX BOUNDS ss ss ss
-3.0601 3.2655
-2.6278 3.5352
-2.0291 1.9208
ITEM: ATOMS id type xs ys zs
1 1 .487405 .988023 .448461
2 1 .989714 .640957 .384809
3 1 .826726 .047676 .470875
4 1 .236288 .008697 .589742
5 1 .013418 .587899 .602479
6 1 .545356 .481524 .987478
7 1 .467901 .445396 .014181
ITEM: TIMESTEP
550
ITEM: NUMBER OF ATOMS
7
ITEM: BOX BOUNDS ss ss ss
-3.0680 3.2583
-2.6303 3.5282
-2.0212 1.9062
ITEM: ATOMS id type xs ys zs
1 1 .490568 .988655 .443776
2 1 .989787 .642851 .380179
3 1 .832748 .049051 .473074
4 1 .234157 .009069 .586822
5 1 .012886 .588192 .602035
6 1 .546503 .477042 .984324
7 1 .465047 .443149 .012413
ITEM: TIMESTEP
600
ITEM: NUMBER OF ATOMS
7
ITEM: BOX BOUNDS ss ss ss
-3.0557 3.2651
-2.6358 3.5221
-2.0214 1.9053
ITEM: ATOMS id type xs ys zs
1 1 .487763 .987454 .451324
2 1 .987452 .642040 .390944
3 1 .827715 .045711 .467299
4 1 .236582 .012215 .581977
5 1 .013148 .586610 .605843
6 1 .546291 .478356 .990782
7 1 .466239 .445853 .008477
ITEM: TIMESTEP
1
ITEM: NUMBER OF ATOMS
7
ITEM: BOX BOUNDS ss ss ss
-3.0601 3.2636
-2.6296 3.5108
-2.0254 1.9053
ITEM: ATOMS id type xs ys zs
1 1 .494208 .995002 .454551
2 1 .988839 .642118 .391763
3 1 .830712 .048442 .470326
4 1 .236663 .008946 .587625
5 1 .010317 .588451 .600047
6 1 .543713 .479944 .987579
7 1 .466189 .448215 .015602
ITEM: TIMESTEP
50
ITEM: NUMBER OF ATOMS
7
ITEM: BOX BOUNDS ss ss ss
-3.0601 3.2636
-2.6296 3.5114
-2.0254 1.9053
ITEM: ATOMS id type xs ys zs
1 1 .492406 .995176 .454514
2 1 .988763 .642084 .392316
3 1 .830665 .047600 .468868
4 1 .237428 .009755 .589932
5 1 .011355 .590116 .598691
6 1 .544582 .480598 .987776
7 1 .466385 .447423 .015105
ITEM: TIMESTEP
100
ITEM: NUMBER OF ATOMS
7
ITEM: BOX BOUNDS ss ss ss
-3.0601 3.2636
-2.6222 3.5222
-2.0254 1.9053
ITEM: ATOMS id type xs ys zs
1 1 .491589 .992277 .453569
2 1 .987625 .640786 .390911
3 1 .829572 .045950 .472298
4 1 .236497 .008212 .590324
5 1 .012275 .587327 .601225
6 1 .544656 .478393 .990679
7 1 .464393 .446812 .014365
ITEM: TIMESTEP
150
ITEM: NUMBER OF ATOMS
7
ITEM: BOX BOUNDS ss ss ss
-3.0601 3.2636
-2.6288 3.5307
-2.0173 1.9053
ITEM: ATOMS id type xs ys zs
1 1 .492866 .990134 .450773
2 1 .989996 .640986 .394162
3 1 .829484 .047264 .466548
4 1 .235163 .008491 .578719
5 1 .011565 .589105 .595872
6 1 .543618 .476196 .986614
7 1 .468478 .445647 .012717
ITEM: TIMESTEP
200
ITEM: NUMBER OF ATOMS
7
ITEM: BOX BOUNDS ss ss ss
-3.0613 3.2636
-2.6252 3.5315
-2.0173 1.9053
ITEM: ATOMS id type xs ys zs
1 1 .492568 .991658 .456960
2 1 .985419 .640410 .392695
3 1 .829368 .047044 .469603
4 1 .236420 .009092 .588599
5 1 .012694 .588033 .591775
6 1 .542104 .478617 .986334
7 1 .468466 .444055 .008657
ITEM: TIMESTEP
250
ITEM: NUMBER OF ATOMS
7
ITEM: BOX BOUNDS ss ss ss
-3.0601 3.2636
-2.6342 3.5383
-2.0115 1.9053
ITEM: ATOMS id type xs ys zs
1 1 .490898 .990648 .451882
2 1 .987875 .640334 .392476
3 1 .831617 .048829 .466816
4 1 .234382 .010442 .583898
5 1 .012005 .589160 .591082
6 1 .543235 .475786 .984146
7 1 .467670 .444503 .008123
ITEM: TIMESTEP
300
ITEM: NUMBER OF ATOMS
7
ITEM: BOX BOUNDS ss ss ss
-3.0601 3.2636
-2.6297 3.5259
-2.0163 1.9053
ITEM: ATOMS id type xs ys zs
1 1 .488765 .992416 .449220
2 1 .989169 .642154 .391121
3 1 .832357 .047461 .466475
4 1 .234141 .008415 .581069
5 1 .011418 .589997 .592050
6 1 .544284 .476129 .984236
7 1 .470100 .444415 .010602
ITEM: TIMESTEP
350
ITEM: NUMBER OF ATOMS
7
ITEM: BOX BOUNDS ss ss ss
-3.0663 3.2636
-2.6274 3.5287
-2.0258 1.9053
ITEM: ATOMS id type xs ys zs
1 1 .491580 .991712 .461838
2 1 .984429 .645174 .391317
3 1 .831253 .048291 .467965
4 1 .234361 .010475 .592872
5 1 .011912 .591959 .594442
6 1 .540866 .474792 .986328
7 1 .467085 .443272 .011704
ITEM: TIMESTEP
400
ITEM: NUMBER OF ATOMS
7
ITEM: BOX BOUNDS ss ss ss
-3.0601 3.2636
-2.6222 3.5256
-2.0121 1.9024
ITEM: ATOMS id type xs ys zs
1 1 .486630 .991878 .453694
2 1 .987878 .639968 .389124
3 1 .830074 .045749 .466670
4 1 .232257 .007520 .582281
5 1 .011257 .588620 .592037
6 1 .543645 .475796 .984558
7 1 .467961 .444786 .013288
ITEM: TIMESTEP
1
ITEM: NUMBER OF ATOMS
7
ITEM: BOX BOUNDS ss ss ss
-3.0610 3.2636
-2.6211 3.5171
-2.0196 1.9024
ITEM: ATOMS id type xs ys zs
1 1 .494287 .993983 .454078
2 1 .988843 .640964 .391146
3 1 .830746 .047077 .469918
4 1 .236779 .007547 .587443
5 1 .010455 .587267 .599883
6 1 .543779 .478722 .988296
7 1 .466277 .446997 .014174
ITEM: TIMESTEP
50
ITEM: NUMBER OF ATOMS
7
ITEM: BOX BOUNDS ss ss ss
-3.0610 3.2636
-2.6211 3.5184
-2.0196 1.9024
ITEM: ATOMS id type xs ys zs
1 1 .493086 .992954 .452705
2 1 .989059 .641835 .389638
3 1 .829655 .046311 .469686
4 1 .235892 .007457 .588806
5 1 .010919 .588216 .598120
6 1 .543533 .478562 .989694
7 1 .465161 .446458 .014100
ITEM: TIMESTEP
100
ITEM: NUMBER OF ATOMS
7
ITEM: BOX BOUNDS ss ss ss
-3.0610 3.2636
-2.6211 3.5286
-2.0196 1.9024
ITEM: ATOMS id type xs ys zs
1 1 .492356 .990109 .451673
2 1 .990699 .638331 .389909
3 1 .831114 .048631 .469641
4 1 .236997 .009728 .588311
5 1 .009742 .587906 .598991
6 1 .544695 .480069 .987853
7 1 .465849 .445032 .013405
ITEM: TIMESTEP
150
ITEM: NUMBER OF ATOMS
7
ITEM: BOX BOUNDS ss ss ss
-3.0601 3.2636
-2.6268 3.5306
-2.0196 1.9024
ITEM: ATOMS id type xs ys zs
1 1 .491594 .990125 .454157
2 1 .989735 .638338 .391374
3 1 .829802 .049142 .469588
4 1 .234804 .010931 .592406
5 1 .008575 .587424 .599830
6 1 .546191 .481504 .988208
7 1 .464791 .444871 .013265
ITEM: TIMESTEP
200
ITEM: NUMBER OF ATOMS
7
ITEM: BOX BOUNDS ss ss ss
-3.0601 3.2636
-2.6358 3.5335
-2.0196 1.9067
ITEM: ATOMS id type xs ys zs
1 1 .491943 .989247 .448320
2 1 .989108 .640500 .389970
3 1 .832411 .052708 .472001
4 1 .239045 .010686 .588750
5 1 .011973 .588191 .600336
6 1 .544180 .480230 .990817
7 1 .465088 .444173 .013171
ITEM: TIMESTEP
250
ITEM: NUMBER OF ATOMS
7
ITEM: BOX BOUNDS ss ss ss
-3.0608 3.2636
-2.6328 3.5351
-2.0230 1.9024
ITEM: ATOMS id type xs ys zs
1 1 .491199 .988198 .450277
2 1 .992260 .639984 .389504
3 1 .831735 .050596 .469222
4 1 .238017 .012009 .590646
5 1 .009115 .586589 .596880
6 1 .544877 .483027 .988735
7 1 .467952 .443122 .009112
ITEM: TIMESTEP
300
ITEM: NUMBER OF ATOMS
7
ITEM: BOX BOUNDS ss ss ss
-3.0611 3.2636
-2.6366 3.5413
-2.0115 1.9051
ITEM: ATOMS id type xs ys zs
1 1 .489795 .989152 .455245
2 1 .989598 .640421 .385123
3 1 .831719 .051696 .472040
4 1 .238112 .013442 .594759
5 1 .007207 .587606 .594524
6 1 .547248 .484355 .990456
7 1 .466541 .447238 .011995
ITEM: TIMESTEP
350
ITEM: NUMBER OF ATOMS
7
ITEM: BOX BOUNDS ss ss ss
-3.0615 3.2660
-2.6335 3.5371
-2.0115 1.9065
ITEM: ATOMS id type xs ys zs
1 1 .489699 .990172 .453815
2 1 .988807 .640132 .390796
3 1 .830415 .049283 .468707
4 1 .238341 .013065 .590031
5 1 .009302 .587546 .593966
6 1 .546164 .481452 .986013
7 1 .466368 .449279 .007760
ITEM: TIMESTEP
400
ITEM: NUMBER OF ATOMS
7
ITEM: BOX BOUNDS ss ss ss
-3.0740 3.2675
-2.6289 3.5326
-2.0306 1.9120
ITEM: ATOMS id type xs ys zs
1 1 .490453 .991980 .453846
2 1 .989654 .640184 .399067
3 1 .830545 .048105 .468195
4 1 .239154 .013059 .590609
5 1 .011322 .588650 .592503
6 1 .545672 .480918 .982104
7 1 .465839 .449585 .010244
ITEM: TIMESTEP
450
ITEM: NUMBER OF ATOMS
7
ITEM: BOX BOUNDS ss ss ss
-3.0704 3.2730
-2.6365 3.5386
-2.0276 1.9109
ITEM: ATOMS id type xs ys zs
1 1 .491725 .986417 .462558
2 1 .989205 .638655 .405254
3 1 .828581 .050043 .449893
4 1 .237778 .008530 .585459
5 1 .011094 .584882 .591136
6 1 .542291 .474015 .984992
7 1 .468668 .449212 .010332
ITEM: TIMESTEP
500
ITEM: NUMBER OF ATOMS
7
ITEM: BOX BOUNDS ss ss ss
-3.0664 3.2644
-2.6351 3.5410
-2.0189 1.9046
ITEM: ATOMS id type xs ys zs
1 1 .490467 .984843 .463593
2 1 .990499 .637600 .405149
3 1 .829641 .050415 .449541
4 1 .237670 .007474 .584844
5 1 .009900 .584349 .592872
6 1 .541352 .472904 .988091
7 1 .468610 .448489 .009339
ITEM: TIMESTEP
550
ITEM: NUMBER OF ATOMS
7
ITEM: BOX BOUNDS ss ss ss
-3.0709 3.2678
-2.6414 3.5555
-2.0259 1.9038
ITEM: ATOMS id type xs ys zs
1 1 .490714 .983473 .465871
2 1 .990778 .636329 .406891
3 1 .829128 .046997 .444260
4 1 .240881 .011561 .584501
5 1 .012651 .585002 .592153
6 1 .544319 .473677 .985727
7 1 .468245 .446035 .013721
ITEM: TIMESTEP
600
ITEM: NUMBER OF ATOMS
7
ITEM: BOX BOUNDS ss ss ss
-3.0764 3.2650
-2.6458 3.5386
-2.0135 1.8964
ITEM: ATOMS id type xs ys zs
1 1 .491767 .986660 .466205