ITEM: TIMESTEP
1
ITEM: NUMBER OF ATOMS
7
ITEM: BOX BOUNDS ss ss ss
-2.9993 3.1968
-2.5787 3.4849
-1.9681 1.8604
ITEM: ATOMS id type xs ys zs
1 1 .494720 .999189 .451735
2 1 .999264 .642057 .387371
3 1 .838160 .040815 .468092
4 1 .231655 .000344 .588376
5 1 .000544 .587504 .601660
6 1 .545025 .477673 .999458
7 1 .465841 .445582 .000947
ITEM: TIMESTEP
50
ITEM: NUMBER OF ATOMS
7
ITEM: BOX BOUNDS ss ss ss
-3.0305 3.2256
-2.6077 3.5115
-1.9905 1.8832
ITEM: ATOMS id type xs ys zs
1 1 .494997 .995802 .456384
2 1 .994642 .640644 .391564
3 1 .837032 .045208 .469418
4 1 .235551 .005143 .587083
5 1 .005536 .586549 .599373
6 1 .544521 .477712 .992845
7 1 .466123 .448230 .009352
ITEM: TIMESTEP
100
ITEM: NUMBER OF ATOMS
7
ITEM: BOX BOUNDS ss ss ss
-3.0379 3.2297
-2.6134 3.5214
-2.0005 1.8900
ITEM: ATOMS id type xs ys zs
1 1 .495159 .994866 .455879
2 1 .993884 .639430 .390721
3 1 .838938 .043888 .469017
4 1 .236399 .004510 .588322
5 1 .007368 .584606 .602262
6 1 .545617 .478011 .990156
7 1 .467673 .449230 .011670
ITEM: TIMESTEP
150
ITEM: NUMBER OF ATOMS
7
ITEM: BOX BOUNDS ss ss ss
-3.0441 3.2413
-2.6146 3.5265
-2.0046 1.9013
ITEM: ATOMS id type xs ys zs
1 1 .497548 .992018 .453495
2 1 .993340 .636544 .387145
3 1 .829258 .047301 .466297
4 1 .234766 .004768 .584625
5 1 .006437 .587460 .598554
6 1 .542220 .477912 .987118
7 1 .466869 .446189 .012093
ITEM: TIMESTEP
200
ITEM: NUMBER OF ATOMS
7
ITEM: BOX BOUNDS ss ss ss
-3.0399 3.2420
-2.6261 3.5193
-2.0079 1.9049
ITEM: ATOMS id type xs ys zs
1 1 .492648 .993395 .453556
2 1 .992702 .639152 .388833
3 1 .832966 .045941 .468158
4 1 .235939 .006969 .592053
5 1 .007065 .583667 .603985
6 1 .544201 .478208 .988133
7 1 .464387 .445795 .013930
ITEM: TIMESTEP
250
ITEM: NUMBER OF ATOMS
7
ITEM: BOX BOUNDS ss ss ss
-3.0431 3.2447
-2.6276 3.5165
-2.0043 1.9119
ITEM: ATOMS id type xs ys zs
1 1 .494120 .994219 .452952
2 1 .992861 .638714 .386452
3 1 .830790 .045731 .464987
4 1 .236332 .006214 .591451
5 1 .007268 .582750 .601203
6 1 .542674 .478303 .988326
7 1 .462466 .447829 .015174
ITEM: TIMESTEP
300
ITEM: NUMBER OF ATOMS
7
ITEM: BOX BOUNDS ss ss ss
-3.0506 3.2475
-2.6155 3.5216
-2.0108 1.9137
ITEM: ATOMS id type xs ys zs
1 1 .491870 .987179 .453914
2 1 .995241 .639900 .385268
3 1 .825851 .043002 .466757
4 1 .229906 .007624 .584745
5 1 .009093 .591120 .590297
6 1 .545170 .477302 .991928
7 1 .468849 .445881 .011745
ITEM: TIMESTEP
350
ITEM: NUMBER OF ATOMS
7
ITEM: BOX BOUNDS ss ss ss
-3.0388 3.2489
-2.6176 3.5166
-2.0113 1.9113
ITEM: ATOMS id type xs ys zs
1 1 .490725 .993134 .451857
2 1 .992698 .644476 .389917
3 1 .833982 .050534 .462778
4 1 .233274 .006859 .585822
5 1 .010741 .592545 .601563
6 1 .542665 .479755 .989766
7 1 .466881 .443516 .014765
ITEM: TIMESTEP
400
ITEM: NUMBER OF ATOMS
7
ITEM: BOX BOUNDS ss ss ss
-3.0422 3.2478
-2.6142 3.5103
-2.0301 1.9147
ITEM: ATOMS id type xs ys zs
1 1 .489997 .993161 .451495
2 1 .992968 .644217 .391430
3 1 .834297 .049966 .463297
4 1 .232500 .007545 .586755
5 1 .011949 .591961 .605714
6 1 .542272 .481255 .990543
7 1 .467487 .443616 .017348
ITEM: TIMESTEP
1
ITEM: NUMBER OF ATOMS
7
ITEM: BOX BOUNDS ss ss ss
-3.0270 3.2325
-2.6130 3.4962
-2.0049 1.9003
ITEM: ATOMS id type xs ys zs
1 1 .494222 .997561 .452296
2 1 .993785 .642798 .388982
3 1 .833674 .045904 .468040
4 1 .233823 .006151 .586451
5 1 .004939 .588350 .598926
6 1 .543963 .480010 .988783
7 1 .465807 .447854 .010388
ITEM: TIMESTEP
50
ITEM: NUMBER OF ATOMS
7
ITEM: BOX BOUNDS ss ss ss
-3.0270 3.2325
-2.6130 3.5108
-2.0049 1.9003
ITEM: ATOMS id type xs ys zs
1 1 .494192 .994253 .448339
2 1 .994950 .642145 .392622
3 1 .834665 .046778 .467041
4 1 .234152 .006092 .585983
5 1 .002950 .585817 .597615
6 1 .543414 .478437 .987233
7 1 .464537 .446794 .011497
ITEM: TIMESTEP
100
ITEM: NUMBER OF ATOMS
7
ITEM: BOX BOUNDS ss ss ss
-3.0327 3.2325
-2.6153 3.5282
-2.0021 1.9003
ITEM: ATOMS id type xs ys zs
1 1 .496315 .989343 .447595
2 1 .995331 .640453 .393125
3 1 .834219 .046945 .469574
4 1 .235596 .007891 .587178
5 1 .005593 .584362 .600989
6 1 .541213 .476769 .986603
7 1 .464697 .448206 .011080
ITEM: TIMESTEP
150
ITEM: NUMBER OF ATOMS
7
ITEM: BOX BOUNDS ss ss ss
-3.0469 3.2419
-2.6229 3.5250
-2.0043 1.9003
ITEM: ATOMS id type xs ys zs
1 1 .494937 .990930 .452494
2 1 .990831 .641402 .389138
3 1 .831413 .047876 .471467
4 1 .236579 .005239 .585217
5 1 .007380 .584373 .592986
6 1 .544524 .477232 .986762
7 1 .466761 .443094 .010129
ITEM: TIMESTEP
200
ITEM: NUMBER OF ATOMS
7
ITEM: BOX BOUNDS ss ss ss
-3.0447 3.2471
-2.6174 3.5247
-2.0098 1.9002
ITEM: ATOMS id type xs ys zs
1 1 .494512 .990984 .451677
2 1 .988255 .639637 .392088
3 1 .830397 .047389 .471954
4 1 .235659 .003787 .584989
5 1 .007112 .581606 .593041
6 1 .543579 .476393 .982322
7 1 .467147 .442508 .009766
ITEM: TIMESTEP
250
ITEM: NUMBER OF ATOMS
7
ITEM: BOX BOUNDS ss ss ss
-3.0422 3.2417
-2.6225 3.5206
-2.0099 1.9103
ITEM: ATOMS id type xs ys zs
1 1 .490932 .990630 .454750
2 1 .993870 .639757 .386855
3 1 .832203 .048467 .460450
4 1 .235650 .007389 .583661
5 1 .005460 .590141 .598045
6 1 .547799 .476579 .979192
7 1 .464461 .443741 .010758
ITEM: TIMESTEP
300
ITEM: NUMBER OF ATOMS
7
ITEM: BOX BOUNDS ss ss ss
-3.0462 3.2442
-2.6176 3.5162
-2.0116 1.9076
ITEM: ATOMS id type xs ys zs
1 1 .490010 .990400 .458807
2 1 .996158 .639656 .388388
3 1 .831718 .046287 .469141
4 1 .240435 .006619 .586272
5 1 .008740 .587551 .604859
6 1 .548384 .482421 .989132
7 1 .469283 .447035 .015405
ITEM: TIMESTEP
350
ITEM: NUMBER OF ATOMS
7
ITEM: BOX BOUNDS ss ss ss
-3.0352 3.2472
-2.6257 3.5098
-2.0150 1.9125
ITEM: ATOMS id type xs ys zs
1 1 .490027 .990488 .454622
2 1 .992678 .639118 .390217
3 1 .833359 .048320 .465922
4 1 .231130 .009576 .588066
5 1 .007583 .592739 .598162
6 1 .544687 .478480 .990042
7 1 .467559 .445338 .011740
ITEM: TIMESTEP
400
ITEM: NUMBER OF ATOMS
7
ITEM: BOX BOUNDS ss ss ss
-3.0275 3.2434
-2.6195 3.5110
-2.0119 1.9188
ITEM: ATOMS id type xs ys zs
1 1 .488932 .990803 .449587
2 1 .992445 .639918 .384627
3 1 .827973 .044852 .462542
4 1 .231505 .009740 .581560
5 1 .006540 .590662 .590919
6 1 .546424 .474590 .984850
7 1 .464542 .446284 .011301
ITEM: TIMESTEP
1
ITEM: NUMBER OF ATOMS
7
ITEM: BOX BOUNDS ss ss ss
-3.0154 3.2406
-2.6060 3.4964
-2.0143 1.9064
ITEM: ATOMS id type xs ys zs
1 1 .492296 .997332 .452533
2 1 .992070 .642089 .389544
3 1 .832631 .044918 .468590
4 1 .232107 .004992 .586204
5 1 .003130 .587915 .598761
6 1 .542283 .479181 .987539
7 1 .464286 .447236 .012853
ITEM: TIMESTEP
50
ITEM: NUMBER OF ATOMS
7
ITEM: BOX BOUNDS ss ss ss
-3.0239 3.2406
-2.6060 3.5094
-2.0143 1.9064
ITEM: ATOMS id type xs ys zs
1 1 .492628 .993826 .450404
2 1 .993436 .641475 .387812
3 1 .832043 .045759 .467761
4 1 .233334 .004368 .584580
5 1 .002936 .586672 .597699
6 1 .541640 .478142 .989925
7 1 .465457 .446368 .013581
ITEM: TIMESTEP
100
ITEM: NUMBER OF ATOMS
7
ITEM: BOX BOUNDS ss ss ss
-3.0348 3.2339
-2.6241 3.5167
-2.0143 1.9064
ITEM: ATOMS id type xs ys zs
1 1 .496870 .992360 .448435
2 1 .993577 .642108 .388518
3 1 .831919 .048111 .469549
4 1 .235736 .005798 .587177
5 1 .003260 .586685 .600347
6 1 .542855 .480459 .990315
7 1 .465521 .446535 .017783
ITEM: TIMESTEP
150
ITEM: NUMBER OF ATOMS
7
ITEM: BOX BOUNDS ss ss ss
-3.0420 3.2398
-2.6248 3.5253
-2.0143 1.9064
ITEM: ATOMS id type xs ys zs
1 1 .496956 .991575 .449082
2 1 .991865 .640160 .386988
3 1 .832239 .047328 .469110
4 1 .236388 .005309 .587100
5 1 .003864 .584499 .599387
6 1 .545488 .478492 .989530
7 1 .465446 .447137 .018391
ITEM: TIMESTEP
200
ITEM: NUMBER OF ATOMS
7
ITEM: BOX BOUNDS ss ss ss
-3.0484 3.2469
-2.6258 3.5239
-2.0174 1.9064
ITEM: ATOMS id type xs ys zs
1 1 .497657 .993204 .449835
2 1 .991514 .639649 .388159
3 1 .829891 .050060 .467736
4 1 .235624 .004669 .587492
5 1 .004262 .584624 .600375
6 1 .544337 .478986 .989406
7 1 .464065 .446368 .022316
ITEM: TIMESTEP
250
ITEM: NUMBER OF ATOMS
7
ITEM: BOX BOUNDS ss ss ss
-3.0481 3.2563
-2.6232 3.5199
-2.0143 1.9064
ITEM: ATOMS id type xs ys zs
1 1 .492476 .990938 .454852
2 1 .990329 .642681 .387822
3 1 .829123 .046742 .463481
4 1 .238543 .004838 .586138
5 1 .008577 .584678 .597442
6 1 .544811 .477304 .985784
7 1 .465149 .450360 .007310
ITEM: TIMESTEP
300
ITEM: NUMBER OF ATOMS
7
ITEM: BOX BOUNDS ss ss ss
-3.0510 3.2492
-2.6206 3.5283
-2.0205 1.9077
ITEM: ATOMS id type xs ys zs
1 1 .493157 .990550 .457690
2 1 .989583 .640913 .388641
3 1 .830929 .048213 .468423
4 1 .238011 .006102 .589990
5 1 .009560 .584397 .596834
6 1 .542392 .476128 .982664
7 1 .463720 .448033 .008448
ITEM: TIMESTEP
350
ITEM: NUMBER OF ATOMS
7
ITEM: BOX BOUNDS ss ss ss
-3.0464 3.2540
-2.6137 3.5137
-2.0239 1.9133
ITEM: ATOMS id type xs ys zs
1 1 .492702 .993642 .453712
2 1 .993347 .640362 .383080
3 1 .832091 .043730 .471857
4 1 .237058 .009629 .585513
5 1 .011230 .595835 .601586
6 1 .544605 .475656 .979174
7 1 .466584 .449518 .006528
ITEM: TIMESTEP
400
ITEM: NUMBER OF ATOMS
7
ITEM: BOX BOUNDS ss ss ss
-3.0400 3.2531
-2.6154 3.5128
-2.0325 1.9015
ITEM: ATOMS id type xs ys zs
1 1 .493235 .994363 .456134
2 1 .989963 .639550 .385406
3 1 .829566 .045638 .475596
4 1 .236674 .011619 .586441
5 1 .010545 .595215 .606438
6 1 .545542 .475904 .980563
7 1 .465404 .450438 .006658
ITEM: TIMESTEP
1
ITEM: NUMBER OF ATOMS
7
ITEM: BOX BOUNDS ss ss ss
-3.0067 3.2301
-2.6095 3.5097
-2.0188 1.8931
ITEM: ATOMS id type xs ys zs
1 1 .492907 .995206 .454940
2 1 .993963 .641059 .391735
3 1 .833671 .045430 .470748
4 1 .231552 .005486 .588805
5 1 .001985 .587296 .601278
6 1 .542786 .478640 .990589
7 1 .464166 .446693 .013958
ITEM: TIMESTEP
50
ITEM: NUMBER OF ATOMS
7
ITEM: BOX BOUNDS ss ss ss
-3.0262 3.2301
-2.6095 3.5112
-2.0188 1.8931
ITEM: ATOMS id type xs ys zs
1 1 .496264 .996500 .455266
2 1 .994553 .642182 .392140
3 1 .834370 .045974 .468568
4 1 .235237 .005739 .585429
5 1 .004782 .586213 .603475
6 1 .544027 .479585 .990095
7 1 .466718 .446354 .018293
ITEM: TIMESTEP
100
ITEM: NUMBER OF ATOMS
7
ITEM: BOX BOUNDS ss ss ss
-3.0411 3.2363
-2.6116 3.5205
-2.0188 1.8972
ITEM: ATOMS id type xs ys zs
1 1 .496067 .995110 .455635
2 1 .993737 .638312 .390625
3 1 .831744 .045071 .468401
4 1 .236265 .005726 .587602
5 1 .005413 .581323 .603218
6 1 .543665 .479075 .990366
7 1 .467263 .446608 .016048
ITEM: TIMESTEP
150
ITEM: NUMBER OF ATOMS
7
ITEM: BOX BOUNDS ss ss ss
-3.0422 3.2437
-2.6233 3.5207
-2.0188 1.8944
ITEM: ATOMS id type xs ys zs
1 1 .492798 .995329 .458681
2 1 .992841 .641001 .386401
3 1 .833565 .048527 .473401
4 1 .236865 .009885 .591788
5 1 .003481 .586764 .606114
6 1 .543425 .480155 .990124
7 1 .464387 .451082 .015634
ITEM: TIMESTEP
200
ITEM: NUMBER OF ATOMS
7
ITEM: BOX BOUNDS ss ss ss
-3.0504 3.2417
-2.6329 3.5266
-2.0188 1.9004
ITEM: ATOMS id type xs ys zs
1 1 .497003 .993114 .456682
2 1 .989530 .640544 .385150
3 1 .834800 .049212 .475572
4 1 .237478 .012531 .592110
5 1 .001252 .587226 .601904
6 1 .544060 .477606 .984153
7 1 .465827 .450452 .016964
ITEM: TIMESTEP
250
ITEM: NUMBER OF ATOMS
7
ITEM: BOX BOUNDS ss ss ss
-3.0399 3.2501
-2.6197 3.5218
-2.0094 1.9028
ITEM: ATOMS id type xs ys zs
1 1 .490109 .996533 .455137
2 1 .991359 .638483 .387634
3 1 .830519 .046823 .465753
4 1 .229038 .010498 .593969
5 1 .006906 .588651 .602876
6 1 .542372 .480431 .987410
7 1 .464338 .448843 .016358
ITEM: TIMESTEP
300
ITEM: NUMBER OF ATOMS
7
ITEM: BOX BOUNDS ss ss ss
-3.0492 3.2510
-2.6254 3.5227
-2.0023 1.9100
ITEM: ATOMS id type xs ys zs
1 1 .492224 .997723 .452758
2 1 .991644 .638630 .382853
3 1 .831482 .046339 .463822
4 1 .229507 .011902 .591131
5 1 .008375 .588252 .602823
6 1 .543413 .482403 .986576
7 1 .465189 .449376 .012649
ITEM: TIMESTEP
350
ITEM: NUMBER OF ATOMS
7
ITEM: BOX BOUNDS ss ss ss
-3.0467 3.2422
-2.6325 3.5182
-2.0011 1.9110
ITEM: ATOMS id type xs ys zs
1 1 .487206 .989767 .456883
2 1 .994311 .640212 .390508
3 1 .830474 .049293 .459235
4 1 .235080 .011540 .592778
5 1 .009723 .592867 .595831
6 1 .548041 .479516 .990801
7 1 .467685 .447736 .010235
ITEM: TIMESTEP
400
ITEM: NUMBER OF ATOMS
7
ITEM: BOX BOUNDS ss ss ss
-3.0412 3.2448
-2.6139 3.5302
-2.0089 1.9078
ITEM: ATOMS id type xs ys zs
1 1 .486711 .989925 .460450
2 1 .994896 .636811 .397365
3 1 .832029 .048545 .458864
4 1 .235132 .010020 .593697
5 1 .006386 .589401 .600215
6 1 .548363 .478085 .990266
7 1 .467462 .445729 .013912
ITEM: TIMESTEP
1
ITEM: NUMBER OF ATOMS
7
ITEM: BOX BOUNDS ss ss ss
-3.0321 3.2447
-2.6129 3.5099
-2.0069 1.9042
ITEM: ATOMS id type xs ys zs
1 1 .493393 .995117 .452506
2 1 .991884 .640964 .389092
3 1 .832297 .045891 .467830
4 1 .233837 .006367 .585677
5 1 .005713 .587235 .598737
6 1 .543094 .478555 .987765
7 1 .465082 .446673 .011217
ITEM: TIMESTEP
50
ITEM: NUMBER OF ATOMS
7
ITEM: BOX BOUNDS ss ss ss
-3.0324 3.2447
-2.6129 3.5128
-2.0069 1.9042
ITEM: ATOMS id type xs ys zs
1 1 .497413 .995338 .448730
2 1 .993384 .639509 .389357
3 1 .831214 .044585 .463912
4 1 .233307 .004272 .587266
5 1 .004820 .585325 .598959
6 1 .540828 .479937 .989981
7 1 .463938 .445593 .016140
ITEM: TIMESTEP
100
ITEM: NUMBER OF ATOMS
7
ITEM: BOX BOUNDS ss ss ss
-3.0411 3.2447
-2.6176 3.5201
-2.0069 1.9042
ITEM: ATOMS id type xs ys zs
1 1 .498524 .996286 .450922
2 1 .993258 .639996 .391985
3 1 .832948 .046372 .467594
4 1 .235965 .004786 .583791
5 1 .004673 .584411 .599023
6 1 .541026 .481486 .986397
7 1 .466469 .447245 .014232
ITEM: TIMESTEP
150
ITEM: NUMBER OF ATOMS
7
ITEM: BOX BOUNDS ss ss ss
-3.0429 3.2447
-2.6256 3.5289
-2.0069 1.9042
ITEM: ATOMS id type xs ys zs
1 1 .500046 .997057 .451654
2 1 .994338 .637256 .393388
3 1 .831736 .050004 .468345
4 1 .238319 .004267 .583487
5 1 .005397 .581115 .601149
6 1 .540150 .483430 .988154
7 1 .464938 .448787 .014519
ITEM: TIMESTEP
200
ITEM: NUMBER OF ATOMS
7
ITEM: BOX BOUNDS ss ss ss
-3.0487 3.2464
-2.6242 3.5366
-2.0069 1.9118
ITEM: ATOMS id type xs ys zs
1 1 .500403 .993405 .450098
2 1 .992516 .639568 .381418
3 1 .829479 .044086 .468220
4 1 .236683 .006660 .582125
5 1 .007489 .586380 .593416
6 1 .547019 .478919 .984818
7 1 .465035 .446777 .009676
ITEM: TIMESTEP
250
ITEM: NUMBER OF ATOMS
7
ITEM: BOX BOUNDS ss ss ss
-3.0486 3.2474
-2.6348 3.5276
-2.0108 1.9170
ITEM: ATOMS id type xs ys zs
1 1 .497695 .989583 .448811
2 1 .990924 .638230 .383586
3 1 .834922 .048439 .469878
4 1 .237163 .008666 .583122
5 1 .004903 .587031 .595025
6 1 .542442 .482447 .982975
7 1 .464578 .445307 .011895
ITEM: TIMESTEP
300
ITEM: NUMBER OF ATOMS
7
ITEM: BOX BOUNDS ss ss ss
-3.0546 3.2575
-2.6294 3.5297
-2.0214 1.9094
ITEM: ATOMS id type xs ys zs
1 1 .498016 .993297 .461221
2 1 .992854 .639362 .395083
3 1 .832011 .047107 .470620
4 1 .236053 .012263 .595134
5 1 .008352 .589635 .600946
6 1 .541362 .481335 .984506
7 1 .464037 .450021 .014847
ITEM: TIMESTEP
350
ITEM: NUMBER OF ATOMS
7
ITEM: BOX BOUNDS ss ss ss
-3.0525 3.2539
-2.6262 3.5247
-2.0238 1.9162
ITEM: ATOMS id type xs ys zs
1 1 .493931 .989501 .450419
2 1 .994679 .639784 .388165
3 1 .831151 .048428 .468725
4 1 .237321 .009825 .584223
5 1 .008336 .592891 .599529
6 1 .542781 .481283 .986006
7 1 .465183 .448297 .015035
ITEM: TIMESTEP
400
ITEM: NUMBER OF ATOMS
7
ITEM: BOX BOUNDS ss ss ss
-3.0519 3.2545
-2.6201 3.5268
-2.0123 1.9167
ITEM: ATOMS id type xs ys zs
1 1 .494752 .988481 .445599
2 1 .994813 .638262 .385471
3 1 .831429 .045950 .467789
4 1 .237290 .009156 .582275
5 1 .008308 .592118 .596835
6 1 .542947 .482309 .988323
7 1 .464384 .450707 .013370
ITEM: TIMESTEP
1
ITEM: NUMBER OF ATOMS
7
ITEM: BOX BOUNDS ss ss ss
-3.0440 3.2526
-2.6129 3.5243
-2.0054 1.9073
ITEM: ATOMS id type xs ys zs
1 1 .493745 .992924 .451659
2 1 .990591 .639369 .388301
3 1 .831966 .045504 .467238
4 1 .235144 .006272 .585737
5 1 .007764 .586114 .597992
6 1 .543529 .477676 .987213
7 1 .465507 .445783 .010421
ITEM: TIMESTEP
50
ITEM: NUMBER OF ATOMS
7
ITEM: BOX BOUNDS ss ss ss
-3.0440 3.2526
-2.6129 3.5243
-2.0054 1.9073
ITEM: ATOMS id type xs ys zs
1 1 .494244 .993585 .451721
2 1 .989641 .639137 .388377
3 1 .831373 .046526 .466281
4 1 .234604 .006786 .586772
5 1 .008990 .584472 .599199
6 1 .542329 .476971 .985900
7 1 .467142 .446114 .011203
ITEM: TIMESTEP
100
ITEM: NUMBER OF ATOMS
7
ITEM: BOX BOUNDS ss ss ss
-3.0440 3.2526
-2.6180 3.5250
-2.0054 1.9073
ITEM: ATOMS id type xs ys zs
1 1 .494538 .991826 .451720
2 1 .991142 .641283 .387694
3 1 .832207 .047515 .468949
4 1 .236041 .006211 .583691
5 1 .006427 .582951 .598123
6 1 .539948 .480008 .985091
7 1 .465778 .443324 .012435
ITEM: TIMESTEP
150
ITEM: NUMBER OF ATOMS
7
ITEM: BOX BOUNDS ss ss ss
-3.0481 3.2526
-2.6232 3.5291
-2.0144 1.9073
ITEM: ATOMS id type xs ys zs
1 1 .495915 .994123 .456570
2 1 .992793 .636764 .390803
3 1 .831877 .049798 .468732
4 1 .237429 .005890 .583265
5 1 .007064 .581622 .595625
6 1 .541155 .478820 .986778
7 1 .464818 .448974 .015996
ITEM: TIMESTEP
200
ITEM: NUMBER OF ATOMS
7
ITEM: BOX BOUNDS ss ss ss
-3.0530 3.2526
-2.6315 3.5326
-2.0055 1.9073
ITEM: ATOMS id type xs ys zs
1 1 .496625 .991446 .450111
2 1 .991482 .637175 .385081
3 1 .830392 .048520 .463400
4 1 .239443 .010163 .582315
5 1 .009616 .584920 .595150
6 1 .546552 .480353 .986347
7 1 .467633 .448595 .009520
ITEM: TIMESTEP
250
ITEM: NUMBER OF ATOMS
7
ITEM: BOX BOUNDS ss ss ss
-3.0532 3.2584
-2.6250 3.5258
-2.0091 1.9092
ITEM: ATOMS id type xs ys zs
1 1 .496273 .993294 .448532
2 1 .991560 .636297 .386787
3 1 .827047 .046638 .462622
4 1 .238810 .009964 .578146
5 1 .008376 .583963 .596270
6 1 .547883 .480961 .987704
7 1 .468693 .449226 .009042
ITEM: TIMESTEP
300
ITEM: NUMBER OF ATOMS
7
ITEM: BOX BOUNDS ss ss ss
-3.0562 3.2526
-2.6281 3.5268
-2.0054 1.9073
ITEM: ATOMS id type xs ys zs
1 1 .490266 .990665 .453275
2 1 .991399 .641781 .384539
3 1 .828114 .050663 .471840
4 1 .237559 .013322 .591893
5 1 .009859 .587456 .601322
6 1 .547017 .483521 .990212
7 1 .467405 .446505 .011017
ITEM: TIMESTEP
350
ITEM: NUMBER OF ATOMS
7
ITEM: BOX BOUNDS ss ss ss
-3.0397 3.2500
-2.6205 3.5204
-2.0094 1.9039
ITEM: ATOMS id type xs ys zs
1 1 .488232 .991323 .455882
2 1 .992259 .642247 .384540
3 1 .826960 .051410 .474688
4 1 .235213 .011013 .595161
5 1 .005283 .588581 .604680
6 1 .545237 .485535 .991111
7 1 .466351 .446272 .012343
ITEM: TIMESTEP
400
ITEM: NUMBER OF ATOMS
7
ITEM: BOX BOUNDS ss ss ss
-3.0404 3.2512
-2.6145 3.5243
-2.0211 1.9120
ITEM: ATOMS id type xs ys zs
1 1 .491619 .986042 .457552
2 1 .989912 .640531 .389498
3 1 .831209 .048330 .471897
4 1 .232069 .008712 .590007
5 1 .012415 .587658 .596440
6 1 .548408 .476202 .998133
7 1 .466778 .445926 .010460
ITEM: TIMESTEP
1
ITEM: NUMBER OF ATOMS
7
ITEM: BOX BOUNDS ss ss ss
-3.0314 3.2418
-2.6129 3.5185
-2.0042 1.9118
ITEM: ATOMS id type xs ys zs
1 1 .493869 .993636 .450221
2 1 .992090 .640373 .387716
3 1 .832845 .045723 .466838
4 1 .234001 .006218 .584496
5 1 .006015 .586392 .597134
6 1 .543219 .477999 .986034
7 1 .465367 .446359 .010615
ITEM: TIMESTEP
50
ITEM: NUMBER OF ATOMS
7
ITEM: BOX BOUNDS ss ss ss
-3.0314 3.2418
-2.6129 3.5152
-2.0042 1.9118
ITEM: ATOMS id type xs ys zs
1 1 .495629 .994103 .451722
2 1 .990947 .640994 .392865
3 1 .832288 .044817 .468088
4 1 .234593 .005311 .584412
5 1 .004732 .584666 .600056
6 1 .540900 .479661 .987741
7 1 .467155 .446336 .013026
ITEM: TIMESTEP
100
ITEM: NUMBER OF ATOMS
7
ITEM: BOX BOUNDS ss ss ss
-3.0446 3.2418
-2.6207 3.5225
-2.0042 1.9118
ITEM: ATOMS id type xs ys zs
1 1 .494922 .993276 .450841
2 1 .992215 .642098 .389398
3 1 .831979 .044326 .467042
4 1 .238284 .003471 .587413
5 1 .005769 .584247 .600282
6 1 .544545 .479001 .984282
7 1 .465490 .447226 .010417
ITEM: TIMESTEP
150
ITEM: NUMBER OF ATOMS
7
ITEM: BOX BOUNDS ss ss ss
-3.0518 3.2418
-2.6325 3.5379
-2.0042 1.9118
ITEM: ATOMS id type xs ys zs
1 1 .495419 .990262 .449015
2 1 .992317 .641265 .390430
3 1 .832320 .045689 .467419
4 1 .239492 .002712 .587041
5 1 .004602 .583646 .601490
6 1 .546811 .477932 .983729
7 1 .465333 .447388 .008198
ITEM: TIMESTEP
200
ITEM: NUMBER OF ATOMS
7
ITEM: BOX BOUNDS ss ss ss
-3.0607 3.2459
-2.6358 3.5335
-2.0104 1.9118
ITEM: ATOMS id type xs ys zs
1 1 .501361 .995999 .455047
2 1 .988638 .643031 .388325
3 1 .831427 .046393 .470135
4 1 .234349 .007236 .588965
5 1 .008839 .583101 .599220
6 1 .545586 .478919 .983834
7 1 .467640 .445147 .014146
ITEM: TIMESTEP
250
ITEM: NUMBER OF ATOMS
7
ITEM: BOX BOUNDS ss ss ss
-3.0592 3.2565
-2.6396 3.5349
-2.0121 1.9118
ITEM: ATOMS id type xs ys zs
1 1 .498046 .989458 .447709
2 1 .993523 .638670 .391656
3 1 .827481 .049274 .470164
4 1 .236237 .010630 .590323
5 1 .006005 .581316 .603483
6 1 .544794 .478408 .987496
7 1 .466095 .451369 .016239
ITEM: TIMESTEP
300
ITEM: NUMBER OF ATOMS
7
ITEM: BOX BOUNDS ss ss ss
-3.0623 3.2495
-2.6352 3.5283
-2.0081 1.9118
ITEM: ATOMS id type xs ys zs
1 1 .494500 .991773 .446133
2 1 .992525 .642009 .381654
3 1 .834071 .048443 .472571
4 1 .239780 .011879 .581121
5 1 .008735 .590043 .602109
6 1 .546366 .478120 .979355
7 1 .464343 .451565 .009537
ITEM: TIMESTEP
350
ITEM: NUMBER OF ATOMS
7
ITEM: BOX BOUNDS ss ss ss
-3.0600 3.2585
-2.6338 3.5251
-2.0195 1.9209
ITEM: ATOMS id type xs ys zs
1 1 .491570 .994431 .448641
2 1 .987292 .643002 .390660
3 1 .827999 .049614 .471601
4 1 .237066 .011224 .578357
5 1 .009596 .585451 .601430
6 1 .541430 .482754 .989448
7 1 .468453 .452533 .011514
ITEM: TIMESTEP
400
ITEM: NUMBER OF ATOMS
7
ITEM: BOX BOUNDS ss ss ss
-3.0577 3.2617
-2.6441 3.5259
-2.0191 1.9238
ITEM: ATOMS id type xs ys zs
1 1 .497239 .992891 .448730
2 1 .991826 .636987 .380323
3 1 .828350 .050714 .464665
4 1 .234932 .011922 .576009
5 1 .010531 .586680 .597959
6 1 .541951 .483854 .981491
7 1 .466794 .450917 .014774
ITEM: TIMESTEP
450
ITEM: NUMBER OF ATOMS
7
ITEM: BOX BOUNDS ss ss ss
-3.0677 3.2657
-2.6303 3.5344
-2.0191 1.9261
ITEM: ATOMS id type xs ys zs
1 1 .488803 .987782 .447604
2 1 .991722 .638068 .391424
3 1 .823881 .048947 .469018
4 1 .236205 .009899 .579519
5 1 .013454 .583843 .604940
6 1 .548561 .477392 .985026
7 1 .464814 .445862 .013118
ITEM: TIMESTEP
500
ITEM: NUMBER OF ATOMS
7
ITEM: BOX BOUNDS ss ss ss
-3.0601 3.2655
-2.6278 3.5352
-2.0291 1.9208
ITEM: ATOMS id type xs ys zs
1 1 .491419 .988663 .442806
2 1 .986316 .641752 .390462
3 1 .827144 .048392 .475080
4 1 .233457 .006709 .588197
5 1 .009373 .586094 .600332
6 1 .542917 .479516 .977625
7 1 .464039 .441459 .013286
ITEM: TIMESTEP
550
ITEM: NUMBER OF ATOMS
7
ITEM: BOX BOUNDS ss ss ss
-3.0680 3.2583
-2.6303 3.5282
-2.0212 1.9062
ITEM: ATOMS id type xs ys zs
1 1 .487902 .989441 .449771
2 1 .991119 .646350 .387028
3 1 .827111 .052481 .466932
4 1 .232537 .012994 .594985
5 1 .009740 .586078 .599358
6 1 .545687 .479451 .991388
7 1 .465180 .448299 .014441
ITEM: TIMESTEP
600
ITEM: NUMBER OF ATOMS
7
ITEM: BOX BOUNDS ss ss ss
-3.0557 3.2651
-2.6358 3.5221
-2.0214 1.9053
ITEM: ATOMS id type xs ys zs
1 1 .487549 .990962 .449457
2 1 .992777 .647110 .387621
3 1 .826804 .054604 .469578
4 1 .229026 .012849 .595051
5 1 .007174 .586909 .599804
6 1 .543659 .480287 .992309
7 1 .463144 .451106 .012915
ITEM: TIMESTEP
1
ITEM: NUMBER OF ATOMS
7
ITEM: BOX BOUNDS ss ss ss
-3.0601 3.2636
-2.6296 3.5108
-2.0254 1.9053
ITEM: ATOMS id type xs ys zs
1 1 .494066 .995116 .454170
2 1 .988796 .641980 .391821
3 1 .830923 .048570 .470464
4 1 .236595 .008711 .587383
5 1 .010085 .588424 .600223
6 1 .543763 .479932 .987417
7 1 .466284 .448233 .015777
ITEM: TIMESTEP
50
ITEM: NUMBER OF ATOMS
7
ITEM: BOX BOUNDS ss ss ss
-3.0601 3.2636
-2.6296 3.5114
-2.0254 1.9053
ITEM: ATOMS id type xs ys zs
1 1 .494884 .995967 .455955
2 1 .989998 .641882 .391482
3 1 .832512 .049488 .470951
4 1 .236074 .008919 .584993
5 1 .010210 .587444 .601319
6 1 .544769 .479334 .983618
7 1 .465000 .447648 .015521
ITEM: TIMESTEP
100
ITEM: NUMBER OF ATOMS
7
ITEM: BOX BOUNDS ss ss ss
-3.0601 3.2636
-2.6222 3.5222
-2.0254 1.9053
ITEM: ATOMS id type xs ys zs
1 1 .497687 .996065 .453423
2 1 .988910 .639656 .390727
3 1 .832050 .048492 .469409
4 1 .236371 .008704 .583177
5 1 .009226 .584749 .605670
6 1 .545571 .476454 .982343
7 1 .464601 .444612 .015773
ITEM: TIMESTEP
150
ITEM: NUMBER OF ATOMS
7
ITEM: BOX BOUNDS ss ss ss
-3.0601 3.2636
-2.6288 3.5307
-2.0173 1.9053
ITEM: ATOMS id type xs ys zs
1 1 .493659 .993555 .453513
2 1 .992623 .637923 .382637
3 1 .831723 .047165 .472025
4 1 .233321 .007894 .586276
5 1 .010522 .585952 .603901
6 1 .543269 .480405 .988801
7 1 .466685 .442905 .013892
ITEM: TIMESTEP
200
ITEM: NUMBER OF ATOMS
7
ITEM: BOX BOUNDS ss ss ss
-3.0613 3.2636
-2.6252 3.5315
-2.0173 1.9053
ITEM: ATOMS id type xs ys zs
1 1 .495827 .991969 .451465
2 1 .995044 .635822 .380979
3 1 .832430 .046185 .474477
4 1 .233136 .005663 .583469
5 1 .010051 .586630 .602936
6 1 .544132 .480834 .989676
7 1 .465898 .441281 .021204
ITEM: TIMESTEP
250
ITEM: NUMBER OF ATOMS
7
ITEM: BOX BOUNDS ss ss ss
-3.0601 3.2636
-2.6342 3.5383
-2.0115 1.9053
ITEM: ATOMS id type xs ys zs
1 1 .496595 .991194 .457105
2 1 .989524 .638835 .395728
3 1 .832606 .044067 .466075
4 1 .236078 .007527 .583094
5 1 .013083 .584764 .596881
6 1 .544520 .475244 .983307
7 1 .467778 .444703 .009529
ITEM: TIMESTEP
300
ITEM: NUMBER OF ATOMS
7
ITEM: BOX BOUNDS ss ss ss
-3.0601 3.2636
-2.6297 3.5259
-2.0163 1.9053
ITEM: ATOMS id type xs ys zs
1 1 .499153 .992998 .459483
2 1 .990113 .641559 .395778
3 1 .832131 .043411 .468235
4 1 .236576 .006582 .584462
5 1 .012564 .585251 .597145
6 1 .546099 .476889 .977929
7 1 .465992 .443963 .010901
ITEM: TIMESTEP
350
ITEM: NUMBER OF ATOMS
7
ITEM: BOX BOUNDS ss ss ss
-3.0663 3.2636
-2.6274 3.5287
-2.0258 1.9053
ITEM: ATOMS id type xs ys zs
1 1 .492657 .992452 .439292
2 1 .986734 .638128 .394547
3 1 .831336 .049598 .471663
4 1 .232723 .006327 .581987
5 1 .010725 .584980 .591751
6 1 .544446 .476651 .983852
7 1 .466355 .444889 .008617
ITEM: TIMESTEP
400
ITEM: NUMBER OF ATOMS
7
ITEM: BOX BOUNDS ss ss ss
-3.0601 3.2636
-2.6222 3.5256
-2.0121 1.9024
ITEM: ATOMS id type xs ys zs
1 1 .492351 .989394 .452435
2 1 .989283 .635878 .395662
3 1 .828038 .046173 .464690
4 1 .236349 .004486 .590643
5 1 .007455 .587975 .602758
6 1 .541267 .477168 .989683
7 1 .459742 .446963 .016108
ITEM: TIMESTEP
1
ITEM: NUMBER OF ATOMS
7
ITEM: BOX BOUNDS ss ss ss
-3.0610 3.2636
-2.6211 3.5171
-2.0196 1.9024
ITEM: ATOMS id type xs ys zs
1 1 .494523 .994114 .453632
2 1 .988905 .641027 .391091
3 1 .830704 .046963 .469794
4 1 .236769 .007270 .586995
5 1 .010367 .587002 .599804
6 1 .543964 .478875 .988504
7 1 .466455 .447212 .014034
ITEM: TIMESTEP
50
ITEM: NUMBER OF ATOMS
7
ITEM: BOX BOUNDS ss ss ss
-3.0610 3.2636
-2.6211 3.5184
-2.0196 1.9024
ITEM: ATOMS id type xs ys zs
1 1 .495262 .994760 .454224
2 1 .990344 .640370 .391741
3 1 .830134 .046395 .471059
4 1 .236346 .008030 .586539
5 1 .009411 .588252 .602564
6 1 .544562 .480614 .985469
7 1 .468479 .447186 .012144
ITEM: TIMESTEP
100
ITEM: NUMBER OF ATOMS
7
ITEM: BOX BOUNDS ss ss ss
-3.0610 3.2636
-2.6211 3.5286
-2.0196 1.9024
ITEM: ATOMS id type xs ys zs
1 1 .496431 .992778 .455650
2 1 .991012 .638563 .386984
3 1 .830303 .045929 .471176
4 1 .236219 .008331 .588219
5 1 .008424 .584890 .608184
6 1 .545812 .477512 .985849
7 1 .467922 .446357 .010112
ITEM: TIMESTEP
150
ITEM: NUMBER OF ATOMS
7
ITEM: BOX BOUNDS ss ss ss
-3.0601 3.2636
-2.6268 3.5306
-2.0196 1.9024
ITEM: ATOMS id type xs ys zs
1 1 .493567 .994419 .448503
2 1 .988209 .638417 .388944
3 1 .828879 .047981 .470517
4 1 .235982 .007326 .585370
5 1 .005535 .587756 .597728
6 1 .542660 .481694 .985421
7 1 .464245 .447070 .017048
ITEM: TIMESTEP
200
ITEM: NUMBER OF ATOMS
7
ITEM: BOX BOUNDS ss ss ss
-3.0601 3.2636
-2.6358 3.5335
-2.0196 1.9067
ITEM: ATOMS id type xs ys zs
1 1 .495212 .994038 .445168
2 1 .988019 .638162 .391873
3 1 .827879 .047725 .470052
4 1 .236090 .008479 .581242
5 1 .004727 .586909 .595848
6 1 .542944 .480849 .982951
7 1 .462751 .446228 .019968
ITEM: TIMESTEP
250
ITEM: NUMBER OF ATOMS
7
ITEM: BOX BOUNDS ss ss ss
-3.0608 3.2636
-2.6328 3.5351
-2.0230 1.9024
ITEM: ATOMS id type xs ys zs
1 1 .498800 .993214 .447364
2 1 .988946 .638513 .395998
3 1 .831790 .049138 .470995
4 1 .236984 .008522 .578393
5 1 .005740 .586648 .601736
6 1 .543772 .478419 .985291
7 1 .463917 .447204 .014856
ITEM: TIMESTEP
300
ITEM: NUMBER OF ATOMS
7
ITEM: BOX BOUNDS ss ss ss
-3.0611 3.2636
-2.6366 3.5413
-2.0115 1.9051
ITEM: ATOMS id type xs ys zs
1 1 .496309 .988438 .444475
2 1 .992684 .639194 .392317
3 1 .828323 .050134 .470839
4 1 .237135 .010555 .584707
5 1 .006758 .583551 .604362
6 1 .541057 .483869 .988494
7 1 .466395 .449718 .013739
ITEM: TIMESTEP
350
ITEM: NUMBER OF ATOMS
7
ITEM: BOX BOUNDS ss ss ss
-3.0615 3.2660
-2.6335 3.5371
-2.0115 1.9065
ITEM: ATOMS id type xs ys zs
1 1 .496847 .991099 .448867
2 1 .990813 .638409 .384549
3 1 .829703 .051990 .463485
4 1 .239289 .009932 .584073
5 1 .008568 .585089 .600749
6 1 .545052 .483729 .990590
7 1 .468876 .448442 .013157
ITEM: TIMESTEP
400
ITEM: NUMBER OF ATOMS
7
ITEM: BOX BOUNDS ss ss ss
-3.0740 3.2675
-2.6289 3.5326
-2.0306 1.9120
ITEM: ATOMS id type xs ys zs
1 1 .499206 .992960 .450023
2 1 .989490 .637749 .385426
3 1 .830134 .050690 .464783
4 1 .241943 .007606 .584804
5 1 .009478 .582377 .603640
6 1 .547144 .484774 .985151
7 1 .470517 .450695 .015704
ITEM: TIMESTEP
450
ITEM: NUMBER OF ATOMS
7
ITEM: BOX BOUNDS ss ss ss
-3.0704 3.2730
-2.6365 3.5386
-2.0276 1.9109
ITEM: ATOMS id type xs ys zs
1 1 .493105 .987411 .457465
2 1 .990035 .639762 .405606
3 1 .827814 .051325 .452675
4 1 .240793 .007426 .585471
5 1 .012209 .586559 .595778
6 1 .537835 .472806 .981891
7 1 .464861 .448943 .013627
ITEM: TIMESTEP
500
ITEM: NUMBER OF ATOMS
7
ITEM: BOX BOUNDS ss ss ss
-3.0664 3.2644
-2.6351 3.5410
-2.0189 1.9046
ITEM: ATOMS id type xs ys zs
1 1 .495100 .993979 .459793
2 1 .990103 .638476 .404469
3 1 .830680 .050557 .448014
4 1 .240316 .010714 .585574
5 1 .008700 .584124 .596929
6 1 .541867 .475419 .977511
7 1 .466135 .450353 .011885
ITEM: TIMESTEP
550
ITEM: NUMBER OF ATOMS
7
ITEM: BOX BOUNDS ss ss ss
-3.0709 3.2678
-2.6414 3.5555
-2.0259 1.9038
ITEM: ATOMS id type xs ys zs
1 1 .493038 .987913 .461056
2 1 .989171 .638407 .402643
3 1 .828838 .049919 .455934
4 1 .239972 .007793 .586946
5 1 .010183 .586090 .593636
6 1 .538548 .474919 .986301
7 1 .469248 .447187 .019646
ITEM: TIMESTEP
600
ITEM: NUMBER OF ATOMS
7
ITEM: BOX BOUNDS ss ss ss
-3.0764 3.2650
-2.6458 3.5386
-2.0135 1.8964
ITEM: ATOMS id type xs ys zs
1 1 .496921 .989898 .459629