ITEM: TIMESTEP
1
ITEM: NUMBER OF ATOMS
7
ITEM: BOX BOUNDS ss ss ss
-2.9993 3.1968
-2.5787 3.4849
-1.9681 1.8604
ITEM: ATOMS id type xs ys zs
1 1 .494720 .999321 .451629
2 1 .999398 .641816 .387259
3 1 .838013 .040662 .467962
4 1 .231749 .000575 .588315
5 1 .000642 .587392 .601147
6 1 .545055 .477660 .998932
7 1 .465932 .445552 .001112
ITEM: TIMESTEP
50
ITEM: NUMBER OF ATOMS
7
ITEM: BOX BOUNDS ss ss ss
-3.0305 3.2256
-2.6077 3.5115
-1.9905 1.8832
ITEM: ATOMS id type xs ys zs
1 1 .495315 .995184 .451910
2 1 .994895 .640628 .388556
3 1 .834908 .045073 .468307
4 1 .234588 .005113 .587114
5 1 .005382 .586545 .600073
6 1 .544670 .478219 .992935
7 1 .466319 .446401 .007041
ITEM: TIMESTEP
100
ITEM: NUMBER OF ATOMS
7
ITEM: BOX BOUNDS ss ss ss
-3.0379 3.2297
-2.6134 3.5214
-2.0005 1.8900
ITEM: ATOMS id type xs ys zs
1 1 .495523 .993460 .452623
2 1 .994539 .639839 .389470
3 1 .834524 .045970 .468849
4 1 .235341 .005982 .587082
5 1 .006419 .585985 .600123
6 1 .544803 .478070 .991182
7 1 .466674 .446214 .009678
ITEM: TIMESTEP
150
ITEM: NUMBER OF ATOMS
7
ITEM: BOX BOUNDS ss ss ss
-3.0441 3.2413
-2.6146 3.5265
-2.0046 1.9013
ITEM: ATOMS id type xs ys zs
1 1 .494552 .992123 .452277
2 1 .993099 .639390 .388891
3 1 .833126 .046203 .468003
4 1 .235462 .006487 .585523
5 1 .007300 .585897 .598693
6 1 .544275 .477865 .988401
7 1 .466581 .445859 .010663
ITEM: TIMESTEP
200
ITEM: NUMBER OF ATOMS
7
ITEM: BOX BOUNDS ss ss ss
-3.0399 3.2420
-2.6261 3.5193
-2.0079 1.9049
ITEM: ATOMS id type xs ys zs
1 1 .493443 .992759 .452868
2 1 .993177 .640894 .389112
3 1 .832984 .048078 .467886
4 1 .234787 .008831 .585014
5 1 .006788 .587946 .598220
6 1 .543964 .479363 .988061
7 1 .466573 .447328 .011563
ITEM: TIMESTEP
250
ITEM: NUMBER OF ATOMS
7
ITEM: BOX BOUNDS ss ss ss
-3.0431 3.2447
-2.6276 3.5165
-2.0043 1.9119
ITEM: ATOMS id type xs ys zs
1 1 .492795 .992891 .452446
2 1 .992728 .641398 .388410
3 1 .832732 .048381 .466315
4 1 .235004 .009393 .583695
5 1 .007773 .589150 .596549
6 1 .544065 .479491 .986993
7 1 .467021 .447730 .010871
ITEM: TIMESTEP
300
ITEM: NUMBER OF ATOMS
7
ITEM: BOX BOUNDS ss ss ss
-3.0506 3.2475
-2.6155 3.5216
-2.0108 1.9137
ITEM: ATOMS id type xs ys zs
1 1 .492360 .991709 .453732
2 1 .992378 .640462 .389795
3 1 .832710 .046515 .466661
4 1 .235606 .007584 .584417
5 1 .009564 .589004 .596499
6 1 .544561 .477680 .986841
7 1 .467789 .446060 .012571
ITEM: TIMESTEP
350
ITEM: NUMBER OF ATOMS
7
ITEM: BOX BOUNDS ss ss ss
-3.0388 3.2489
-2.6176 3.5166
-2.0113 1.9113
ITEM: ATOMS id type xs ys zs
1 1 .490665 .992082 .453957
2 1 .992237 .641278 .390074
3 1 .832387 .046868 .466761
4 1 .233966 .008022 .584739
5 1 .008251 .590193 .596485
6 1 .543875 .477963 .987393
7 1 .466974 .446274 .012299
ITEM: TIMESTEP
400
ITEM: NUMBER OF ATOMS
7
ITEM: BOX BOUNDS ss ss ss
-3.0422 3.2478
-2.6142 3.5103
-2.0301 1.9147
ITEM: ATOMS id type xs ys zs
1 1 .490351 .992595 .455961
2 1 .992336 .641783 .392175
3 1 .832781 .046076 .468880
4 1 .234415 .007766 .585819
5 1 .009312 .590886 .597851
6 1 .544749 .478013 .986515
7 1 .467629 .446051 .016430
ITEM: TIMESTEP
1
ITEM: NUMBER OF ATOMS
7
ITEM: BOX BOUNDS ss ss ss
-3.0270 3.2325
-2.6130 3.4962
-2.0049 1.9003
ITEM: ATOMS id type xs ys zs
1 1 .494131 .997490 .452182
2 1 .993695 .642653 .389079
3 1 .833939 .045980 .468196
4 1 .233828 .006194 .586184
5 1 .005061 .588635 .598771
6 1 .543955 .479723 .988732
7 1 .465633 .447854 .010515
ITEM: TIMESTEP
50
ITEM: NUMBER OF ATOMS
7
ITEM: BOX BOUNDS ss ss ss
-3.0270 3.2325
-2.6130 3.5108
-2.0049 1.9003
ITEM: ATOMS id type xs ys zs
1 1 .494562 .995358 .451919
2 1 .993793 .641018 .389161
3 1 .833909 .045918 .468259
4 1 .233906 .005971 .586081
5 1 .004781 .586894 .598994
6 1 .543779 .478751 .988530
7 1 .465470 .446971 .010735
ITEM: TIMESTEP
100
ITEM: NUMBER OF ATOMS
7
ITEM: BOX BOUNDS ss ss ss
-3.0327 3.2325
-2.6153 3.5282
-2.0021 1.9003
ITEM: ATOMS id type xs ys zs
1 1 .494983 .992455 .451520
2 1 .994101 .639258 .388646
3 1 .834039 .046243 .467892
4 1 .234651 .006249 .585714
5 1 .005491 .585319 .598830
6 1 .544158 .477778 .988482
7 1 .465932 .445928 .010168
ITEM: TIMESTEP
150
ITEM: NUMBER OF ATOMS
7
ITEM: BOX BOUNDS ss ss ss
-3.0469 3.2419
-2.6229 3.5250
-2.0043 1.9003
ITEM: ATOMS id type xs ys zs
1 1 .494883 .992619 .452029
2 1 .992920 .640102 .388750
3 1 .833173 .047637 .468111
4 1 .235969 .007576 .585781
5 1 .007790 .586297 .598934
6 1 .544530 .478812 .988579
7 1 .466562 .446799 .010687
ITEM: TIMESTEP
200
ITEM: NUMBER OF ATOMS
7
ITEM: BOX BOUNDS ss ss ss
-3.0447 3.2471
-2.6174 3.5247
-2.0098 1.9002
ITEM: ATOMS id type xs ys zs
1 1 .493440 .992091 .452899
2 1 .992218 .640059 .389230
3 1 .832386 .046974 .468604
4 1 .235402 .007031 .586091
5 1 .007911 .586412 .599294
6 1 .544372 .478289 .988885
7 1 .466192 .446025 .011507
ITEM: TIMESTEP
250
ITEM: NUMBER OF ATOMS
7
ITEM: BOX BOUNDS ss ss ss
-3.0422 3.2417
-2.6225 3.5206
-2.0099 1.9103
ITEM: ATOMS id type xs ys zs
1 1 .492388 .991781 .451680
2 1 .993013 .640976 .388123
3 1 .832903 .047703 .466681
4 1 .235203 .008288 .584336
5 1 .008357 .587943 .598044
6 1 .545425 .478789 .987032
7 1 .466418 .446138 .011045
ITEM: TIMESTEP
300
ITEM: NUMBER OF ATOMS
7
ITEM: BOX BOUNDS ss ss ss
-3.0462 3.2442
-2.6176 3.5162
-2.0116 1.9076
ITEM: ATOMS id type xs ys zs
1 1 .491706 .991723 .452523
2 1 .992605 .640995 .388479
3 1 .832781 .046455 .467448
4 1 .235222 .008092 .585106
5 1 .009458 .588786 .598827
6 1 .546050 .478365 .988152
7 1 .467080 .445619 .011333
ITEM: TIMESTEP
350
ITEM: NUMBER OF ATOMS
7
ITEM: BOX BOUNDS ss ss ss
-3.0352 3.2472
-2.6257 3.5098
-2.0150 1.9125
ITEM: ATOMS id type xs ys zs
1 1 .490199 .992169 .452792
2 1 .992191 .642003 .388199
3 1 .832135 .047272 .467731
4 1 .233349 .010042 .584873
5 1 .008066 .590655 .598112
6 1 .545252 .479209 .987066
7 1 .466361 .446449 .011860
ITEM: TIMESTEP
400
ITEM: NUMBER OF ATOMS
7
ITEM: BOX BOUNDS ss ss ss
-3.0275 3.2434
-2.6195 3.5110
-2.0119 1.9188
ITEM: ATOMS id type xs ys zs
1 1 .489383 .991394 .451808
2 1 .992729 .641308 .387111
3 1 .832450 .046104 .466869
4 1 .232395 .009460 .583798
5 1 .007351 .590808 .596580
6 1 .545097 .478316 .985783
7 1 .466289 .445425 .010526
ITEM: TIMESTEP
1
ITEM: NUMBER OF ATOMS
7
ITEM: BOX BOUNDS ss ss ss
-3.0154 3.2406
-2.6060 3.4964
-2.0143 1.9064
ITEM: ATOMS id type xs ys zs
1 1 .492556 .997444 .452800
2 1 .992396 .642213 .389942
3 1 .832556 .044885 .468749
4 1 .232101 .005057 .586273
5 1 .003203 .588133 .598805
6 1 .542405 .479109 .987245
7 1 .464039 .447205 .012863
ITEM: TIMESTEP
50
ITEM: NUMBER OF ATOMS
7
ITEM: BOX BOUNDS ss ss ss
-3.0239 3.2406
-2.6060 3.5094
-2.0143 1.9064
ITEM: ATOMS id type xs ys zs
1 1 .493776 .995662 .452508
2 1 .992518 .640718 .390046
3 1 .832744 .044853 .468826
4 1 .233251 .004779 .586103
5 1 .004256 .586469 .599111
6 1 .542848 .478287 .987089
7 1 .464597 .446482 .013127
ITEM: TIMESTEP
100
ITEM: NUMBER OF ATOMS
7
ITEM: BOX BOUNDS ss ss ss
-3.0348 3.2339
-2.6241 3.5167
-2.0143 1.9064
ITEM: ATOMS id type xs ys zs
1 1 .495312 .994462 .452435
2 1 .993916 .640955 .390015
3 1 .833879 .047728 .468808
4 1 .234861 .007601 .585934
5 1 .005773 .586809 .599234
6 1 .544174 .479433 .987037
7 1 .465891 .447713 .013312
ITEM: TIMESTEP
150
ITEM: NUMBER OF ATOMS
7
ITEM: BOX BOUNDS ss ss ss
-3.0420 3.2398
-2.6248 3.5253
-2.0143 1.9064
ITEM: ATOMS id type xs ys zs
1 1 .495206 .992780 .452669
2 1 .993356 .640126 .389934
3 1 .833243 .047947 .468813
4 1 .235503 .007815 .585702
5 1 .006766 .586139 .599213
6 1 .544227 .478937 .987135
7 1 .466089 .447207 .013531
ITEM: TIMESTEP
200
ITEM: NUMBER OF ATOMS
7
ITEM: BOX BOUNDS ss ss ss
-3.0484 3.2469
-2.6258 3.5239
-2.0174 1.9064
ITEM: ATOMS id type xs ys zs
1 1 .494863 .992600 .453552
2 1 .992616 .640300 .390364
3 1 .832498 .048235 .469161
4 1 .235974 .008142 .585950
5 1 .007804 .586542 .599394
6 1 .544186 .479153 .987557
7 1 .466310 .447357 .014422
ITEM: TIMESTEP
250
ITEM: NUMBER OF ATOMS
7
ITEM: BOX BOUNDS ss ss ss
-3.0481 3.2563
-2.6232 3.5199
-2.0143 1.9064
ITEM: ATOMS id type xs ys zs
1 1 .493746 .992535 .453989
2 1 .991233 .640377 .389438
3 1 .831385 .047737 .468607
4 1 .235741 .008231 .585637
5 1 .008372 .587423 .598940
6 1 .543839 .478927 .987906
7 1 .465902 .447210 .012994
ITEM: TIMESTEP
300
ITEM: NUMBER OF ATOMS
7
ITEM: BOX BOUNDS ss ss ss
-3.0510 3.2492
-2.6206 3.5283
-2.0205 1.9077
ITEM: ATOMS id type xs ys zs
1 1 .494079 .990415 .455548
2 1 .992082 .638691 .389294
3 1 .832826 .046714 .469083
4 1 .236777 .008234 .585064
5 1 .009952 .587791 .599835
6 1 .545324 .477604 .987593
7 1 .466941 .446215 .013224
ITEM: TIMESTEP
350
ITEM: NUMBER OF ATOMS
7
ITEM: BOX BOUNDS ss ss ss
-3.0464 3.2540
-2.6137 3.5137
-2.0239 1.9133
ITEM: ATOMS id type xs ys zs
1 1 .493025 .992379 .456385
2 1 .991046 .639071 .387761
3 1 .832434 .044938 .468075
4 1 .236280 .007486 .583313
5 1 .010774 .590728 .600047
6 1 .545379 .477183 .986056
7 1 .466124 .446583 .012851
ITEM: TIMESTEP
400
ITEM: NUMBER OF ATOMS
7
ITEM: BOX BOUNDS ss ss ss
-3.0400 3.2531
-2.6154 3.5128
-2.0325 1.9015
ITEM: ATOMS id type xs ys zs
1 1 .492457 .992201 .459742
2 1 .990870 .638906 .389389
3 1 .832327 .044776 .469642
4 1 .235394 .008031 .585797
5 1 .010735 .592263 .602994
6 1 .545601 .476549 .989097
7 1 .465313 .446717 .014475
ITEM: TIMESTEP
1
ITEM: NUMBER OF ATOMS
7
ITEM: BOX BOUNDS ss ss ss
-3.0067 3.2301
-2.6095 3.5097
-2.0188 1.8931
ITEM: ATOMS id type xs ys zs
1 1 .492680 .995290 .454957
2 1 .994060 .641028 .391961
3 1 .833726 .045335 .470947
4 1 .231428 .005612 .588735
5 1 .001827 .587095 .601300
6 1 .542681 .478365 .990598
7 1 .464074 .446548 .014048
ITEM: TIMESTEP
50
ITEM: NUMBER OF ATOMS
7
ITEM: BOX BOUNDS ss ss ss
-3.0262 3.2301
-2.6095 3.5112
-2.0188 1.8931
ITEM: ATOMS id type xs ys zs
1 1 .494865 .995422 .454583
2 1 .994162 .640681 .392092
3 1 .834176 .045374 .471020
4 1 .233971 .005311 .588561
5 1 .004574 .586447 .601646
6 1 .543885 .478459 .990306
7 1 .465538 .446675 .014322
ITEM: TIMESTEP
100
ITEM: NUMBER OF ATOMS
7
ITEM: BOX BOUNDS ss ss ss
-3.0411 3.2363
-2.6116 3.5205
-2.0188 1.8972
ITEM: ATOMS id type xs ys zs
1 1 .495745 .993989 .453934
2 1 .993453 .639722 .391679
3 1 .833673 .045692 .470411
4 1 .235612 .005461 .587862
5 1 .006582 .585403 .601306
6 1 .544294 .478127 .989133
7 1 .466238 .446314 .014462
ITEM: TIMESTEP
150
ITEM: NUMBER OF ATOMS
7
ITEM: BOX BOUNDS ss ss ss
-3.0422 3.2437
-2.6233 3.5207
-2.0188 1.8944
ITEM: ATOMS id type xs ys zs
1 1 .494900 .993718 .454244
2 1 .992596 .640396 .391900
3 1 .832598 .047575 .470544
4 1 .235299 .007315 .588385
5 1 .006541 .586289 .601579
6 1 .543775 .479281 .989775
7 1 .465796 .447212 .014473
ITEM: TIMESTEP
200
ITEM: NUMBER OF ATOMS
7
ITEM: BOX BOUNDS ss ss ss
-3.0504 3.2417
-2.6329 3.5266
-2.0188 1.9004
ITEM: ATOMS id type xs ys zs
1 1 .494657 .992191 .454124
2 1 .992661 .640689 .391292
3 1 .832766 .048869 .469678
4 1 .235459 .009461 .588132
5 1 .008023 .587637 .599551
6 1 .544621 .479724 .989165
7 1 .466949 .447086 .015003
ITEM: TIMESTEP
250
ITEM: NUMBER OF ATOMS
7
ITEM: BOX BOUNDS ss ss ss
-3.0399 3.2501
-2.6197 3.5218
-2.0094 1.9028
ITEM: ATOMS id type xs ys zs
1 1 .491533 .992388 .453494
2 1 .990480 .640978 .390738
3 1 .831459 .046523 .468257
4 1 .232638 .008084 .587048
5 1 .006679 .588710 .596832
6 1 .542722 .478566 .990206
7 1 .466021 .445439 .013715
ITEM: TIMESTEP
300
ITEM: NUMBER OF ATOMS
7
ITEM: BOX BOUNDS ss ss ss
-3.0492 3.2510
-2.6254 3.5227
-2.0023 1.9100
ITEM: ATOMS id type xs ys zs
1 1 .491272 .991936 .451988
2 1 .990154 .641528 .390013
3 1 .831577 .047143 .466240
4 1 .233206 .009421 .585044
5 1 .008535 .589695 .594689
6 1 .543066 .478443 .988626
7 1 .467057 .445724 .011971
ITEM: TIMESTEP
350
ITEM: NUMBER OF ATOMS
7
ITEM: BOX BOUNDS ss ss ss
-3.0467 3.2422
-2.6325 3.5182
-2.0011 1.9110
ITEM: ATOMS id type xs ys zs
1 1 .491215 .992130 .452053
2 1 .991887 .642481 .389983
3 1 .832600 .048128 .465819
4 1 .233155 .010806 .584759
5 1 .008614 .591437 .594270
6 1 .544015 .478821 .987947
7 1 .467715 .446535 .011207
ITEM: TIMESTEP
400
ITEM: NUMBER OF ATOMS
7
ITEM: BOX BOUNDS ss ss ss
-3.0412 3.2448
-2.6139 3.5302
-2.0089 1.9078
ITEM: ATOMS id type xs ys zs
1 1 .489918 .989112 .453658
2 1 .992061 .639849 .391403
3 1 .832195 .045026 .466996
4 1 .232363 .007668 .585950
5 1 .008372 .590695 .596325
6 1 .543816 .475657 .988425
7 1 .466930 .443476 .012803
ITEM: TIMESTEP
1
ITEM: NUMBER OF ATOMS
7
ITEM: BOX BOUNDS ss ss ss
-3.0321 3.2447
-2.6129 3.5099
-2.0069 1.9042
ITEM: ATOMS id type xs ys zs
1 1 .493587 .995250 .452012
2 1 .991771 .641197 .389007
3 1 .832455 .045857 .468005
4 1 .233993 .006159 .585815
5 1 .005853 .587296 .598387
6 1 .543267 .478632 .987777
7 1 .465158 .446833 .010998
ITEM: TIMESTEP
50
ITEM: NUMBER OF ATOMS
7
ITEM: BOX BOUNDS ss ss ss
-3.0324 3.2447
-2.6129 3.5128
-2.0069 1.9042
ITEM: ATOMS id type xs ys zs
1 1 .494314 .995242 .451588
2 1 .991867 .640750 .389123
3 1 .832398 .045906 .468066
4 1 .234189 .005814 .585673
5 1 .005504 .586501 .598726
6 1 .543027 .478651 .987535
7 1 .464947 .446909 .011318
ITEM: TIMESTEP
100
ITEM: NUMBER OF ATOMS
7
ITEM: BOX BOUNDS ss ss ss
-3.0411 3.2447
-2.6176 3.5201
-2.0069 1.9042
ITEM: ATOMS id type xs ys zs
1 1 .495352 .994183 .451395
2 1 .992177 .640121 .389107
3 1 .832539 .046647 .468033
4 1 .235345 .006324 .585529
5 1 .006581 .585839 .598922
6 1 .543502 .478714 .987406
7 1 .465542 .446963 .011508
ITEM: TIMESTEP
150
ITEM: NUMBER OF ATOMS
7
ITEM: BOX BOUNDS ss ss ss
-3.0429 3.2447
-2.6256 3.5289
-2.0069 1.9042
ITEM: ATOMS id type xs ys zs
1 1 .495484 .992515 .451498
2 1 .992534 .639648 .389096
3 1 .832437 .048093 .467991
4 1 .235475 .007523 .585639
5 1 .006710 .585617 .598720
6 1 .543562 .478957 .987475
7 1 .465716 .447085 .011561
ITEM: TIMESTEP
200
ITEM: NUMBER OF ATOMS
7
ITEM: BOX BOUNDS ss ss ss
-3.0487 3.2464
-2.6242 3.5366
-2.0069 1.9118
ITEM: ATOMS id type xs ys zs
1 1 .495397 .990703 .450904
2 1 .992581 .638745 .388606
3 1 .832161 .048178 .467263
4 1 .235811 .007668 .584786
5 1 .007559 .585380 .597541
6 1 .543899 .478390 .985983
7 1 .466161 .446430 .011567
ITEM: TIMESTEP
250
ITEM: NUMBER OF ATOMS
7
ITEM: BOX BOUNDS ss ss ss
-3.0486 3.2474
-2.6348 3.5276
-2.0108 1.9170
ITEM: ATOMS id type xs ys zs
1 1 .494892 .991511 .451178
2 1 .992855 .640373 .389074
3 1 .831828 .050312 .467834
4 1 .235492 .009991 .584579
5 1 .007572 .587797 .597665
6 1 .543911 .480250 .985115
7 1 .466029 .448061 .012350
ITEM: TIMESTEP
300
ITEM: NUMBER OF ATOMS
7
ITEM: BOX BOUNDS ss ss ss
-3.0546 3.2575
-2.6294 3.5297
-2.0214 1.9094
ITEM: ATOMS id type xs ys zs
1 1 .494435 .990857 .453450
2 1 .991808 .639741 .391599
3 1 .830512 .049661 .470632
4 1 .235679 .009661 .586581
5 1 .008440 .587917 .600263
6 1 .543543 .480119 .987246
7 1 .465788 .447464 .015163
ITEM: TIMESTEP
350
ITEM: NUMBER OF ATOMS
7
ITEM: BOX BOUNDS ss ss ss
-3.0525 3.2539
-2.6262 3.5247
-2.0238 1.9162
ITEM: ATOMS id type xs ys zs
1 1 .494353 .991493 .452636
2 1 .992594 .639794 .391326
3 1 .830845 .049112 .470079
4 1 .235565 .009398 .585974
5 1 .008286 .589051 .599463
6 1 .543632 .480534 .985853
7 1 .465869 .447276 .015980
ITEM: TIMESTEP
400
ITEM: NUMBER OF ATOMS
7
ITEM: BOX BOUNDS ss ss ss
-3.0519 3.2545
-2.6201 3.5268
-2.0123 1.9167
ITEM: ATOMS id type xs ys zs
1 1 .493676 .991191 .450506
2 1 .992261 .639206 .389490
3 1 .831122 .047834 .468421
4 1 .235611 .008555 .584407
5 1 .008559 .589128 .597779
6 1 .543707 .479815 .985849
7 1 .465870 .446295 .013098
ITEM: TIMESTEP
1
ITEM: NUMBER OF ATOMS
7
ITEM: BOX BOUNDS ss ss ss
-3.0440 3.2526
-2.6129 3.5243
-2.0054 1.9073
ITEM: ATOMS id type xs ys zs
1 1 .493932 .992914 .451446
2 1 .990543 .639689 .388460
3 1 .831729 .045750 .467429
4 1 .235153 .006144 .585198
5 1 .007731 .585915 .597760
6 1 .543455 .477508 .986987
7 1 .465595 .445789 .010613
ITEM: TIMESTEP
50
ITEM: NUMBER OF ATOMS
7
ITEM: BOX BOUNDS ss ss ss
-3.0440 3.2526
-2.6129 3.5243
-2.0054 1.9073
ITEM: ATOMS id type xs ys zs
1 1 .494705 .993414 .450965
2 1 .990643 .639502 .388566
3 1 .831671 .045819 .467503
4 1 .235312 .005779 .585003
5 1 .007296 .585332 .598202
6 1 .543193 .477749 .986733
7 1 .465330 .446088 .010897
ITEM: TIMESTEP
100
ITEM: NUMBER OF ATOMS
7
ITEM: BOX BOUNDS ss ss ss
-3.0440 3.2526
-2.6180 3.5250
-2.0054 1.9073
ITEM: ATOMS id type xs ys zs
1 1 .495047 .993466 .450794
2 1 .990963 .639531 .388492
3 1 .831617 .046714 .467596
4 1 .235457 .006332 .584811
5 1 .006988 .585250 .598422
6 1 .543063 .478447 .986578
7 1 .465146 .446692 .011176
ITEM: TIMESTEP
150
ITEM: NUMBER OF ATOMS
7
ITEM: BOX BOUNDS ss ss ss
-3.0481 3.2526
-2.6232 3.5291
-2.0144 1.9073
ITEM: ATOMS id type xs ys zs
1 1 .495248 .992647 .451887
2 1 .991401 .639351 .389763
3 1 .831657 .047801 .468798
4 1 .236137 .007083 .585607
5 1 .007470 .585096 .599227
6 1 .543429 .478895 .986779
7 1 .465506 .446951 .013528
ITEM: TIMESTEP
200
ITEM: NUMBER OF ATOMS
7
ITEM: BOX BOUNDS ss ss ss
-3.0530 3.2526
-2.6315 3.5326
-2.0055 1.9073
ITEM: ATOMS id type xs ys zs
1 1 .495179 .991720 .450205
2 1 .991921 .639680 .388235
3 1 .831889 .049484 .467785
4 1 .236925 .008431 .584813
5 1 .007987 .585291 .597874
6 1 .543889 .479682 .987000
7 1 .466086 .447420 .011561
ITEM: TIMESTEP
250
ITEM: NUMBER OF ATOMS
7
ITEM: BOX BOUNDS ss ss ss
-3.0532 3.2584
-2.6250 3.5258
-2.0091 1.9092
ITEM: ATOMS id type xs ys zs
1 1 .493741 .991969 .450493
2 1 .991105 .640356 .388921
3 1 .830886 .048714 .468650
4 1 .236776 .008239 .584723
5 1 .008137 .586325 .597908
6 1 .543687 .480224 .987453
7 1 .465979 .447245 .012472
ITEM: TIMESTEP
300
ITEM: NUMBER OF ATOMS
7
ITEM: BOX BOUNDS ss ss ss
-3.0562 3.2526
-2.6281 3.5268
-2.0054 1.9073
ITEM: ATOMS id type xs ys zs
1 1 .493196 .991311 .450842
2 1 .991546 .640495 .389244
3 1 .830860 .048792 .469181
4 1 .236793 .010778 .584870
5 1 .009334 .588632 .599092
6 1 .544898 .480916 .988917
7 1 .466942 .447868 .011146
ITEM: TIMESTEP
350
ITEM: NUMBER OF ATOMS
7
ITEM: BOX BOUNDS ss ss ss
-3.0397 3.2500
-2.6205 3.5204
-2.0094 1.9039
ITEM: ATOMS id type xs ys zs
1 1 .491237 .992316 .451704
2 1 .992286 .640713 .390671
3 1 .830540 .047713 .470228
4 1 .234262 .009925 .586041
5 1 .007193 .589072 .600795
6 1 .544310 .480762 .989809
7 1 .465849 .447605 .012091
ITEM: TIMESTEP
400
ITEM: NUMBER OF ATOMS
7
ITEM: BOX BOUNDS ss ss ss
-3.0404 3.2512
-2.6145 3.5243
-2.0211 1.9120
ITEM: ATOMS id type xs ys zs
1 1 .490719 .991575 .452476
2 1 .992452 .640111 .392261
3 1 .830454 .046792 .470327
4 1 .233791 .008929 .585694
5 1 .007528 .588307 .601021
6 1 .544557 .479720 .988049
7 1 .465974 .446600 .015055
ITEM: TIMESTEP
1
ITEM: NUMBER OF ATOMS
7
ITEM: BOX BOUNDS ss ss ss
-3.0314 3.2418
-2.6129 3.5185
-2.0042 1.9118
ITEM: ATOMS id type xs ys zs
1 1 .493761 .993863 .450750
2 1 .992227 .640304 .387827
3 1 .832822 .045794 .466730
4 1 .234017 .006151 .584390
5 1 .005743 .586475 .596947
6 1 .543466 .477964 .985837
7 1 .465313 .446215 .010303
ITEM: TIMESTEP
50
ITEM: NUMBER OF ATOMS
7
ITEM: BOX BOUNDS ss ss ss
-3.0314 3.2418
-2.6129 3.5152
-2.0042 1.9118
ITEM: ATOMS id type xs ys zs
1 1 .494595 .994942 .450240
2 1 .992343 .640461 .387978
3 1 .832737 .045902 .466802
4 1 .234215 .005762 .584167
5 1 .005280 .586157 .597374
6 1 .543177 .478476 .985538
7 1 .465004 .446764 .010643
ITEM: TIMESTEP
100
ITEM: NUMBER OF ATOMS
7
ITEM: BOX BOUNDS ss ss ss
-3.0446 3.2418
-2.6207 3.5225
-2.0042 1.9118
ITEM: ATOMS id type xs ys zs
1 1 .496095 .993997 .449961
2 1 .992609 .639925 .388006
3 1 .833036 .047127 .466771
4 1 .235934 .006689 .584015
5 1 .006932 .585618 .597686
6 1 .543933 .478857 .985383
7 1 .465928 .447169 .010972
ITEM: TIMESTEP
150
ITEM: NUMBER OF ATOMS
7
ITEM: BOX BOUNDS ss ss ss
-3.0518 3.2418
-2.6325 3.5379
-2.0042 1.9118
ITEM: ATOMS id type xs ys zs
1 1 .496768 .991557 .449938
2 1 .992986 .638874 .388056
3 1 .833159 .048947 .466810
4 1 .236796 .008422 .583925
5 1 .007690 .584669 .597779
6 1 .544300 .478970 .985440
7 1 .466361 .447222 .011185
ITEM: TIMESTEP
200
ITEM: NUMBER OF ATOMS
7
ITEM: BOX BOUNDS ss ss ss
-3.0607 3.2459
-2.6358 3.5335
-2.0104 1.9118
ITEM: ATOMS id type xs ys zs
1 1 .496882 .991914 .451255
2 1 .992629 .639332 .388902
3 1 .832462 .049605 .467944
4 1 .237500 .009173 .584406
5 1 .008744 .585141 .598351
6 1 .544544 .479971 .985646
7 1 .466547 .447863 .012598
ITEM: TIMESTEP
250
ITEM: NUMBER OF ATOMS
7
ITEM: BOX BOUNDS ss ss ss
-3.0592 3.2565
-2.6396 3.5349
-2.0121 1.9118
ITEM: ATOMS id type xs ys zs
1 1 .495526 .991001 .451807
2 1 .991169 .639188 .389251
3 1 .830204 .050095 .468623
4 1 .236485 .010133 .584163
5 1 .008355 .585069 .598611
6 1 .543521 .480366 .986081
7 1 .465660 .448220 .012717
ITEM: TIMESTEP
300
ITEM: NUMBER OF ATOMS
7
ITEM: BOX BOUNDS ss ss ss
-3.0623 3.2495
-2.6352 3.5283
-2.0081 1.9118
ITEM: ATOMS id type xs ys zs
1 1 .495921 .991739 .451330
2 1 .992393 .639586 .388345
3 1 .830406 .049399 .468369
4 1 .236678 .009468 .583473
5 1 .009118 .585246 .598415
6 1 .544441 .480624 .986521
7 1 .466704 .448367 .011618
ITEM: TIMESTEP
350
ITEM: NUMBER OF ATOMS
7
ITEM: BOX BOUNDS ss ss ss
-3.0600 3.2585
-2.6338 3.5251
-2.0195 1.9209
ITEM: ATOMS id type xs ys zs
1 1 .494461 .992119 .451272
2 1 .991103 .639896 .388821
3 1 .828549 .049327 .469312
4 1 .235703 .008971 .583368
5 1 .009017 .585363 .598604
6 1 .543683 .481150 .984149
7 1 .465903 .448405 .014273
ITEM: TIMESTEP
400
ITEM: NUMBER OF ATOMS
7
ITEM: BOX BOUNDS ss ss ss
-3.0577 3.2617
-2.6441 3.5259
-2.0191 1.9238
ITEM: ATOMS id type xs ys zs
1 1 .493049 .991788 .449366
2 1 .990688 .640445 .388174
3 1 .827529 .051248 .469325
4 1 .235086 .010661 .583300
5 1 .008719 .585843 .598952
6 1 .543539 .482621 .983111
7 1 .465028 .448983 .013547
ITEM: TIMESTEP
450
ITEM: NUMBER OF ATOMS
7
ITEM: BOX BOUNDS ss ss ss
-3.0677 3.2657
-2.6303 3.5344
-2.0191 1.9261
ITEM: ATOMS id type xs ys zs
1 1 .492345 .990078 .447384
2 1 .990020 .638707 .387553
3 1 .826841 .049187 .469421
4 1 .235838 .008800 .583505
5 1 .010260 .584085 .599512
6 1 .544312 .481318 .982249
7 1 .465217 .446807 .012818
ITEM: TIMESTEP
500
ITEM: NUMBER OF ATOMS
7
ITEM: BOX BOUNDS ss ss ss
-3.0601 3.2655
-2.6278 3.5352
-2.0291 1.9208
ITEM: ATOMS id type xs ys zs
1 1 .491213 .989703 .448887
2 1 .989986 .638855 .389661
3 1 .826660 .048882 .471338
4 1 .234631 .008761 .585592
5 1 .008970 .583773 .602062
6 1 .544092 .481189 .983750
7 1 .464630 .446376 .015579
ITEM: TIMESTEP
550
ITEM: NUMBER OF ATOMS
7
ITEM: BOX BOUNDS ss ss ss
-3.0680 3.2583
-2.6303 3.5282
-2.0212 1.9062
ITEM: ATOMS id type xs ys zs
1 1 .492086 .990746 .448596
2 1 .991415 .640168 .390080
3 1 .828348 .049340 .472196
4 1 .235754 .009604 .586741
5 1 .010321 .584759 .603977
6 1 .545519 .482060 .987501
7 1 .466337 .447007 .013836
ITEM: TIMESTEP
600
ITEM: NUMBER OF ATOMS
7
ITEM: BOX BOUNDS ss ss ss
-3.0557 3.2651
-2.6358 3.5221
-2.0214 1.9053
ITEM: ATOMS id type xs ys zs
1 1 .490238 .991759 .447589
2 1 .990578 .641546 .389866
3 1 .827591 .050413 .472757
4 1 .234026 .010874 .586827
5 1 .008680 .586013 .604188
6 1 .544370 .483103 .987670
7 1 .465217 .447802 .013755
ITEM: TIMESTEP
1
ITEM: NUMBER OF ATOMS
7
ITEM: BOX BOUNDS ss ss ss
-3.0601 3.2636
-2.6296 3.5108
-2.0254 1.9053
ITEM: ATOMS id type xs ys zs
1 1 .494358 .995124 .454462
2 1 .988843 .642083 .391772
3 1 .830709 .048452 .470375
4 1 .236686 .008866 .587597
5 1 .010239 .588333 .600107
6 1 .543665 .479987 .987545
7 1 .466138 .448281 .015655
ITEM: TIMESTEP
50
ITEM: NUMBER OF ATOMS
7
ITEM: BOX BOUNDS ss ss ss
-3.0601 3.2636
-2.6296 3.5114
-2.0254 1.9053
ITEM: ATOMS id type xs ys zs
1 1 .495222 .995641 .453922
2 1 .988939 .641820 .391946
3 1 .830660 .048549 .470480
4 1 .236856 .008444 .587372
5 1 .009773 .587632 .600563
6 1 .543361 .480220 .987234
7 1 .465813 .448554 .016034
ITEM: TIMESTEP
100
ITEM: NUMBER OF ATOMS
7
ITEM: BOX BOUNDS ss ss ss
-3.0601 3.2636
-2.6222 3.5222
-2.0254 1.9053
ITEM: ATOMS id type xs ys zs
1 1 .495707 .994161 .453647
2 1 .989226 .640015 .392057
3 1 .830535 .047327 .470502
4 1 .236967 .006917 .587155
5 1 .009328 .585682 .600894
6 1 .543158 .479063 .987127
7 1 .465658 .447342 .016400
ITEM: TIMESTEP
150
ITEM: NUMBER OF ATOMS
7
ITEM: BOX BOUNDS ss ss ss
-3.0601 3.2636
-2.6288 3.5307
-2.0173 1.9053
ITEM: ATOMS id type xs ys zs
1 1 .495748 .992662 .452518
2 1 .989681 .639488 .390961
3 1 .830293 .048140 .468950
4 1 .236954 .007861 .585837
5 1 .009074 .585317 .600063
6 1 .543139 .478995 .986932
7 1 .465683 .447350 .014662
ITEM: TIMESTEP
200
ITEM: NUMBER OF ATOMS
7
ITEM: BOX BOUNDS ss ss ss
-3.0613 3.2636
-2.6252 3.5315
-2.0173 1.9053
ITEM: ATOMS id type xs ys zs
1 1 .495562 .992038 .452732
2 1 .990452 .639185 .392291
3 1 .830220 .047303 .467460
4 1 .236646 .007597 .584897
5 1 .009342 .586015 .598962
6 1 .543403 .478130 .986098
7 1 .466191 .446855 .014552
ITEM: TIMESTEP
250
ITEM: NUMBER OF ATOMS
7
ITEM: BOX BOUNDS ss ss ss
-3.0601 3.2636
-2.6342 3.5383
-2.0115 1.9053
ITEM: ATOMS id type xs ys zs
1 1 .495181 .990466 .451366
2 1 .991022 .639183 .393213
3 1 .830210 .048359 .465280
4 1 .236161 .009431 .583098
5 1 .009210 .586830 .597106
6 1 .543317 .477994 .985507
7 1 .466381 .447083 .012462
ITEM: TIMESTEP
300
ITEM: NUMBER OF ATOMS
7
ITEM: BOX BOUNDS ss ss ss
-3.0601 3.2636
-2.6297 3.5259
-2.0163 1.9053
ITEM: ATOMS id type xs ys zs
1 1 .494746 .992229 .451312
2 1 .991046 .640317 .395003
3 1 .830223 .047580 .465140
4 1 .235963 .008977 .583587
5 1 .008953 .587848 .597151
6 1 .543056 .478484 .985456
7 1 .466461 .447680 .013516
ITEM: TIMESTEP
350
ITEM: NUMBER OF ATOMS
7
ITEM: BOX BOUNDS ss ss ss
-3.0663 3.2636
-2.6274 3.5287
-2.0258 1.9053
ITEM: ATOMS id type xs ys zs
1 1 .494332 .991737 .452064
2 1 .990622 .639696 .397255
3 1 .830889 .046932 .466172
4 1 .236610 .009116 .584944
5 1 .009649 .587647 .597908
6 1 .543234 .477682 .985561
7 1 .467370 .447200 .015785
ITEM: TIMESTEP
400
ITEM: NUMBER OF ATOMS
7
ITEM: BOX BOUNDS ss ss ss
-3.0601 3.2636
-2.6222 3.5256
-2.0121 1.9024
ITEM: ATOMS id type xs ys zs
1 1 .492495 .992622 .449954
2 1 .990120 .639801 .395036
3 1 .831448 .045801 .465577
4 1 .235789 .007935 .582975
5 1 .009021 .587732 .595722
6 1 .542683 .477132 .985529
7 1 .467738 .446485 .012164
ITEM: TIMESTEP
1
ITEM: NUMBER OF ATOMS
7
ITEM: BOX BOUNDS ss ss ss
-3.0610 3.2636
-2.6211 3.5171
-2.0196 1.9024
ITEM: ATOMS id type xs ys zs
1 1 .494434 .994090 .453989
2 1 .988843 .640930 .391162
3 1 .830735 .047085 .469939
4 1 .236804 .007484 .587421
5 1 .010387 .587156 .599957
6 1 .543732 .478771 .988251
7 1 .466221 .447054 .014217
ITEM: TIMESTEP
50
ITEM: NUMBER OF ATOMS
7
ITEM: BOX BOUNDS ss ss ss
-3.0610 3.2636
-2.6211 3.5184
-2.0196 1.9024
ITEM: ATOMS id type xs ys zs
1 1 .495341 .994517 .453458
2 1 .988953 .640594 .391307
3 1 .830689 .047181 .470017
4 1 .236988 .007046 .587178
5 1 .009871 .586337 .600454
6 1 .543392 .478925 .987945
7 1 .465906 .447329 .014593
ITEM: TIMESTEP
100
ITEM: NUMBER OF ATOMS
7
ITEM: BOX BOUNDS ss ss ss
-3.0610 3.2636
-2.6211 3.5286
-2.0196 1.9024
ITEM: ATOMS id type xs ys zs
1 1 .495857 .993193 .453079
2 1 .989223 .639338 .391326
3 1 .830679 .047244 .470056
4 1 .237101 .006743 .586936
5 1 .009419 .584932 .600833
6 1 .543149 .478495 .987854
7 1 .465704 .446857 .014898
ITEM: TIMESTEP
150
ITEM: NUMBER OF ATOMS
7
ITEM: BOX BOUNDS ss ss ss
-3.0601 3.2636
-2.6268 3.5306
-2.0196 1.9024
ITEM: ATOMS id type xs ys zs
1 1 .495714 .992813 .452744
2 1 .989556 .639438 .391483
3 1 .830692 .048404 .470066
4 1 .237021 .007726 .586676
5 1 .008913 .585099 .600886
6 1 .542951 .479197 .987933
7 1 .465490 .447511 .015134
ITEM: TIMESTEP
200
ITEM: NUMBER OF ATOMS
7
ITEM: BOX BOUNDS ss ss ss
-3.0601 3.2636
-2.6358 3.5335
-2.0196 1.9067
ITEM: ATOMS id type xs ys zs
1 1 .495404 .992149 .451686
2 1 .990006 .639534 .391399
3 1 .830759 .050068 .469729
4 1 .237126 .009452 .585726
5 1 .008627 .585552 .600043
6 1 .542909 .480095 .987140
7 1 .465459 .448151 .015201
ITEM: TIMESTEP
250
ITEM: NUMBER OF ATOMS
7
ITEM: BOX BOUNDS ss ss ss
-3.0608 3.2636
-2.6328 3.5351
-2.0230 1.9024
ITEM: ATOMS id type xs ys zs
1 1 .495116 .991549 .452590
2 1 .990689 .639086 .392657
3 1 .830768 .050007 .470975
4 1 .237306 .009105 .586782
5 1 .008336 .584950 .600737
6 1 .543041 .480134 .988434
7 1 .465524 .447653 .016026
ITEM: TIMESTEP
300
ITEM: NUMBER OF ATOMS
7
ITEM: BOX BOUNDS ss ss ss
-3.0611 3.2636
-2.6366 3.5413
-2.0115 1.9051
ITEM: ATOMS id type xs ys zs
1 1 .494785 .990114 .450693
2 1 .991256 .638493 .390264
3 1 .830954 .050736 .469284
4 1 .237762 .010701 .586852
5 1 .007729 .584665 .598939
6 1 .543480 .481066 .987904
7 1 .465337 .447584 .013418
ITEM: TIMESTEP
350
ITEM: NUMBER OF ATOMS
7
ITEM: BOX BOUNDS ss ss ss
-3.0615 3.2660
-2.6335 3.5371
-2.0115 1.9065
ITEM: ATOMS id type xs ys zs
1 1 .494733 .990723 .450320
2 1 .991318 .638753 .389383
3 1 .830798 .050574 .469164
4 1 .238243 .010891 .588562
5 1 .007392 .585020 .598415
6 1 .543467 .482052 .987573
7 1 .465103 .447912 .013522
ITEM: TIMESTEP
400
ITEM: NUMBER OF ATOMS
7
ITEM: BOX BOUNDS ss ss ss
-3.0740 3.2675
-2.6289 3.5326
-2.0306 1.9120
ITEM: ATOMS id type xs ys zs
1 1 .495975 .991441 .452738
2 1 .991342 .638944 .391578
3 1 .830782 .050101 .470387
4 1 .239872 .010188 .590519
5 1 .009042 .585015 .599263
6 1 .543924 .482091 .985991
7 1 .466278 .448053 .018019
ITEM: TIMESTEP
450
ITEM: NUMBER OF ATOMS
7
ITEM: BOX BOUNDS ss ss ss
-3.0704 3.2730
-2.6365 3.5386
-2.0276 1.9109
ITEM: ATOMS id type xs ys zs
1 1 .495275 .990365 .453846
2 1 .990536 .638797 .393536
3 1 .829861 .051156 .466456
4 1 .239272 .010771 .589879
5 1 .008291 .584886 .598026
6 1 .542312 .481072 .985156
7 1 .466037 .448393 .016481
ITEM: TIMESTEP
500
ITEM: NUMBER OF ATOMS
7
ITEM: BOX BOUNDS ss ss ss
-3.0664 3.2644
-2.6351 3.5410
-2.0189 1.9046
ITEM: ATOMS id type xs ys zs
1 1 .495122 .988920 .456664
2 1 .991929 .638426 .400201
3 1 .830890 .050182 .456312
4 1 .238878 .008527 .586805
5 1 .007975 .584597 .595650
6 1 .541308 .477124 .985040
7 1 .466547 .448329 .012804
ITEM: TIMESTEP
550
ITEM: NUMBER OF ATOMS
7
ITEM: BOX BOUNDS ss ss ss
-3.0709 3.2678
-2.6414 3.5555
-2.0259 1.9038
ITEM: ATOMS id type xs ys zs
1 1 .494687 .985769 .459779
2 1 .991629 .637185 .406242
3 1 .830523 .050373 .451062
4 1 .239057 .008453 .585945
5 1 .008930 .583584 .594669
6 1 .540722 .474362 .984801
7 1 .466988 .448085 .013927
ITEM: TIMESTEP
600
ITEM: NUMBER OF ATOMS
7
ITEM: BOX BOUNDS ss ss ss
-3.0764 3.2650
-2.6458 3.5386
-2.0135 1.8964
ITEM: ATOMS id type xs ys zs
1 1 .494974 .988231 .459614