ITEM: TIMESTEP
1
ITEM: NUMBER OF ATOMS
7
ITEM: BOX BOUNDS ss ss ss
-2.8672 3.3636
-2.8984 3.0409
-2.1898 1.6780
ITEM: ATOMS id type xs ys zs
1 1 .490845 .999532 .539799
2 1 .999230 .636404 .518417
3 1 .816721 .018614 .491126
4 1 .197327 .000715 .474463
5 1 .000614 .610438 .470102
6 1 .495665 .446921 .998965
7 1 .516224 .473926 .000937
ITEM: TIMESTEP
50
ITEM: NUMBER OF ATOMS
7
ITEM: BOX BOUNDS ss ss ss
-2.8895 3.3914
-2.9206 3.0673
-2.2147 1.6998
ITEM: ATOMS id type xs ys zs
1 1 .490002 .997298 .538820
2 1 .995235 .633957 .520560
3 1 .814339 .023049 .492189
4 1 .199761 .007452 .474002
5 1 .005060 .609216 .472157
6 1 .494914 .446118 .992413
7 1 .514939 .471887 .007031
ITEM: TIMESTEP
100
ITEM: NUMBER OF ATOMS
7
ITEM: BOX BOUNDS ss ss ss
-2.8939 3.4031
-2.9200 3.0785
-2.2227 1.7114
ITEM: ATOMS id type xs ys zs
1 1 .491151 .995395 .536598
2 1 .994626 .633836 .523002
3 1 .814117 .023124 .495246
4 1 .202182 .007109 .474813
5 1 .003760 .609228 .473879
6 1 .494663 .443883 .989228
7 1 .511808 .468340 .008820
ITEM: TIMESTEP
150
ITEM: NUMBER OF ATOMS
7
ITEM: BOX BOUNDS ss ss ss
-2.8964 3.4102
-2.9249 3.0881
-2.2307 1.7109
ITEM: ATOMS id type xs ys zs
1 1 .490151 .993956 .535604
2 1 .993248 .632612 .525755
3 1 .812419 .023927 .495510
4 1 .203668 .008367 .473087
5 1 .005041 .608067 .474122
6 1 .495292 .443475 .989161
7 1 .510889 .467315 .007849
ITEM: TIMESTEP
200
ITEM: NUMBER OF ATOMS
7
ITEM: BOX BOUNDS ss ss ss
-2.9034 3.4132
-2.9172 3.0947
-2.2273 1.7128
ITEM: ATOMS id type xs ys zs
1 1 .488990 .992333 .535188
2 1 .990973 .629968 .524726
3 1 .811399 .021917 .495172
4 1 .204331 .009554 .474024
5 1 .007991 .609728 .472561
6 1 .493286 .443214 .997751
7 1 .514049 .464788 .008241
ITEM: TIMESTEP
250
ITEM: NUMBER OF ATOMS
7
ITEM: BOX BOUNDS ss ss ss
-2.8991 3.4095
-2.9244 3.0926
-2.2324 1.7260
ITEM: ATOMS id type xs ys zs
1 1 .489207 .993453 .534374
2 1 .991270 .630542 .524392
3 1 .812284 .022517 .493478
4 1 .204918 .009892 .472940
5 1 .007392 .609027 .471956
6 1 .493220 .443920 .991345
7 1 .513402 .465286 .009766
ITEM: TIMESTEP
300
ITEM: NUMBER OF ATOMS
7
ITEM: BOX BOUNDS ss ss ss
-2.9096 3.4187
-2.9183 3.0999
-2.2394 1.7365
ITEM: ATOMS id type xs ys zs
1 1 .490121 .992766 .530643
2 1 .988291 .629271 .521475
3 1 .810615 .019978 .492182
4 1 .206455 .008124 .468115
5 1 .011288 .605290 .472287
6 1 .493233 .443067 .987872
7 1 .512426 .464025 .009403
ITEM: TIMESTEP
350
ITEM: NUMBER OF ATOMS
7
ITEM: BOX BOUNDS ss ss ss
-2.9111 3.4086
-2.9192 3.1115
-2.2423 1.7352
ITEM: ATOMS id type xs ys zs
1 1 .490830 .990855 .531036
2 1 .989449 .627619 .523548
3 1 .811686 .020496 .492536
4 1 .206591 .009580 .470201
5 1 .010735 .606120 .472475
6 1 .493964 .442571 .989056
7 1 .512412 .461954 .010163
ITEM: TIMESTEP
400
ITEM: NUMBER OF ATOMS
7
ITEM: BOX BOUNDS ss ss ss
-2.9086 3.4082
-2.9186 3.1099
-2.2390 1.7352
ITEM: ATOMS id type xs ys zs
1 1 .492778 .990888 .529429
2 1 .989849 .629460 .522050
3 1 .813836 .020369 .489081
4 1 .207944 .008942 .468187
5 1 .011273 .606688 .471832
6 1 .493422 .442494 .986944
7 1 .512774 .461790 .007195
ITEM: TIMESTEP
1
ITEM: NUMBER OF ATOMS
7
ITEM: BOX BOUNDS ss ss ss
-2.8858 3.3742
-2.9039 3.0761
-2.2295 1.7230
ITEM: ATOMS id type xs ys zs
1 1 .491539 .993679 .538268
2 1 .997538 .633005 .517377
3 1 .815860 .019398 .490714
4 1 .199386 .001619 .474361
5 1 .003605 .607245 .470022
6 1 .496320 .444798 .987652
7 1 .516826 .471601 .010960
ITEM: TIMESTEP
50
ITEM: NUMBER OF ATOMS
7
ITEM: BOX BOUNDS ss ss ss
-2.8899 3.3892
-2.9250 3.0761
-2.2295 1.7230
ITEM: ATOMS id type xs ys zs
1 1 .491550 .995386 .539867
2 1 .994570 .634706 .517623
3 1 .814161 .022928 .489478
4 1 .201172 .008058 .473230
5 1 .003938 .610177 .470437
6 1 .495760 .444883 .989534
7 1 .515476 .470494 .008498
ITEM: TIMESTEP
100
ITEM: NUMBER OF ATOMS
7
ITEM: BOX BOUNDS ss ss ss
-2.8971 3.4067
-2.9313 3.0809
-2.2295 1.7230
ITEM: ATOMS id type xs ys zs
1 1 .489813 .995659 .541704
2 1 .992402 .634583 .520422
3 1 .812265 .025113 .489274
4 1 .203458 .011048 .474748
5 1 .006053 .611713 .473293
6 1 .496223 .442942 .987407
7 1 .512932 .469932 .010316
ITEM: TIMESTEP
150
ITEM: NUMBER OF ATOMS
7
ITEM: BOX BOUNDS ss ss ss
-2.9046 3.4069
-2.9202 3.0911
-2.2295 1.7230
ITEM: ATOMS id type xs ys zs
1 1 .489932 .993396 .538006
2 1 .992174 .633256 .520130
3 1 .814394 .022397 .490103
4 1 .203128 .009707 .475412
5 1 .007836 .610084 .474654
6 1 .496566 .442075 .991775
7 1 .512614 .465463 .010241
ITEM: TIMESTEP
200
ITEM: NUMBER OF ATOMS
7
ITEM: BOX BOUNDS ss ss ss
-2.8973 3.4127
-2.9138 3.0935
-2.2327 1.7236
ITEM: ATOMS id type xs ys zs
1 1 .487848 .994270 .538165
2 1 .990123 .632613 .518075
3 1 .811424 .023085 .489942
4 1 .202544 .009689 .472748
5 1 .006789 .609737 .476701
6 1 .494523 .442248 .990640
7 1 .510382 .466520 .008547
ITEM: TIMESTEP
250
ITEM: NUMBER OF ATOMS
7
ITEM: BOX BOUNDS ss ss ss
-2.9036 3.4120
-2.9102 3.1072
-2.2329 1.7230
ITEM: ATOMS id type xs ys zs
1 1 .488899 .992088 .543005
2 1 .991246 .631311 .520836
3 1 .811623 .020827 .491994
4 1 .206461 .009191 .472520
5 1 .007545 .608447 .480008
6 1 .495371 .440757 .990856
7 1 .511245 .465292 .010824
ITEM: TIMESTEP
300
ITEM: NUMBER OF ATOMS
7
ITEM: BOX BOUNDS ss ss ss
-2.8979 3.4076
-2.9134 3.1106
-2.2417 1.7313
ITEM: ATOMS id type xs ys zs
1 1 .488631 .987828 .542425
2 1 .990193 .628282 .520258
3 1 .812812 .020415 .488072
4 1 .205169 .008278 .471311
5 1 .007767 .606071 .480120
6 1 .494421 .436808 .993368
7 1 .510486 .462776 .011901
ITEM: TIMESTEP
350
ITEM: NUMBER OF ATOMS
7
ITEM: BOX BOUNDS ss ss ss
-2.9047 3.4133
-2.9086 3.1071
-2.2394 1.7379
ITEM: ATOMS id type xs ys zs
1 1 .487463 .987544 .541750
2 1 .988051 .628483 .521680
3 1 .812887 .019275 .489469
4 1 .207171 .004536 .467998
5 1 .008176 .603985 .479800
6 1 .493701 .435038 .994131
7 1 .510593 .461693 .010573
ITEM: TIMESTEP
400
ITEM: NUMBER OF ATOMS
7
ITEM: BOX BOUNDS ss ss ss
-2.8999 3.4013
-2.9196 3.1095
-2.2559 1.7441
ITEM: ATOMS id type xs ys zs
1 1 .487087 .988374 .539433
2 1 .987464 .627945 .525084
3 1 .814165 .019595 .491529
4 1 .207982 .006182 .469208
5 1 .007382 .604340 .483427
6 1 .493400 .434629 .992728
7 1 .510358 .463952 .012609
ITEM: TIMESTEP
1
ITEM: NUMBER OF ATOMS
7
ITEM: BOX BOUNDS ss ss ss
-2.8858 3.3827
-2.9039 3.0899
-2.2307 1.7329
ITEM: ATOMS id type xs ys zs
1 1 .490848 .991406 .537113
2 1 .996211 .631517 .516220
3 1 .814782 .019369 .489602
4 1 .199142 .001677 .473327
5 1 .003570 .605821 .469027
6 1 .495644 .443797 .985172
7 1 .516174 .470517 .011149
ITEM: TIMESTEP
50
ITEM: NUMBER OF ATOMS
7
ITEM: BOX BOUNDS ss ss ss
-2.8903 3.3892
-2.9199 3.0899
-2.2307 1.7329
ITEM: ATOMS id type xs ys zs
1 1 .490839 .992803 .537077
2 1 .994242 .633695 .521922
3 1 .814090 .021779 .490383
4 1 .199219 .004540 .471548
5 1 .004560 .608716 .469041
6 1 .495190 .442475 .983620
7 1 .513808 .469853 .009392
ITEM: TIMESTEP
100
ITEM: NUMBER OF ATOMS
7
ITEM: BOX BOUNDS ss ss ss
-2.8989 3.4089
-2.9274 3.0899
-2.2307 1.7329
ITEM: ATOMS id type xs ys zs
1 1 .488733 .993524 .537308
2 1 .992001 .632720 .518383
3 1 .811695 .023524 .490472
4 1 .201504 .007598 .472428
5 1 .007036 .606744 .468313
6 1 .493979 .444438 .986255
7 1 .514266 .469130 .008681
ITEM: TIMESTEP
150
ITEM: NUMBER OF ATOMS
7
ITEM: BOX BOUNDS ss ss ss
-2.9043 3.4107
-2.9327 3.0900
-2.2307 1.7329
ITEM: ATOMS id type xs ys zs
1 1 .491420 .991983 .536559
2 1 .992558 .634461 .517985
3 1 .812331 .022029 .488118
4 1 .202799 .009257 .472538
5 1 .007791 .607143 .470039
6 1 .494348 .440500 .987346
7 1 .513808 .467163 .006549
ITEM: TIMESTEP
200
ITEM: NUMBER OF ATOMS
7
ITEM: BOX BOUNDS ss ss ss
-2.9033 3.4167
-2.9298 3.1013
-2.2429 1.7329
ITEM: ATOMS id type xs ys zs
1 1 .488200 .992919 .540013
2 1 .990988 .631928 .521611
3 1 .812690 .023480 .493300
4 1 .204231 .008870 .464159
5 1 .006053 .606850 .467656
6 1 .493379 .440748 .983362
7 1 .513841 .467303 .011421
ITEM: TIMESTEP
250
ITEM: NUMBER OF ATOMS
7
ITEM: BOX BOUNDS ss ss ss
-2.9033 3.4167
-2.9267 3.1048
-2.2431 1.7329
ITEM: ATOMS id type xs ys zs
1 1 .488164 .992257 .538752
2 1 .989492 .632150 .522710
3 1 .809879 .023503 .493324
4 1 .203694 .008882 .471689
5 1 .006283 .608052 .470256
6 1 .490747 .442603 .985723
7 1 .510992 .466624 .012788
ITEM: TIMESTEP
300
ITEM: NUMBER OF ATOMS
7
ITEM: BOX BOUNDS ss ss ss
-2.9064 3.4157
-2.9269 3.1117
-2.2495 1.7283
ITEM: ATOMS id type xs ys zs
1 1 .489271 .991199 .539510
2 1 .988555 .631110 .526330
3 1 .809467 .023771 .494035
4 1 .203899 .009513 .473782
5 1 .008577 .606341 .472111
6 1 .491560 .442155 .987750
7 1 .511442 .465196 .013662
ITEM: TIMESTEP
350
ITEM: NUMBER OF ATOMS
7
ITEM: BOX BOUNDS ss ss ss
-2.9009 3.4104
-2.9229 3.1097
-2.2533 1.7281
ITEM: ATOMS id type xs ys zs
1 1 .489719 .990629 .538252
2 1 .988256 .628902 .526846
3 1 .810135 .024064 .493939
4 1 .203623 .008496 .473729
5 1 .006288 .607823 .474297
6 1 .492274 .442272 .990094
7 1 .509332 .463999 .012162
ITEM: TIMESTEP
400
ITEM: NUMBER OF ATOMS
7
ITEM: BOX BOUNDS ss ss ss
-2.9043 3.3989
-2.9196 3.1044
-2.2557 1.7270
ITEM: ATOMS id type xs ys zs
1 1 .490067 .991463 .539497
2 1 .990054 .629394 .527052
3 1 .812570 .022089 .493891
4 1 .205914 .008040 .468544
5 1 .007748 .607951 .473764
6 1 .493506 .440995 .988030
7 1 .511201 .464127 .012649
ITEM: TIMESTEP
1
ITEM: NUMBER OF ATOMS
7
ITEM: BOX BOUNDS ss ss ss
-2.8907 3.3759
-2.8985 3.0903
-2.2330 1.7130
ITEM: ATOMS id type xs ys zs
1 1 .491803 .991314 .539964
2 1 .997282 .631145 .519155
3 1 .815782 .018480 .492392
4 1 .199942 .000740 .475918
5 1 .004338 .605412 .471704
6 1 .496568 .443220 .990214
7 1 .517023 .469987 .011823
ITEM: TIMESTEP
50
ITEM: NUMBER OF ATOMS
7
ITEM: BOX BOUNDS ss ss ss
-2.8916 3.3876
-2.9220 3.0903
-2.2330 1.7130
ITEM: ATOMS id type xs ys zs
1 1 .492230 .991734 .536654
2 1 .995445 .633361 .519183
3 1 .812963 .020904 .491552
4 1 .201954 .004605 .475131
5 1 .004403 .608025 .475647
6 1 .493087 .442665 .991367
7 1 .514899 .470646 .010038
ITEM: TIMESTEP
100
ITEM: NUMBER OF ATOMS
7
ITEM: BOX BOUNDS ss ss ss
-2.8952 3.4104
-2.9237 3.0903
-2.2330 1.7145
ITEM: ATOMS id type xs ys zs
1 1 .490712 .991559 .540560
2 1 .992651 .630297 .521475
3 1 .808277 .025116 .489162
4 1 .201923 .008617 .474013
5 1 .005804 .607472 .474020
6 1 .491775 .441212 .990164
7 1 .513261 .468256 .007765
ITEM: TIMESTEP
150
ITEM: NUMBER OF ATOMS
7
ITEM: BOX BOUNDS ss ss ss
-2.9010 3.4093
-2.9223 3.0903
-2.2330 1.7176
ITEM: ATOMS id type xs ys zs
1 1 .491602 .991321 .537074
2 1 .992306 .629356 .525728
3 1 .810001 .022597 .489498
4 1 .202020 .007777 .474428
5 1 .005754 .607561 .473784
6 1 .492018 .440622 .993958
7 1 .511401 .468247 .012613
ITEM: TIMESTEP
200
ITEM: NUMBER OF ATOMS
7
ITEM: BOX BOUNDS ss ss ss
-2.9038 3.4198
-2.9237 3.0903
-2.2384 1.7184
ITEM: ATOMS id type xs ys zs
1 1 .491771 .992046 .540326
2 1 .989314 .630389 .527159
3 1 .806065 .025354 .489850
4 1 .203079 .010617 .473109
5 1 .008670 .607934 .472760
6 1 .491605 .440799 .993594
7 1 .510376 .467866 .009518
ITEM: TIMESTEP
250
ITEM: NUMBER OF ATOMS
7
ITEM: BOX BOUNDS ss ss ss
-2.9020 3.4192
-2.9280 3.1025
-2.2430 1.7268
ITEM: ATOMS id type xs ys zs
1 1 .489151 .990541 .540417
2 1 .988467 .630867 .524352
3 1 .810344 .022751 .486806
4 1 .202408 .009157 .473976
5 1 .008175 .607316 .479623
6 1 .492744 .442799 .989927
7 1 .511622 .463373 .007918
ITEM: TIMESTEP
300
ITEM: NUMBER OF ATOMS
7
ITEM: BOX BOUNDS ss ss ss
-2.9054 3.4106
-2.9239 3.0967
-2.2546 1.7266
ITEM: ATOMS id type xs ys zs
1 1 .490701 .992791 .544280
2 1 .990895 .629293 .526676
3 1 .810820 .024380 .488160
4 1 .204707 .008186 .475223
5 1 .007042 .607822 .480637
6 1 .492612 .439840 .993016
7 1 .509344 .467303 .016322
ITEM: TIMESTEP
350
ITEM: NUMBER OF ATOMS
7
ITEM: BOX BOUNDS ss ss ss
-2.9111 3.4172
-2.9301 3.1013
-2.2487 1.7390
ITEM: ATOMS id type xs ys zs
1 1 .490591 .991649 .542321
2 1 .988870 .629619 .526180
3 1 .809269 .025143 .483725
4 1 .206427 .010430 .471516
5 1 .009698 .609484 .478277
6 1 .492600 .440217 .991665
7 1 .510048 .468186 .012290
ITEM: TIMESTEP
400
ITEM: NUMBER OF ATOMS
7
ITEM: BOX BOUNDS ss ss ss
-2.9151 3.4069
-2.9291 3.0989
-2.2557 1.7368
ITEM: ATOMS id type xs ys zs
1 1 .492372 .992503 .542588
2 1 .989394 .627893 .530100
3 1 .812000 .023314 .486827
4 1 .208876 .010528 .471745
5 1 .010622 .611251 .481188
6 1 .494884 .439425 .990889
7 1 .509216 .469250 .014661
ITEM: TIMESTEP
1
ITEM: NUMBER OF ATOMS
7
ITEM: BOX BOUNDS ss ss ss
-2.8907 3.3759
-2.8989 3.0903
-2.2330 1.7205
ITEM: ATOMS id type xs ys zs
1 1 .491747 .991371 .539006
2 1 .997194 .631188 .518187
3 1 .815816 .018549 .491472
4 1 .199906 .000776 .475032
5 1 .004381 .605430 .470841
6 1 .496581 .443239 .988324
7 1 .517051 .469954 .011771
ITEM: TIMESTEP
50
ITEM: NUMBER OF ATOMS
7
ITEM: BOX BOUNDS ss ss ss
-2.8924 3.3938
-2.9264 3.0903
-2.2330 1.7205
ITEM: ATOMS id type xs ys zs
1 1 .490443 .993118 .538355
2 1 .994134 .633377 .519440
3 1 .811664 .022999 .489861
4 1 .199999 .005114 .473717
5 1 .005020 .606851 .471849
6 1 .494413 .444618 .987444
7 1 .515242 .470585 .012236
ITEM: TIMESTEP
100
ITEM: NUMBER OF ATOMS
7
ITEM: BOX BOUNDS ss ss ss
-2.9003 3.3997
-2.9348 3.0903
-2.2330 1.7205
ITEM: ATOMS id type xs ys zs
1 1 .491818 .994479 .539732
2 1 .994565 .632014 .517927
3 1 .812241 .025309 .492102
4 1 .202217 .009284 .475153
5 1 .006612 .607323 .471600
6 1 .495136 .445691 .989430
7 1 .514509 .470806 .010154
ITEM: TIMESTEP
150
ITEM: NUMBER OF ATOMS
7
ITEM: BOX BOUNDS ss ss ss
-2.9044 3.4095
-2.9394 3.0956
-2.2330 1.7205
ITEM: ATOMS id type xs ys zs
1 1 .490652 .993313 .540023
2 1 .992147 .632296 .517579
3 1 .809866 .026505 .492157
4 1 .203673 .008233 .476135
5 1 .008111 .604642 .472185
6 1 .494334 .443681 .991655
7 1 .513838 .467901 .009952
ITEM: TIMESTEP
200
ITEM: NUMBER OF ATOMS
7
ITEM: BOX BOUNDS ss ss ss
-2.9043 3.4105
-2.9347 3.1043
-2.2386 1.7205
ITEM: ATOMS id type xs ys zs
1 1 .489893 .991825 .540301
2 1 .991869 .630560 .522180
3 1 .810240 .024371 .494981
4 1 .205075 .007604 .477615
5 1 .008506 .603428 .472870
6 1 .492660 .442719 .990573
7 1 .513827 .466553 .010202
ITEM: TIMESTEP
250
ITEM: NUMBER OF ATOMS
7
ITEM: BOX BOUNDS ss ss ss
-2.9006 3.4121
-2.9535 3.1036
-2.2468 1.7208
ITEM: ATOMS id type xs ys zs
1 1 .489087 .991596 .540875
2 1 .991178 .628470 .522187
3 1 .811622 .026857 .492652
4 1 .206547 .011070 .477896
5 1 .008304 .605835 .474334
6 1 .494209 .445147 .993860
7 1 .513640 .468281 .010921
ITEM: TIMESTEP
300
ITEM: NUMBER OF ATOMS
7
ITEM: BOX BOUNDS ss ss ss
-2.9019 3.4094
-2.9493 3.1141
-2.2438 1.7240
ITEM: ATOMS id type xs ys zs
1 1 .489344 .988879 .540068
2 1 .991079 .628402 .524597
3 1 .812175 .027543 .495094
4 1 .206473 .011957 .475674
5 1 .007602 .604436 .473330
6 1 .492461 .445292 .991772
7 1 .512399 .466624 .010497
ITEM: TIMESTEP
350
ITEM: NUMBER OF ATOMS
7
ITEM: BOX BOUNDS ss ss ss
-2.8962 3.4148
-2.9417 3.1101
-2.2447 1.7354
ITEM: ATOMS id type xs ys zs
1 1 .490442 .989511 .536228
2 1 .989896 .628263 .524330
3 1 .809236 .026371 .489323
4 1 .205236 .013012 .471994
5 1 .006327 .605822 .470864
6 1 .490289 .441944 .990188
7 1 .511559 .465712 .010670
ITEM: TIMESTEP
400
ITEM: NUMBER OF ATOMS
7
ITEM: BOX BOUNDS ss ss ss
-2.8965 3.4068
-2.9340 3.1026
-2.2556 1.7441
ITEM: ATOMS id type xs ys zs
1 1 .490473 .991498 .538106
2 1 .990076 .629665 .526164
3 1 .809517 .026853 .494346
4 1 .203769 .012432 .474608
5 1 .007316 .606795 .474419
6 1 .492031 .444277 .989483
7 1 .510375 .466655 .011380
ITEM: TIMESTEP
1
ITEM: NUMBER OF ATOMS
7
ITEM: BOX BOUNDS ss ss ss
-2.8862 3.3881
-2.9104 3.0786
-2.2319 1.7255
ITEM: ATOMS id type xs ys zs
1 1 .490479 .993278 .538278
2 1 .995360 .633210 .517296
3 1 .814095 .020524 .490704
4 1 .199041 .002766 .474349
5 1 .003624 .607373 .470055
6 1 .495255 .445235 .987042
7 1 .515640 .471967 .011516
ITEM: TIMESTEP
50
ITEM: NUMBER OF ATOMS
7
ITEM: BOX BOUNDS ss ss ss
-2.8970 3.3904
-2.9231 3.0786
-2.2319 1.7255
ITEM: ATOMS id type xs ys zs
1 1 .491302 .993368 .537236
2 1 .996119 .631068 .518253
3 1 .813510 .022159 .488951
4 1 .200043 .007608 .473685
5 1 .005761 .606617 .470949
6 1 .495545 .445832 .988096
7 1 .515539 .470366 .011353
ITEM: TIMESTEP
100
ITEM: NUMBER OF ATOMS
7
ITEM: BOX BOUNDS ss ss ss
-2.9073 3.4059
-2.9249 3.0786
-2.2319 1.7255
ITEM: ATOMS id type xs ys zs
1 1 .491889 .993528 .536498
2 1 .993642 .631347 .518138
3 1 .811717 .023494 .491573
4 1 .202958 .009552 .476671
5 1 .008421 .607133 .470219
6 1 .493543 .446087 .988571
7 1 .512645 .469980 .009585
ITEM: TIMESTEP
150
ITEM: NUMBER OF ATOMS
7
ITEM: BOX BOUNDS ss ss ss
-2.9112 3.4213
-2.9339 3.0833
-2.2341 1.7255
ITEM: ATOMS id type xs ys zs
1 1 .490053 .992369 .536729
2 1 .989469 .631082 .517706
3 1 .810221 .023269 .493936
4 1 .203984 .012397 .476959
5 1 .009067 .608733 .473249
6 1 .491957 .447019 .989582
7 1 .513295 .468438 .010421
ITEM: TIMESTEP
200
ITEM: NUMBER OF ATOMS
7
ITEM: BOX BOUNDS ss ss ss
-2.9126 3.4232
-2.9261 3.0984
-2.2323 1.7255
ITEM: ATOMS id type xs ys zs
1 1 .490950 .992405 .531917
2 1 .990389 .631820 .518156
3 1 .809693 .025219 .490236
4 1 .202165 .006961 .473700
5 1 .009409 .604889 .472157
6 1 .494736 .442392 .985962
7 1 .510834 .464924 .008340
ITEM: TIMESTEP
250
ITEM: NUMBER OF ATOMS
7
ITEM: BOX BOUNDS ss ss ss
-2.9212 3.4218
-2.9326 3.1028
-2.2390 1.7320
ITEM: ATOMS id type xs ys zs
1 1 .493579 .989449 .532042
2 1 .990642 .631693 .519002
3 1 .809632 .025911 .486170
4 1 .205207 .011683 .474211
5 1 .010885 .608274 .471557
6 1 .494746 .442576 .991195
7 1 .512865 .464404 .010248
ITEM: TIMESTEP
300
ITEM: NUMBER OF ATOMS
7
ITEM: BOX BOUNDS ss ss ss
-2.9121 3.4279
-2.9291 3.1028
-2.2488 1.7288
ITEM: ATOMS id type xs ys zs
1 1 .491757 .989506 .533489
2 1 .987529 .630683 .521039
3 1 .809169 .026592 .487454
4 1 .204107 .012101 .475721
5 1 .009055 .608296 .471911
6 1 .491933 .442199 .992536
7 1 .510511 .462629 .012684
ITEM: TIMESTEP
350
ITEM: NUMBER OF ATOMS
7
ITEM: BOX BOUNDS ss ss ss
-2.9175 3.4205
-2.9368 3.1020
-2.2614 1.7347
ITEM: ATOMS id type xs ys zs
1 1 .492201 .989976 .534560
2 1 .989399 .631158 .521291
3 1 .810490 .025779 .489423
4 1 .204980 .012788 .479156
5 1 .009890 .608850 .472841
6 1 .494217 .443116 .989472
7 1 .511481 .464248 .013762
ITEM: TIMESTEP
400
ITEM: NUMBER OF ATOMS
7
ITEM: BOX BOUNDS ss ss ss
-2.9150 3.4230
-2.9274 3.0944
-2.2578 1.7430
ITEM: ATOMS id type xs ys zs
1 1 .491494 .991741 .531711
2 1 .987456 .632551 .519494
3 1 .809607 .023245 .486605
4 1 .206274 .014465 .478345
5 1 .011692 .610257 .473104
6 1 .495376 .443441 .988827
7 1 .510901 .463594 .013390
ITEM: TIMESTEP
1
ITEM: NUMBER OF ATOMS
7
ITEM: BOX BOUNDS ss ss ss
-2.8890 3.3824
-2.9058 3.0686
-2.2320 1.7156
ITEM: ATOMS id type xs ys zs
1 1 .491095 .994938 .539567
2 1 .996309 .633955 .518626
3 1 .814868 .019784 .492030
4 1 .199535 .001993 .475481
5 1 .004109 .608118 .471298
6 1 .495893 .445563 .989448
7 1 .516274 .472310 .011659
ITEM: TIMESTEP
50
ITEM: NUMBER OF ATOMS
7
ITEM: BOX BOUNDS ss ss ss
-2.8921 3.3901
-2.9279 3.0686
-2.2320 1.7156
ITEM: ATOMS id type xs ys zs
1 1 .491204 .996180 .539072
2 1 .997156 .636671 .519789
3 1 .812972 .023639 .492704
4 1 .200868 .006985 .476231
5 1 .004289 .608506 .468042
6 1 .493811 .448512 .989415
7 1 .515452 .471335 .012057
ITEM: TIMESTEP
100
ITEM: NUMBER OF ATOMS
7
ITEM: BOX BOUNDS ss ss ss
-2.9090 3.4038
-2.9346 3.0788
-2.2320 1.7156
ITEM: ATOMS id type xs ys zs
1 1 .492795 .994919 .538173
2 1 .994500 .636045 .520320
3 1 .811517 .025665 .493067
4 1 .203413 .009720 .475286
5 1 .006076 .607900 .468984
6 1 .494299 .448309 .988653
7 1 .515641 .469393 .011053
ITEM: TIMESTEP
150
ITEM: NUMBER OF ATOMS
7
ITEM: BOX BOUNDS ss ss ss
-2.9021 3.4201
-2.9249 3.0916
-2.2320 1.7156
ITEM: ATOMS id type xs ys zs
1 1 .488348 .992700 .537996
2 1 .990956 .634565 .521845
3 1 .808532 .025718 .489228
4 1 .201827 .008352 .474732
5 1 .004988 .606083 .471011
6 1 .493118 .445630 .989427
7 1 .510667 .466549 .011205
ITEM: TIMESTEP
200
ITEM: NUMBER OF ATOMS
7
ITEM: BOX BOUNDS ss ss ss
-2.9104 3.4253
-2.9236 3.0929
-2.2353 1.7156
ITEM: ATOMS id type xs ys zs
1 1 .487630 .992786 .537809
2 1 .989494 .634908 .521133
3 1 .808403 .023535 .490026
4 1 .202814 .008571 .473192
5 1 .007884 .605437 .473503
6 1 .493507 .444769 .990604
7 1 .511802 .464485 .010877
ITEM: TIMESTEP
250
ITEM: NUMBER OF ATOMS
7
ITEM: BOX BOUNDS ss ss ss
-2.9139 3.4309
-2.9211 3.0960
-2.2320 1.7156
ITEM: ATOMS id type xs ys zs
1 1 .489210 .993025 .535285
2 1 .989029 .633599 .522501
3 1 .809248 .021340 .489342
4 1 .204350 .009169 .471110
5 1 .008482 .606656 .471985
6 1 .492772 .443963 .989441
7 1 .510904 .462824 .010055
ITEM: TIMESTEP
300
ITEM: NUMBER OF ATOMS
7
ITEM: BOX BOUNDS ss ss ss
-2.9184 3.4156
-2.9301 3.1058
-2.2320 1.7204
ITEM: ATOMS id type xs ys zs
1 1 .491358 .991190 .532701
2 1 .990776 .632352 .522218
3 1 .811190 .023120 .488255
4 1 .205395 .010289 .469802
5 1 .010260 .605816 .472346
6 1 .494873 .444923 .988811
7 1 .512775 .462777 .010402
ITEM: TIMESTEP
350
ITEM: NUMBER OF ATOMS
7
ITEM: BOX BOUNDS ss ss ss
-2.9259 3.4162
-2.9210 3.1052
-2.2372 1.7237
ITEM: ATOMS id type xs ys zs
1 1 .488768 .993532 .533974
2 1 .989204 .630520 .523157
3 1 .810562 .021504 .492043
4 1 .207355 .009802 .473078
5 1 .010247 .605155 .473704
6 1 .495809 .444636 .990533
7 1 .511919 .463009 .012631
ITEM: TIMESTEP
400
ITEM: NUMBER OF ATOMS
7
ITEM: BOX BOUNDS ss ss ss
-2.9170 3.4244
-2.9240 3.1030
-2.2383 1.7314
ITEM: ATOMS id type xs ys zs
1 1 .485592 .995739 .531249
2 1 .986085 .632563 .526138
3 1 .810260 .025665 .492323
4 1 .207092 .012469 .477330
5 1 .008654 .608505 .474008
6 1 .493306 .443959 .988591
7 1 .510788 .465569 .011124
ITEM: TIMESTEP
1
ITEM: NUMBER OF ATOMS
7
ITEM: BOX BOUNDS ss ss ss
-2.8890 3.3860
-2.9058 3.0926
-2.2320 1.7156
ITEM: ATOMS id type xs ys zs
1 1 .490876 .990958 .539530
2 1 .995661 .631344 .518667
3 1 .814426 .019699 .491927
4 1 .199403 .001937 .475564
5 1 .004126 .605681 .471257
6 1 .495652 .443752 .989489
7 1 .516091 .470478 .011586
ITEM: TIMESTEP
50
ITEM: NUMBER OF ATOMS
7
ITEM: BOX BOUNDS ss ss ss
-2.8953 3.3912
-2.9243 3.0926
-2.2320 1.7156
ITEM: ATOMS id type xs ys zs
1 1 .490881 .993126 .537722
2 1 .996314 .633849 .518823
3 1 .814690 .023321 .489846
4 1 .201305 .005147 .474402
5 1 .004044 .607449 .474653
6 1 .497411 .445359 .988729
7 1 .513490 .472071 .010050
ITEM: TIMESTEP
100
ITEM: NUMBER OF ATOMS
7
ITEM: BOX BOUNDS ss ss ss
-2.9036 3.4034
-2.9300 3.0926
-2.2320 1.7156
ITEM: ATOMS id type xs ys zs
1 1 .491703 .992278 .537483
2 1 .996451 .632047 .519939
3 1 .812985 .023256 .493892
4 1 .201709 .007651 .481092
5 1 .007764 .608151 .473532
6 1 .495847 .445546 .988860
7 1 .516146 .467771 .008468
ITEM: TIMESTEP
150
ITEM: NUMBER OF ATOMS
7
ITEM: BOX BOUNDS ss ss ss
-2.9177 3.4167
-2.9317 3.0926
-2.2320 1.7173
ITEM: ATOMS id type xs ys zs
1 1 .490227 .993153 .538192
2 1 .993470 .633235 .519476
3 1 .811902 .023415 .492155
4 1 .203147 .009368 .478706
5 1 .007200 .610721 .472809
6 1 .495953 .447235 .986838
7 1 .514877 .467411 .010139
ITEM: TIMESTEP
200
ITEM: NUMBER OF ATOMS
7
ITEM: BOX BOUNDS ss ss ss
-2.9159 3.4204
-2.9370 3.1130
-2.2320 1.7280
ITEM: ATOMS id type xs ys zs
1 1 .490668 .990932 .535428
2 1 .991006 .628422 .516062
3 1 .807083 .022224 .493541
4 1 .203076 .009320 .476218
5 1 .007050 .604548 .469858
6 1 .493607 .443912 .988025
7 1 .512080 .468182 .012664
ITEM: TIMESTEP
250
ITEM: NUMBER OF ATOMS
7
ITEM: BOX BOUNDS ss ss ss
-2.9099 3.4313
-2.9361 3.1083
-2.2468 1.7258
ITEM: ATOMS id type xs ys zs
1 1 .490929 .990298 .538745
2 1 .991456 .627588 .518286
3 1 .806077 .021679 .492506
4 1 .204651 .012715 .476283
5 1 .010553 .606039 .467474
6 1 .494494 .443196 .989829
7 1 .515044 .469086 .010646
ITEM: TIMESTEP
300
ITEM: NUMBER OF ATOMS
7
ITEM: BOX BOUNDS ss ss ss
-2.9258 3.4367
-2.9338 3.1106
-2.2532 1.7407
ITEM: ATOMS id type xs ys zs
1 1 .491601 .992413 .536516
2 1 .991136 .629885 .522557
3 1 .807516 .022704 .490562
4 1 .206664 .011001 .478733
5 1 .010739 .605580 .467558
6 1 .494727 .445017 .982711
7 1 .513935 .466662 .016104
ITEM: TIMESTEP
350
ITEM: NUMBER OF ATOMS
7
ITEM: BOX BOUNDS ss ss ss
-2.9166 3.4336
-2.9338 3.1151
-2.2409 1.7275
ITEM: ATOMS id type xs ys zs
1 1 .492704 .990199 .536894
2 1 .995686 .626058 .520983
3 1 .808987 .022867 .500874
4 1 .206503 .011671 .472262
5 1 .013095 .607414 .470940
6 1 .497905 .444943 .985617
7 1 .515371 .465281 .011290
ITEM: TIMESTEP
400
ITEM: NUMBER OF ATOMS
7
ITEM: BOX BOUNDS ss ss ss
-2.9104 3.4388
-2.9161 3.1195
-2.2452 1.7256
ITEM: ATOMS id type xs ys zs
1 1 .491720 .991309 .535801
2 1 .994471 .624167 .524496
3 1 .809538 .019016 .499162
4 1 .206493 .009143 .473449
5 1 .012111 .608035 .472967
6 1 .496543 .443773 .987146
7 1 .512830 .462257 .012043
ITEM: TIMESTEP
1
ITEM: NUMBER OF ATOMS
7
ITEM: BOX BOUNDS ss ss ss
-2.8890 3.4199
-2.9058 3.0862
-2.2320 1.7156
ITEM: ATOMS id type xs ys zs
1 1 .488193 .992001 .539551
2 1 .990336 .632010 .518625
3 1 .810044 .019684 .491944
4 1 .198366 .001939 .475562
5 1 .004076 .606293 .471295
6 1 .492978 .444217 .989428
7 1 .513309 .471011 .011590
ITEM: TIMESTEP
50
ITEM: NUMBER OF ATOMS
7
ITEM: BOX BOUNDS ss ss ss
-2.8980 3.4199
-2.9282 3.0862
-2.2320 1.7156
ITEM: ATOMS id type xs ys zs
1 1 .490822 .995449 .538175
2 1 .990177 .633317 .519285
3 1 .810177 .023623 .492345
4 1 .201706 .006189 .477725
5 1 .005321 .608394 .469597
6 1 .492815 .445289 .990248
7 1 .513135 .473487 .010475
ITEM: TIMESTEP
100
ITEM: NUMBER OF ATOMS
7
ITEM: BOX BOUNDS ss ss ss
-2.9060 3.4199
-2.9345 3.0862
-2.2320 1.7156
ITEM: ATOMS id type xs ys zs
1 1 .489691 .994481 .542080
2 1 .992986 .633095 .521178
3 1 .811485 .026157 .491696
4 1 .201974 .007889 .475521
5 1 .007296 .610887 .475400
6 1 .493370 .445316 .989336
7 1 .513407 .471591 .015620
ITEM: TIMESTEP
150
ITEM: NUMBER OF ATOMS
7
ITEM: BOX BOUNDS ss ss ss
-2.9091 3.4325
-2.9308 3.0928
-2.2320 1.7156
ITEM: ATOMS id type xs ys zs
1 1 .489350 .994547 .540974
2 1 .989390 .631924 .520380
3 1 .806509 .025965 .488999
4 1 .201718 .007110 .477242
5 1 .008052 .609436 .472676
6 1 .492702 .443069 .988584
7 1 .511653 .468917 .010089
ITEM: TIMESTEP
200
ITEM: NUMBER OF ATOMS
7
ITEM: BOX BOUNDS ss ss ss
-2.9126 3.4388
-2.9400 3.1024
-2.2389 1.7214
ITEM: ATOMS id type xs ys zs
1 1 .489445 .993254 .540500
2 1 .989189 .631607 .518291
3 1 .804666 .025897 .487351
4 1 .201997 .009052 .476154
5 1 .008000 .609593 .478214
6 1 .492707 .441073 .985794
7 1 .510857 .468750 .012789
ITEM: TIMESTEP
250
ITEM: NUMBER OF ATOMS
7
ITEM: BOX BOUNDS ss ss ss
-2.9155 3.4330
-2.9361 3.1168
-2.2441 1.7156
ITEM: ATOMS id type xs ys zs
1 1 .489391 .991854 .545118
2 1 .990733 .630463 .521059
3 1 .806404 .025463 .489889
4 1 .206220 .011053 .476535
5 1 .009797 .609868 .471690
6 1 .493071 .444591 .991374
7 1 .511949 .469069 .014185
ITEM: TIMESTEP
300
ITEM: NUMBER OF ATOMS
7
ITEM: BOX BOUNDS ss ss ss
-2.9156 3.4270
-2.9485 3.1171
-2.2336 1.7214
ITEM: ATOMS id type xs ys zs
1 1 .490308 .992204 .544423
2 1 .993070 .629347 .520601
3 1 .809918 .027239 .487743
4 1 .207630 .013559 .472538
5 1 .010162 .610599 .469928
6 1 .494497 .445383 .991743
7 1 .513141 .469293 .010281
ITEM: TIMESTEP
350
ITEM: NUMBER OF ATOMS
7
ITEM: BOX BOUNDS ss ss ss
-2.9047 3.4296
-2.9388 3.1187
-2.2416 1.7223
ITEM: ATOMS id type xs ys zs
1 1 .488539 .994551 .542500
2 1 .990474 .628659 .522169
3 1 .808653 .024481 .485819
4 1 .207027 .012804 .471324
5 1 .010289 .609856 .470395
6 1 .491626 .445597 .993456
7 1 .512953 .468520 .012391
ITEM: TIMESTEP
400
ITEM: NUMBER OF ATOMS
7
ITEM: BOX BOUNDS ss ss ss
-2.9067 3.4304
-2.9362 3.1209
-2.2385 1.7211
ITEM: ATOMS id type xs ys zs
1 1 .488895 .993245 .542619
2 1 .989906 .629673 .521854
3 1 .808358 .023747 .485304
4 1 .206629 .014170 .470109
5 1 .010283 .609835 .469691
6 1 .493110 .446015 .992921
7 1 .514194 .467702 .007234
ITEM: TIMESTEP
1
ITEM: NUMBER OF ATOMS
7
ITEM: BOX BOUNDS ss ss ss
-2.8890 3.4053
-2.9069 3.1022
-2.2320 1.7156
ITEM: ATOMS id type xs ys zs
1 1 .489351 .989375 .539546
2 1 .992630 .630392 .518632
3 1 .811921 .019813 .491931
4 1 .198841 .002144 .475540
5 1 .004094 .604766 .471288
6 1 .494093 .443151 .989507
7 1 .514524 .469819 .011576
ITEM: TIMESTEP
50
ITEM: NUMBER OF ATOMS
7
ITEM: BOX BOUNDS ss ss ss
-2.8936 3.4053
-2.9276 3.1022
-2.2320 1.7156
ITEM: ATOMS id type xs ys zs
1 1 .490484 .990859 .537947
2 1 .993614 .631853 .519860
3 1 .811621 .022998 .492583
4 1 .200695 .006413 .474287
5 1 .004616 .605625 .471363
6 1 .494774 .445997 .989584
7 1 .514229 .470453 .012896
ITEM: TIMESTEP
100
ITEM: NUMBER OF ATOMS
7
ITEM: BOX BOUNDS ss ss ss
-2.8999 3.4054
-2.9355 3.1022
-2.2320 1.7156
ITEM: ATOMS id type xs ys zs
1 1 .490467 .989575 .541841
2 1 .992027 .631469 .517433
3 1 .810697 .024955 .491695
4 1 .199842 .007870 .477737
5 1 .004397 .605091 .471671
6 1 .496310 .442227 .986493
7 1 .511910 .469257 .005511
ITEM: TIMESTEP
150
ITEM: NUMBER OF ATOMS
7
ITEM: BOX BOUNDS ss ss ss
-2.9047 3.4144
-2.9468 3.1022
-2.2378 1.7156
ITEM: ATOMS id type xs ys zs
1 1 .489586 .991176 .544441
2 1 .990588 .630578 .520328
3 1 .809866 .026389 .492380
4 1 .201544 .009426 .478681
5 1 .005313 .606127 .470902
6 1 .495177 .442001 .984953
7 1 .511245 .469305 .008433
ITEM: TIMESTEP
200
ITEM: NUMBER OF ATOMS
7
ITEM: BOX BOUNDS ss ss ss
-2.9072 3.4311
-2.9419 3.1022
-2.2389 1.7156
ITEM: ATOMS id type xs ys zs
1 1 .487653 .992787 .546888
2 1 .984336 .631507 .521727
3 1 .807434 .025818 .489423
4 1 .200411 .009708 .479218
5 1 .007940 .607096 .473897
6 1 .492076 .441524 .988567
7 1 .510063 .468092 .009638
ITEM: TIMESTEP
250
ITEM: NUMBER OF ATOMS
7
ITEM: BOX BOUNDS ss ss ss
-2.9137 3.4374
-2.9334 3.1071
-2.2460 1.7156
ITEM: ATOMS id type xs ys zs
1 1 .487545 .991260 .547083
2 1 .983063 .630396 .520608
3 1 .806750 .024282 .491287
4 1 .202102 .009308 .481371
5 1 .007907 .606854 .475213
6 1 .493174 .440400 .990243
7 1 .509303 .465958 .011734
ITEM: TIMESTEP
300
ITEM: NUMBER OF ATOMS
7
ITEM: BOX BOUNDS ss ss ss
-2.9095 3.4317
-2.9276 3.1173
-2.2413 1.7156
ITEM: ATOMS id type xs ys zs
1 1 .487272 .988627 .547304
2 1 .983748 .628352 .522178
3 1 .805605 .021203 .488885
4 1 .201811 .008606 .480719
5 1 .007429 .605028 .476368
6 1 .491877 .437337 .991799
7 1 .508941 .464416 .011472
ITEM: TIMESTEP
350
ITEM: NUMBER OF ATOMS
7
ITEM: BOX BOUNDS ss ss ss
-2.8994 3.4197
-2.9366 3.1159
-2.2470 1.7288
ITEM: ATOMS id type xs ys zs
1 1 .489108 .990554 .541631