ITEM: TIMESTEP
1
ITEM: NUMBER OF ATOMS
7
ITEM: BOX BOUNDS ss ss ss
-2.8672 3.3636
-2.8984 3.0409
-2.1898 1.6780
ITEM: ATOMS id type xs ys zs
1 1 .490603 .999678 .539923
2 1 .999296 .636576 .518813
3 1 .816413 .018534 .491123
4 1 .197258 .000408 .474488
5 1 .000905 .610227 .469699
6 1 .495618 .447194 .998239
7 1 .516613 .474104 .001359
ITEM: TIMESTEP
50
ITEM: NUMBER OF ATOMS
7
ITEM: BOX BOUNDS ss ss ss
-2.8895 3.3914
-2.9206 3.0673
-2.2147 1.6998
ITEM: ATOMS id type xs ys zs
1 1 .491112 .994864 .537425
2 1 .997140 .635365 .519538
3 1 .811736 .019996 .493679
4 1 .198799 .003892 .474347
5 1 .004667 .608741 .472635
6 1 .494563 .444662 .991902
7 1 .514605 .472810 .004760
ITEM: TIMESTEP
100
ITEM: NUMBER OF ATOMS
7
ITEM: BOX BOUNDS ss ss ss
-2.8939 3.4031
-2.9200 3.0785
-2.2227 1.7114
ITEM: ATOMS id type xs ys zs
1 1 .488552 .994069 .540039
2 1 .994577 .633636 .520656
3 1 .813050 .024922 .490196
4 1 .198066 .003973 .476643
5 1 .003969 .605902 .467763
6 1 .493446 .444871 .991589
7 1 .512849 .471424 .008652
ITEM: TIMESTEP
150
ITEM: NUMBER OF ATOMS
7
ITEM: BOX BOUNDS ss ss ss
-2.8964 3.4102
-2.9249 3.0881
-2.2307 1.7109
ITEM: ATOMS id type xs ys zs
1 1 .492127 .994820 .540686
2 1 .990666 .633744 .524729
3 1 .809011 .019838 .489123
4 1 .201099 .008682 .476796
5 1 .008255 .607012 .465445
6 1 .492539 .443459 .991763
7 1 .513642 .470869 .007705
ITEM: TIMESTEP
200
ITEM: NUMBER OF ATOMS
7
ITEM: BOX BOUNDS ss ss ss
-2.9034 3.4132
-2.9172 3.0947
-2.2273 1.7128
ITEM: ATOMS id type xs ys zs
1 1 .487944 .992548 .533263
2 1 .992202 .629121 .520297
3 1 .813890 .020005 .491611
4 1 .202897 .010896 .475949
5 1 .007179 .605700 .473156
6 1 .494567 .445400 .993301
7 1 .513559 .465110 .008248
ITEM: TIMESTEP
250
ITEM: NUMBER OF ATOMS
7
ITEM: BOX BOUNDS ss ss ss
-2.8991 3.4095
-2.9244 3.0926
-2.2324 1.7260
ITEM: ATOMS id type xs ys zs
1 1 .487935 .993937 .531573
2 1 .994531 .631535 .518985
3 1 .814249 .021437 .493394
4 1 .203387 .011967 .476123
5 1 .006424 .607049 .471512
6 1 .492207 .445610 .990182
7 1 .514590 .466943 .007569
ITEM: TIMESTEP
300
ITEM: NUMBER OF ATOMS
7
ITEM: BOX BOUNDS ss ss ss
-2.9096 3.4187
-2.9183 3.0999
-2.2394 1.7365
ITEM: ATOMS id type xs ys zs
1 1 .491376 .991655 .531651
2 1 .990521 .632165 .518631
3 1 .809499 .025553 .490935
4 1 .204037 .008352 .474491
5 1 .006974 .608088 .472421
6 1 .494100 .447410 .986457
7 1 .511605 .466576 .006584
ITEM: TIMESTEP
350
ITEM: NUMBER OF ATOMS
7
ITEM: BOX BOUNDS ss ss ss
-2.9111 3.4086
-2.9192 3.1115
-2.2423 1.7352
ITEM: ATOMS id type xs ys zs
1 1 .490613 .993540 .536234
2 1 .992834 .631696 .527175
3 1 .815671 .024384 .490467
4 1 .206914 .007155 .463605
5 1 .011042 .607291 .476315
6 1 .496412 .439215 .981032
7 1 .513921 .462555 .013327
ITEM: TIMESTEP
400
ITEM: NUMBER OF ATOMS
7
ITEM: BOX BOUNDS ss ss ss
-2.9086 3.4082
-2.9186 3.1099
-2.2390 1.7352
ITEM: ATOMS id type xs ys zs
1 1 .490783 .993330 .538084
2 1 .993174 .631406 .525476
3 1 .814580 .024340 .491197
4 1 .205218 .006873 .461551
5 1 .010601 .610175 .474172
6 1 .497100 .440488 .981318
7 1 .514183 .460905 .013415
ITEM: TIMESTEP
1
ITEM: NUMBER OF ATOMS
7
ITEM: BOX BOUNDS ss ss ss
-2.8858 3.3742
-2.9039 3.0761
-2.2295 1.7230
ITEM: ATOMS id type xs ys zs
1 1 .491274 .993378 .538651
2 1 .997490 .632543 .517466
3 1 .815949 .019375 .490918
4 1 .199267 .001258 .474668
5 1 .003602 .607322 .469870
6 1 .496306 .444909 .987479
7 1 .516818 .471749 .010881
ITEM: TIMESTEP
50
ITEM: NUMBER OF ATOMS
7
ITEM: BOX BOUNDS ss ss ss
-2.8899 3.3892
-2.9250 3.0761
-2.2295 1.7230
ITEM: ATOMS id type xs ys zs
1 1 .488156 .993664 .539214
2 1 .994696 .635116 .516136
3 1 .813462 .022161 .490298
4 1 .201243 .005739 .472798
5 1 .003769 .607458 .470202
6 1 .498472 .447201 .985951
7 1 .514633 .471930 .007644
ITEM: TIMESTEP
100
ITEM: NUMBER OF ATOMS
7
ITEM: BOX BOUNDS ss ss ss
-2.8971 3.4067
-2.9313 3.0809
-2.2295 1.7230
ITEM: ATOMS id type xs ys zs
1 1 .489476 .995142 .540154
2 1 .992578 .636276 .514082
3 1 .808390 .022213 .491101
4 1 .199875 .004491 .475593
5 1 .007990 .607634 .472804
6 1 .493621 .448192 .987768
7 1 .515676 .473545 .010188
ITEM: TIMESTEP
150
ITEM: NUMBER OF ATOMS
7
ITEM: BOX BOUNDS ss ss ss
-2.9046 3.4069
-2.9202 3.0911
-2.2295 1.7230
ITEM: ATOMS id type xs ys zs
1 1 .491590 .990920 .544680
2 1 .993393 .633178 .515314
3 1 .811204 .025314 .492855
4 1 .201798 .006670 .474876
5 1 .008161 .606586 .473464
6 1 .495584 .443280 .988577
7 1 .515992 .469457 .009803
ITEM: TIMESTEP
200
ITEM: NUMBER OF ATOMS
7
ITEM: BOX BOUNDS ss ss ss
-2.8973 3.4127
-2.9138 3.0935
-2.2327 1.7236
ITEM: ATOMS id type xs ys zs
1 1 .488614 .995170 .547098
2 1 .993467 .632304 .515921
3 1 .810269 .024623 .492509
4 1 .201922 .007988 .476716
5 1 .006132 .611855 .473298
6 1 .492717 .444036 .986503
7 1 .511963 .466201 .013379
ITEM: TIMESTEP
250
ITEM: NUMBER OF ATOMS
7
ITEM: BOX BOUNDS ss ss ss
-2.9036 3.4120
-2.9102 3.1072
-2.2329 1.7230
ITEM: ATOMS id type xs ys zs
1 1 .489929 .989294 .540756
2 1 .989879 .630589 .519122
3 1 .810425 .017046 .490957
4 1 .202315 .008543 .473791
5 1 .008334 .606789 .474121
6 1 .493675 .441746 .989821
7 1 .513307 .465158 .009689
ITEM: TIMESTEP
300
ITEM: NUMBER OF ATOMS
7
ITEM: BOX BOUNDS ss ss ss
-2.8979 3.4076
-2.9134 3.1106
-2.2417 1.7313
ITEM: ATOMS id type xs ys zs
1 1 .488389 .994630 .547927
2 1 .988703 .633834 .516625
3 1 .809784 .024779 .486342
4 1 .204749 .011087 .477149
5 1 .012337 .606196 .475402
6 1 .497706 .438841 .992005
7 1 .510851 .464122 .011535
ITEM: TIMESTEP
350
ITEM: NUMBER OF ATOMS
7
ITEM: BOX BOUNDS ss ss ss
-2.9047 3.4133
-2.9086 3.1071
-2.2394 1.7379
ITEM: ATOMS id type xs ys zs
1 1 .487275 .996866 .542893
2 1 .986946 .631635 .528043
3 1 .809317 .019213 .485058
4 1 .203357 .007017 .481245
5 1 .012091 .609206 .470586
6 1 .494790 .439621 .986898
7 1 .511206 .461409 .018264
ITEM: TIMESTEP
400
ITEM: NUMBER OF ATOMS
7
ITEM: BOX BOUNDS ss ss ss
-2.8999 3.4013
-2.9196 3.1095
-2.2559 1.7441
ITEM: ATOMS id type xs ys zs
1 1 .489448 .986930 .551326
2 1 .991305 .630227 .520317
3 1 .812918 .022477 .486491
4 1 .207384 .008682 .470938
5 1 .008250 .606998 .475247
6 1 .499362 .436785 .986362
7 1 .510088 .461847 .015296
ITEM: TIMESTEP
1
ITEM: NUMBER OF ATOMS
7
ITEM: BOX BOUNDS ss ss ss
-2.8858 3.3827
-2.9039 3.0899
-2.2307 1.7329
ITEM: ATOMS id type xs ys zs
1 1 .490759 .991012 .536975
2 1 .996227 .631523 .515970
3 1 .814628 .019605 .489683
4 1 .199128 .001483 .473358
5 1 .003372 .605727 .468919
6 1 .495653 .443998 .984898
7 1 .516259 .470654 .011769
ITEM: TIMESTEP
50
ITEM: NUMBER OF ATOMS
7
ITEM: BOX BOUNDS ss ss ss
-2.8903 3.3892
-2.9199 3.0899
-2.2307 1.7329
ITEM: ATOMS id type xs ys zs
1 1 .491148 .990771 .539442
2 1 .996600 .631966 .514469
3 1 .814997 .022313 .487814
4 1 .197338 .003785 .476000
5 1 .005574 .607234 .465425
6 1 .496096 .445153 .985802
7 1 .516290 .471397 .010929
ITEM: TIMESTEP
100
ITEM: NUMBER OF ATOMS
7
ITEM: BOX BOUNDS ss ss ss
-2.8989 3.4089
-2.9274 3.0899
-2.2307 1.7329
ITEM: ATOMS id type xs ys zs
1 1 .488294 .992580 .536403
2 1 .995365 .634303 .513131
3 1 .813354 .024689 .488677
4 1 .200637 .007813 .474799
5 1 .005563 .604310 .466452
6 1 .491961 .442181 .984780
7 1 .517312 .472419 .009550
ITEM: TIMESTEP
150
ITEM: NUMBER OF ATOMS
7
ITEM: BOX BOUNDS ss ss ss
-2.9043 3.4107
-2.9327 3.0900
-2.2307 1.7329
ITEM: ATOMS id type xs ys zs
1 1 .489198 .993509 .541455
2 1 .994288 .631441 .515750
3 1 .807315 .026182 .490965
4 1 .201976 .007001 .474683
5 1 .006406 .605412 .466675
6 1 .494739 .441554 .986464
7 1 .512697 .472712 .007224
ITEM: TIMESTEP
200
ITEM: NUMBER OF ATOMS
7
ITEM: BOX BOUNDS ss ss ss
-2.9033 3.4167
-2.9298 3.1013
-2.2429 1.7329
ITEM: ATOMS id type xs ys zs
1 1 .487898 .990963 .543198
2 1 .992694 .631100 .517860
3 1 .805316 .025131 .492383
4 1 .200733 .005182 .477357
5 1 .006701 .604237 .470845
6 1 .494290 .438588 .984696
7 1 .513328 .471943 .005080
ITEM: TIMESTEP
250
ITEM: NUMBER OF ATOMS
7
ITEM: BOX BOUNDS ss ss ss
-2.9033 3.4167
-2.9267 3.1048
-2.2431 1.7329
ITEM: ATOMS id type xs ys zs
1 1 .490418 .987652 .541904
2 1 .995319 .627163 .521707
3 1 .807957 .022570 .494617
4 1 .204109 .012738 .478850
5 1 .006610 .607207 .464246
6 1 .495526 .443941 .986684
7 1 .512912 .467896 .012875
ITEM: TIMESTEP
300
ITEM: NUMBER OF ATOMS
7
ITEM: BOX BOUNDS ss ss ss
-2.9064 3.4157
-2.9269 3.1117
-2.2495 1.7283
ITEM: ATOMS id type xs ys zs
1 1 .491380 .987848 .539841
2 1 .997385 .627747 .519749
3 1 .807618 .020107 .491246
4 1 .203656 .012312 .479539
5 1 .008327 .606757 .468085
6 1 .492767 .443710 .984830
7 1 .513353 .467801 .015102
ITEM: TIMESTEP
350
ITEM: NUMBER OF ATOMS
7
ITEM: BOX BOUNDS ss ss ss
-2.9009 3.4104
-2.9229 3.1097
-2.2533 1.7281
ITEM: ATOMS id type xs ys zs
1 1 .484667 .988052 .543625
2 1 .990522 .631344 .524848
3 1 .809661 .020098 .486013
4 1 .204165 .009609 .473857
5 1 .008756 .603361 .470716
6 1 .495166 .441584 .988778
7 1 .512219 .465599 .007964
ITEM: TIMESTEP
400
ITEM: NUMBER OF ATOMS
7
ITEM: BOX BOUNDS ss ss ss
-2.9043 3.3989
-2.9196 3.1044
-2.2557 1.7270
ITEM: ATOMS id type xs ys zs
1 1 .485619 .988981 .544157
2 1 .993392 .631759 .525628
3 1 .812066 .020907 .486112
4 1 .206307 .009955 .477308
5 1 .009702 .602016 .471219
6 1 .496043 .440943 .989444
7 1 .514893 .465021 .007606
ITEM: TIMESTEP
1
ITEM: NUMBER OF ATOMS
7
ITEM: BOX BOUNDS ss ss ss
-2.8907 3.3759
-2.8985 3.0903
-2.2330 1.7130
ITEM: ATOMS id type xs ys zs
1 1 .491992 .991378 .539948
2 1 .997217 .630886 .519201
3 1 .815904 .018449 .492604
4 1 .199551 .000619 .476226
5 1 .004347 .605477 .471254
6 1 .496598 .443142 .989883
7 1 .517222 .470113 .011581
ITEM: TIMESTEP
50
ITEM: NUMBER OF ATOMS
7
ITEM: BOX BOUNDS ss ss ss
-2.8916 3.3876
-2.9220 3.0903
-2.2330 1.7130
ITEM: ATOMS id type xs ys zs
1 1 .490566 .992225 .539631
2 1 .997817 .632805 .520235
3 1 .814463 .024187 .493390
4 1 .198291 .004735 .476640
5 1 .004702 .607765 .470760
6 1 .496881 .445737 .992258
7 1 .515322 .471585 .011380
ITEM: TIMESTEP
100
ITEM: NUMBER OF ATOMS
7
ITEM: BOX BOUNDS ss ss ss
-2.8952 3.4104
-2.9237 3.0903
-2.2330 1.7145
ITEM: ATOMS id type xs ys zs
1 1 .489614 .992432 .542603
2 1 .995036 .631031 .518181
3 1 .810405 .023492 .489805
4 1 .200352 .006755 .476482
5 1 .005387 .606171 .471106
6 1 .492405 .441615 .992787
7 1 .513628 .471144 .010409
ITEM: TIMESTEP
150
ITEM: NUMBER OF ATOMS
7
ITEM: BOX BOUNDS ss ss ss
-2.9010 3.4093
-2.9223 3.0903
-2.2330 1.7176
ITEM: ATOMS id type xs ys zs
1 1 .489528 .993244 .544240
2 1 .996409 .630891 .518781
3 1 .810512 .025579 .488058
4 1 .199272 .005703 .476546
5 1 .007665 .607355 .468564
6 1 .495569 .442145 .988813
7 1 .513856 .471088 .011145
ITEM: TIMESTEP
200
ITEM: NUMBER OF ATOMS
7
ITEM: BOX BOUNDS ss ss ss
-2.9038 3.4198
-2.9237 3.0903
-2.2384 1.7184
ITEM: ATOMS id type xs ys zs
1 1 .490754 .992578 .544272
2 1 .993033 .627042 .518554
3 1 .807802 .025767 .491298
4 1 .202044 .010004 .473749
5 1 .006631 .607313 .476005
6 1 .491955 .443550 .988143
7 1 .511818 .466642 .008149
ITEM: TIMESTEP
250
ITEM: NUMBER OF ATOMS
7
ITEM: BOX BOUNDS ss ss ss
-2.9020 3.4192
-2.9280 3.1025
-2.2430 1.7268
ITEM: ATOMS id type xs ys zs
1 1 .491327 .989843 .546394
2 1 .994123 .623027 .516404
3 1 .808934 .025871 .489976
4 1 .201068 .010054 .470905
5 1 .006822 .604025 .475009
6 1 .492151 .443646 .987416
7 1 .511799 .464948 .009659
ITEM: TIMESTEP
300
ITEM: NUMBER OF ATOMS
7
ITEM: BOX BOUNDS ss ss ss
-2.9054 3.4106
-2.9239 3.0967
-2.2546 1.7266
ITEM: ATOMS id type xs ys zs
1 1 .496239 .991459 .545868
2 1 .993570 .625501 .523757
3 1 .809803 .022430 .489218
4 1 .206928 .009288 .474747
5 1 .007288 .607064 .475883
6 1 .491714 .440535 .988420
7 1 .510095 .468113 .014272
ITEM: TIMESTEP
350
ITEM: NUMBER OF ATOMS
7
ITEM: BOX BOUNDS ss ss ss
-2.9111 3.4172
-2.9301 3.1013
-2.2487 1.7390
ITEM: ATOMS id type xs ys zs
1 1 .497771 .991901 .544316
2 1 .992115 .624625 .519432
3 1 .811208 .021317 .486003
4 1 .208165 .008545 .473969
5 1 .006677 .606543 .475378
6 1 .490561 .440932 .989687
7 1 .510022 .467319 .015339
ITEM: TIMESTEP
400
ITEM: NUMBER OF ATOMS
7
ITEM: BOX BOUNDS ss ss ss
-2.9151 3.4069
-2.9291 3.0989
-2.2557 1.7368
ITEM: ATOMS id type xs ys zs
1 1 .495431 .991026 .543737
2 1 .991053 .628262 .519747
3 1 .811418 .022420 .488981
4 1 .205178 .003959 .470726
5 1 .010561 .602324 .466886
6 1 .492939 .441299 .983639
7 1 .512463 .464496 .017437
ITEM: TIMESTEP
1
ITEM: NUMBER OF ATOMS
7
ITEM: BOX BOUNDS ss ss ss
-2.8907 3.3759
-2.8989 3.0903
-2.2330 1.7205
ITEM: ATOMS id type xs ys zs
1 1 .491912 .991085 .538890
2 1 .997450 .631057 .518304
3 1 .815836 .018545 .491235
4 1 .199937 .000797 .475340
5 1 .004201 .605561 .470487
6 1 .496619 .443569 .987666
7 1 .517124 .470554 .011826
ITEM: TIMESTEP
50
ITEM: NUMBER OF ATOMS
7
ITEM: BOX BOUNDS ss ss ss
-2.8924 3.3938
-2.9264 3.0903
-2.2330 1.7205
ITEM: ATOMS id type xs ys zs
1 1 .491137 .991973 .540574
2 1 .996257 .635231 .518046
3 1 .812492 .023038 .491073
4 1 .200363 .004864 .474678
5 1 .003815 .605438 .470544
6 1 .495436 .444132 .988351
7 1 .518476 .474132 .011819
ITEM: TIMESTEP
100
ITEM: NUMBER OF ATOMS
7
ITEM: BOX BOUNDS ss ss ss
-2.9003 3.3997
-2.9348 3.0903
-2.2330 1.7205
ITEM: ATOMS id type xs ys zs
1 1 .489608 .990434 .539685
2 1 .997774 .636023 .520523
3 1 .814324 .024146 .495186
4 1 .199757 .008600 .474751
5 1 .007324 .605073 .469445
6 1 .498384 .445389 .987291
7 1 .516381 .470813 .009141
ITEM: TIMESTEP
150
ITEM: NUMBER OF ATOMS
7
ITEM: BOX BOUNDS ss ss ss
-2.9044 3.4095
-2.9394 3.0956
-2.2330 1.7205
ITEM: ATOMS id type xs ys zs
1 1 .489062 .990352 .542354
2 1 .996222 .637031 .518369
3 1 .814055 .026341 .495231
4 1 .200814 .011121 .475231
5 1 .007171 .604668 .466243
6 1 .498210 .444225 .987839
7 1 .517019 .470194 .006454
ITEM: TIMESTEP
200
ITEM: NUMBER OF ATOMS
7
ITEM: BOX BOUNDS ss ss ss
-2.9043 3.4105
-2.9347 3.1043
-2.2386 1.7205
ITEM: ATOMS id type xs ys zs
1 1 .488331 .991849 .537495
2 1 .993696 .628370 .517544
3 1 .811886 .026061 .490793
4 1 .201363 .004802 .478225
5 1 .007737 .601606 .470073
6 1 .496265 .444072 .988426
7 1 .513953 .472060 .010426
ITEM: TIMESTEP
250
ITEM: NUMBER OF ATOMS
7
ITEM: BOX BOUNDS ss ss ss
-2.9006 3.4121
-2.9535 3.1036
-2.2468 1.7208
ITEM: ATOMS id type xs ys zs
1 1 .487183 .995867 .537825
2 1 .989230 .633369 .516241
3 1 .803338 .030480 .502164
4 1 .201332 .012443 .476814
5 1 .009949 .601999 .469899
6 1 .491513 .449180 .993540
7 1 .512539 .471566 .008510
ITEM: TIMESTEP
300
ITEM: NUMBER OF ATOMS
7
ITEM: BOX BOUNDS ss ss ss
-2.9019 3.4094
-2.9493 3.1141
-2.2438 1.7240
ITEM: ATOMS id type xs ys zs
1 1 .489324 .992028 .545391
2 1 .993111 .628222 .521849
3 1 .809765 .028109 .494914
4 1 .204969 .011586 .475626
5 1 .008858 .602675 .475192
6 1 .492894 .445538 .987912
7 1 .513203 .469265 .015773
ITEM: TIMESTEP
350
ITEM: NUMBER OF ATOMS
7
ITEM: BOX BOUNDS ss ss ss
-2.8962 3.4148
-2.9417 3.1101
-2.2447 1.7354
ITEM: ATOMS id type xs ys zs
1 1 .488936 .994327 .544520
2 1 .991105 .628279 .520476
3 1 .810185 .029778 .492829
4 1 .202891 .010668 .474146
5 1 .008454 .601918 .475651
6 1 .491208 .442287 .983254
7 1 .514224 .468665 .015090
ITEM: TIMESTEP
400
ITEM: NUMBER OF ATOMS
7
ITEM: BOX BOUNDS ss ss ss
-2.8965 3.4068
-2.9340 3.1026
-2.2556 1.7441
ITEM: ATOMS id type xs ys zs
1 1 .491852 .990246 .543030
2 1 .987978 .628722 .523996
3 1 .808221 .029076 .496550
4 1 .203701 .009187 .475927
5 1 .008034 .603660 .474239
6 1 .490850 .444550 .991594
7 1 .507640 .470329 .013208
ITEM: TIMESTEP
1
ITEM: NUMBER OF ATOMS
7
ITEM: BOX BOUNDS ss ss ss
-2.8862 3.3881
-2.9104 3.0786
-2.2319 1.7255
ITEM: ATOMS id type xs ys zs
1 1 .490473 .992890 .538088
2 1 .995454 .633286 .517195
3 1 .814113 .020266 .490435
4 1 .198787 .002405 .474579
5 1 .003459 .607330 .469819
6 1 .495421 .445701 .987193
7 1 .515837 .472093 .011445
ITEM: TIMESTEP
50
ITEM: NUMBER OF ATOMS
7
ITEM: BOX BOUNDS ss ss ss
-2.8970 3.3904
-2.9231 3.0786
-2.2319 1.7255
ITEM: ATOMS id type xs ys zs
1 1 .491087 .992475 .535984
2 1 .996492 .633343 .518848
3 1 .815434 .023750 .491325
4 1 .199016 .002153 .473658
5 1 .005480 .609422 .469627
6 1 .494501 .446062 .987961
7 1 .516248 .471737 .011956
ITEM: TIMESTEP
100
ITEM: NUMBER OF ATOMS
7
ITEM: BOX BOUNDS ss ss ss
-2.9073 3.4059
-2.9249 3.0786
-2.2319 1.7255
ITEM: ATOMS id type xs ys zs
1 1 .493721 .991559 .541311
2 1 .995528 .637207 .515005
3 1 .810402 .024421 .489228
4 1 .201653 .002445 .478211
5 1 .006702 .608479 .469246
6 1 .496764 .443784 .983818
7 1 .516706 .471404 .011984
ITEM: TIMESTEP
150
ITEM: NUMBER OF ATOMS
7
ITEM: BOX BOUNDS ss ss ss
-2.9112 3.4213
-2.9339 3.0833
-2.2341 1.7255
ITEM: ATOMS id type xs ys zs
1 1 .493694 .995584 .547433
2 1 .994557 .634533 .522681
3 1 .807092 .023780 .484284
4 1 .198418 .006809 .478187
5 1 .007042 .605980 .465493
6 1 .493427 .447811 .981647
7 1 .511881 .470078 .010825
ITEM: TIMESTEP
200
ITEM: NUMBER OF ATOMS
7
ITEM: BOX BOUNDS ss ss ss
-2.9126 3.4232
-2.9261 3.0984
-2.2323 1.7255
ITEM: ATOMS id type xs ys zs
1 1 .488163 .992618 .535266
2 1 .995819 .629231 .523447
3 1 .804972 .021792 .486677
4 1 .204008 .009528 .471794
5 1 .010199 .605197 .471556
6 1 .494217 .444601 .986308
7 1 .511935 .468930 .007560
ITEM: TIMESTEP
250
ITEM: NUMBER OF ATOMS
7
ITEM: BOX BOUNDS ss ss ss
-2.9212 3.4218
-2.9326 3.1028
-2.2390 1.7320
ITEM: ATOMS id type xs ys zs
1 1 .492629 .990886 .541558
2 1 .989858 .628732 .519988
3 1 .806835 .022356 .482105
4 1 .204696 .008081 .475531
5 1 .008116 .604607 .465547
6 1 .494710 .439253 .989541
7 1 .516030 .471752 .010478
ITEM: TIMESTEP
300
ITEM: NUMBER OF ATOMS
7
ITEM: BOX BOUNDS ss ss ss
-2.9121 3.4279
-2.9291 3.1028
-2.2488 1.7288
ITEM: ATOMS id type xs ys zs
1 1 .489494 .994304 .544061
2 1 .993523 .634287 .521222
3 1 .805837 .025120 .479222
4 1 .202979 .007253 .484674
5 1 .008273 .601818 .472775
6 1 .493511 .439860 .985697
7 1 .511583 .470800 .015359
ITEM: TIMESTEP
350
ITEM: NUMBER OF ATOMS
7
ITEM: BOX BOUNDS ss ss ss
-2.9175 3.4205
-2.9368 3.1020
-2.2614 1.7347
ITEM: ATOMS id type xs ys zs
1 1 .491128 .991601 .532754
2 1 .994379 .631996 .525212
3 1 .809522 .027247 .489107
4 1 .205197 .003993 .479169
5 1 .010212 .604025 .467760
6 1 .494671 .445343 .982694
7 1 .511910 .461428 .011626
ITEM: TIMESTEP
400
ITEM: NUMBER OF ATOMS
7
ITEM: BOX BOUNDS ss ss ss
-2.9150 3.4230
-2.9274 3.0944
-2.2578 1.7430
ITEM: ATOMS id type xs ys zs
1 1 .489941 .991254 .534204
2 1 .991000 .634783 .514885
3 1 .807260 .025871 .489416
4 1 .204060 .009347 .477306
5 1 .010493 .605744 .472804
6 1 .495570 .443554 .981005
7 1 .513057 .467324 .015738
ITEM: TIMESTEP
1
ITEM: NUMBER OF ATOMS
7
ITEM: BOX BOUNDS ss ss ss
-2.8890 3.3824
-2.9058 3.0686
-2.2320 1.7156
ITEM: ATOMS id type xs ys zs
1 1 .491068 .994582 .539610
2 1 .996330 .633653 .518884
3 1 .815045 .019864 .491989
4 1 .199477 .001980 .475463
5 1 .004019 .608011 .471109
6 1 .496186 .445733 .988988
7 1 .516598 .472310 .011781
ITEM: TIMESTEP
50
ITEM: NUMBER OF ATOMS
7
ITEM: BOX BOUNDS ss ss ss
-2.8921 3.3901
-2.9279 3.0686
-2.2320 1.7156
ITEM: ATOMS id type xs ys zs
1 1 .490474 .993482 .539533
2 1 .996347 .635014 .517293
3 1 .812294 .023050 .492441
4 1 .199345 .007230 .476585
5 1 .004999 .607922 .470341
6 1 .495350 .447171 .989229
7 1 .516458 .474301 .010822
ITEM: TIMESTEP
100
ITEM: NUMBER OF ATOMS
7
ITEM: BOX BOUNDS ss ss ss
-2.9090 3.4038
-2.9346 3.0788
-2.2320 1.7156
ITEM: ATOMS id type xs ys zs
1 1 .491638 .993480 .536157
2 1 .993862 .635922 .522736
3 1 .812744 .026340 .491343
4 1 .201208 .007224 .476435
5 1 .007627 .608269 .471711
6 1 .497075 .446738 .989267
7 1 .516736 .472765 .012763
ITEM: TIMESTEP
150
ITEM: NUMBER OF ATOMS
7
ITEM: BOX BOUNDS ss ss ss
-2.9021 3.4201
-2.9249 3.0916
-2.2320 1.7156
ITEM: ATOMS id type xs ys zs
1 1 .490796 .993933 .542559
2 1 .994952 .633392 .514167
3 1 .811557 .023049 .494787
4 1 .199726 .005320 .475755
5 1 .006100 .604576 .466384
6 1 .494035 .445689 .989563
7 1 .511034 .470209 .014566
ITEM: TIMESTEP
200
ITEM: NUMBER OF ATOMS
7
ITEM: BOX BOUNDS ss ss ss
-2.9104 3.4253
-2.9236 3.0929
-2.2353 1.7156
ITEM: ATOMS id type xs ys zs
1 1 .488302 .990907 .543057
2 1 .990258 .634534 .521221
3 1 .808264 .027686 .492031
4 1 .203028 .007131 .472645
5 1 .006238 .604531 .467164
6 1 .492055 .445440 .987728
7 1 .511644 .467256 .011746
ITEM: TIMESTEP
250
ITEM: NUMBER OF ATOMS
7
ITEM: BOX BOUNDS ss ss ss
-2.9139 3.4309
-2.9211 3.0960
-2.2320 1.7156
ITEM: ATOMS id type xs ys zs
1 1 .489591 .994625 .533648
2 1 .989217 .634203 .521472
3 1 .808987 .025893 .490612
4 1 .203847 .010778 .474763
5 1 .006277 .606062 .469959
6 1 .494780 .443779 .989564
7 1 .509636 .466946 .013817
ITEM: TIMESTEP
300
ITEM: NUMBER OF ATOMS
7
ITEM: BOX BOUNDS ss ss ss
-2.9184 3.4156
-2.9301 3.1058
-2.2320 1.7204
ITEM: ATOMS id type xs ys zs
1 1 .491378 .992987 .534838
2 1 .993253 .633490 .521526
3 1 .810018 .027718 .486653
4 1 .204335 .012530 .474453
5 1 .006171 .604567 .465224
6 1 .497014 .443948 .989187
7 1 .508808 .466303 .016163
ITEM: TIMESTEP
350
ITEM: NUMBER OF ATOMS
7
ITEM: BOX BOUNDS ss ss ss
-2.9259 3.4162
-2.9210 3.1052
-2.2372 1.7237
ITEM: ATOMS id type xs ys zs
1 1 .491177 .989190 .540578
2 1 .992725 .631425 .518071
3 1 .811596 .025779 .491810
4 1 .203003 .009475 .477920
5 1 .010094 .605440 .472581
6 1 .497216 .439678 .986981
7 1 .511787 .465205 .008151
ITEM: TIMESTEP
400
ITEM: NUMBER OF ATOMS
7
ITEM: BOX BOUNDS ss ss ss
-2.9170 3.4244
-2.9240 3.1030
-2.2383 1.7314
ITEM: ATOMS id type xs ys zs
1 1 .489927 .989074 .541499
2 1 .992913 .631230 .518988
3 1 .807530 .024708 .491258
4 1 .199883 .009951 .477198
5 1 .008581 .605631 .473108
6 1 .495345 .441274 .981218
7 1 .510829 .465575 .008161
ITEM: TIMESTEP
1
ITEM: NUMBER OF ATOMS
7
ITEM: BOX BOUNDS ss ss ss
-2.8890 3.3860
-2.9058 3.0926
-2.2320 1.7156
ITEM: ATOMS id type xs ys zs
1 1 .490903 .991064 .539590
2 1 .995886 .631363 .518252
3 1 .814224 .019622 .491473
4 1 .199137 .001725 .474956
5 1 .004002 .606110 .471542
6 1 .495738 .443809 .989338
7 1 .516077 .470836 .011384
ITEM: TIMESTEP
50
ITEM: NUMBER OF ATOMS
7
ITEM: BOX BOUNDS ss ss ss
-2.8953 3.3912
-2.9243 3.0926
-2.2320 1.7156
ITEM: ATOMS id type xs ys zs
1 1 .490284 .990540 .541742
2 1 .995665 .632962 .517937
3 1 .815556 .022387 .488702
4 1 .198781 .006685 .475686
5 1 .006285 .605162 .471164
6 1 .496548 .445643 .988294
7 1 .517213 .472106 .013132
ITEM: TIMESTEP
100
ITEM: NUMBER OF ATOMS
7
ITEM: BOX BOUNDS ss ss ss
-2.9036 3.4034
-2.9300 3.0926
-2.2320 1.7156
ITEM: ATOMS id type xs ys zs
1 1 .493236 .994193 .538041
2 1 .995787 .634248 .515076
3 1 .811609 .024166 .492681
4 1 .201175 .005830 .475307
5 1 .006945 .605837 .474724
6 1 .492472 .442756 .984301
7 1 .516820 .472499 .012517
ITEM: TIMESTEP
150
ITEM: NUMBER OF ATOMS
7
ITEM: BOX BOUNDS ss ss ss
-2.9177 3.4167
-2.9317 3.0926
-2.2320 1.7173
ITEM: ATOMS id type xs ys zs
1 1 .490189 .993230 .547185
2 1 .994170 .633525 .513480
3 1 .806988 .024295 .490512
4 1 .201526 .010995 .480507
5 1 .009997 .607176 .471987
6 1 .496580 .443383 .987802
7 1 .515838 .474582 .012756
ITEM: TIMESTEP
200
ITEM: NUMBER OF ATOMS
7
ITEM: BOX BOUNDS ss ss ss
-2.9159 3.4204
-2.9370 3.1130
-2.2320 1.7280
ITEM: ATOMS id type xs ys zs
1 1 .492778 .990249 .539858
2 1 .995239 .628319 .513482
3 1 .809690 .021212 .490564
4 1 .205271 .011673 .479474
5 1 .010370 .605276 .469695
6 1 .495293 .445423 .981118
7 1 .517142 .471568 .008647
ITEM: TIMESTEP
250
ITEM: NUMBER OF ATOMS
7
ITEM: BOX BOUNDS ss ss ss
-2.9099 3.4313
-2.9361 3.1083
-2.2468 1.7258
ITEM: ATOMS id type xs ys zs
1 1 .494121 .991330 .540029
2 1 .994207 .625433 .520219
3 1 .805373 .024512 .496614
4 1 .204152 .010109 .480326
5 1 .010602 .604996 .465913
6 1 .491956 .443936 .991164
7 1 .516001 .470725 .012270
ITEM: TIMESTEP
300
ITEM: NUMBER OF ATOMS
7
ITEM: BOX BOUNDS ss ss ss
-2.9258 3.4367
-2.9338 3.1106
-2.2532 1.7407
ITEM: ATOMS id type xs ys zs
1 1 .496107 .989215 .539634
2 1 .995484 .625253 .519748
3 1 .806932 .024236 .496241
4 1 .204837 .009879 .477541
5 1 .013030 .604828 .462919
6 1 .493378 .442960 .988736
7 1 .516276 .470974 .015377
ITEM: TIMESTEP
350
ITEM: NUMBER OF ATOMS
7
ITEM: BOX BOUNDS ss ss ss
-2.9166 3.4336
-2.9338 3.1151
-2.2409 1.7275
ITEM: ATOMS id type xs ys zs
1 1 .492180 .995025 .541885
2 1 .992371 .630753 .512379
3 1 .804910 .020439 .493291
4 1 .203349 .007461 .479184
5 1 .009299 .602674 .466283
6 1 .493556 .443945 .985261
7 1 .513660 .464348 .012590
ITEM: TIMESTEP
400
ITEM: NUMBER OF ATOMS
7
ITEM: BOX BOUNDS ss ss ss
-2.9104 3.4388
-2.9161 3.1195
-2.2452 1.7256
ITEM: ATOMS id type xs ys zs
1 1 .488472 .994210 .547963
2 1 .991571 .623935 .517748
3 1 .803551 .018504 .501601
4 1 .203632 .007901 .478379
5 1 .008425 .603399 .470021
6 1 .495126 .444081 .981877
7 1 .512462 .466019 .014090
ITEM: TIMESTEP
1
ITEM: NUMBER OF ATOMS
7
ITEM: BOX BOUNDS ss ss ss
-2.8890 3.4199
-2.9058 3.0862
-2.2320 1.7156
ITEM: ATOMS id type xs ys zs
1 1 .488457 .991694 .539628
2 1 .990160 .631966 .518352
3 1 .810172 .019764 .491804
4 1 .198233 .001789 .475840
5 1 .004242 .606432 .471020
6 1 .492852 .444046 .989391
7 1 .513364 .470775 .011477
ITEM: TIMESTEP
50
ITEM: NUMBER OF ATOMS
7
ITEM: BOX BOUNDS ss ss ss
-2.8980 3.4199
-2.9282 3.0862
-2.2320 1.7156
ITEM: ATOMS id type xs ys zs
1 1 .490782 .992546 .537805
2 1 .990273 .635103 .516045
3 1 .811298 .021815 .490124
4 1 .196655 .006298 .476506
5 1 .006792 .608014 .470165
6 1 .493669 .446522 .989234
7 1 .514754 .471114 .010097
ITEM: TIMESTEP
100
ITEM: NUMBER OF ATOMS
7
ITEM: BOX BOUNDS ss ss ss
-2.9060 3.4199
-2.9345 3.0862
-2.2320 1.7156
ITEM: ATOMS id type xs ys zs
1 1 .490579 .995349 .537381
2 1 .994216 .633191 .519250
3 1 .810539 .026705 .490739
4 1 .203979 .006206 .476116
5 1 .006173 .609266 .469494
6 1 .493284 .443469 .991763
7 1 .513424 .472519 .010477
ITEM: TIMESTEP
150
ITEM: NUMBER OF ATOMS
7
ITEM: BOX BOUNDS ss ss ss
-2.9091 3.4325
-2.9308 3.0928
-2.2320 1.7156
ITEM: ATOMS id type xs ys zs
1 1 .490158 .996642 .536039
2 1 .991414 .633431 .516600
3 1 .807847 .026865 .490235
4 1 .202544 .003411 .477544
5 1 .004652 .607170 .465681
6 1 .495609 .442220 .992385
7 1 .513552 .474191 .009927
ITEM: TIMESTEP
200
ITEM: NUMBER OF ATOMS
7
ITEM: BOX BOUNDS ss ss ss
-2.9126 3.4388
-2.9400 3.1024
-2.2389 1.7214
ITEM: ATOMS id type xs ys zs
1 1 .487294 .993532 .539638
2 1 .993041 .630446 .519129
3 1 .804005 .025541 .489508
4 1 .201390 .006187 .476896
5 1 .006026 .602815 .469842
6 1 .496234 .447960 .985371
7 1 .512449 .470828 .015546
ITEM: TIMESTEP
250
ITEM: NUMBER OF ATOMS
7
ITEM: BOX BOUNDS ss ss ss
-2.9155 3.4330
-2.9361 3.1168
-2.2441 1.7156
ITEM: ATOMS id type xs ys zs
1 1 .488030 .989454 .545057
2 1 .989552 .631684 .520297
3 1 .807393 .023804 .494695
4 1 .203888 .009031 .478621
5 1 .008461 .603015 .466883
6 1 .489722 .442175 .987856
7 1 .513171 .471166 .011686
ITEM: TIMESTEP
300
ITEM: NUMBER OF ATOMS
7
ITEM: BOX BOUNDS ss ss ss
-2.9156 3.4270
-2.9485 3.1171
-2.2336 1.7214
ITEM: ATOMS id type xs ys zs
1 1 .489897 .992354 .543399
2 1 .993926 .631733 .515780
3 1 .810211 .031061 .487971
4 1 .205665 .009923 .479023
5 1 .007681 .607735 .464386
6 1 .493610 .443115 .986439
7 1 .511422 .471807 .008509
ITEM: TIMESTEP
350
ITEM: NUMBER OF ATOMS
7
ITEM: BOX BOUNDS ss ss ss
-2.9047 3.4296
-2.9388 3.1187
-2.2416 1.7223
ITEM: ATOMS id type xs ys zs
1 1 .489331 .993397 .547650
2 1 .995279 .630365 .518046
3 1 .811126 .028070 .491055
4 1 .205769 .007634 .478954
5 1 .004753 .607140 .462715
6 1 .492639 .441817 .986821
7 1 .510705 .469708 .012479
ITEM: TIMESTEP
400
ITEM: NUMBER OF ATOMS
7
ITEM: BOX BOUNDS ss ss ss
-2.9067 3.4304
-2.9362 3.1209
-2.2385 1.7211
ITEM: ATOMS id type xs ys zs
1 1 .489139 .992967 .548103
2 1 .996369 .628272 .515757
3 1 .811481 .029065 .488828
4 1 .206263 .006595 .481990
5 1 .005171 .607766 .461993
6 1 .495028 .442624 .988381
7 1 .511850 .470872 .013094
ITEM: TIMESTEP
1
ITEM: NUMBER OF ATOMS
7
ITEM: BOX BOUNDS ss ss ss
-2.8890 3.4053
-2.9069 3.1022
-2.2320 1.7156
ITEM: ATOMS id type xs ys zs
1 1 .489398 .989326 .539471
2 1 .992580 .630418 .518286
3 1 .812006 .019806 .491736
4 1 .198623 .002147 .475308
5 1 .003892 .604587 .471218
6 1 .494291 .443204 .989048
7 1 .514789 .470291 .011666
ITEM: TIMESTEP
50
ITEM: NUMBER OF ATOMS
7
ITEM: BOX BOUNDS ss ss ss
-2.8936 3.4053
-2.9276 3.1022
-2.2320 1.7156
ITEM: ATOMS id type xs ys zs
1 1 .490527 .990402 .538949
2 1 .993628 .631840 .515813
3 1 .812117 .022191 .489923
4 1 .198957 .005376 .478843
5 1 .003136 .607176 .472517
6 1 .494358 .444288 .986454
7 1 .515670 .471972 .012560
ITEM: TIMESTEP
100
ITEM: NUMBER OF ATOMS
7
ITEM: BOX BOUNDS ss ss ss
-2.8999 3.4054
-2.9355 3.1022
-2.2320 1.7156
ITEM: ATOMS id type xs ys zs
1 1 .489497 .991054 .544645
2 1 .995468 .634374 .517010
3 1 .813198 .023476 .492664
4 1 .197829 .007880 .475813
5 1 .005954 .605063 .471157
6 1 .494509 .443067 .986767
7 1 .516360 .471770 .008454
ITEM: TIMESTEP
150
ITEM: NUMBER OF ATOMS
7
ITEM: BOX BOUNDS ss ss ss
-2.9047 3.4144
-2.9468 3.1022
-2.2378 1.7156
ITEM: ATOMS id type xs ys zs
1 1 .489489 .994801 .546530
2 1 .994467 .635468 .520886
3 1 .808649 .025685 .493701
4 1 .202827 .008763 .477950
5 1 .004926 .607233 .472399
6 1 .491774 .443388 .987991
7 1 .515515 .473994 .009806
ITEM: TIMESTEP
200
ITEM: NUMBER OF ATOMS
7
ITEM: BOX BOUNDS ss ss ss
-2.9072 3.4311
-2.9419 3.1022
-2.2389 1.7156
ITEM: ATOMS id type xs ys zs
1 1 .486773 .992870 .546103
2 1 .994015 .633351 .522521
3 1 .806613 .024195 .493623
4 1 .201065 .007280 .479240
5 1 .005936 .608424 .473206
6 1 .489741 .440781 .986972
7 1 .514967 .473834 .008417
ITEM: TIMESTEP
250
ITEM: NUMBER OF ATOMS
7
ITEM: BOX BOUNDS ss ss ss
-2.9137 3.4374
-2.9334 3.1071
-2.2460 1.7156
ITEM: ATOMS id type xs ys zs
1 1 .489270 .987673 .550590
2 1 .985972 .629410 .519170
3 1 .808086 .026107 .492205
4 1 .201488 .011129 .483747
5 1 .006207 .604188 .470020
6 1 .494382 .442891 .991388
7 1 .509720 .469108 .013849
ITEM: TIMESTEP
300
ITEM: NUMBER OF ATOMS
7
ITEM: BOX BOUNDS ss ss ss
-2.9095 3.4317
-2.9276 3.1173
-2.2413 1.7156
ITEM: ATOMS id type xs ys zs
1 1 .489499 .990205 .546360
2 1 .984510 .628856 .521931
3 1 .804625 .021982 .489395
4 1 .199986 .007261 .482753
5 1 .008257 .607298 .470309
6 1 .491284 .438273 .991129
7 1 .509082 .463971 .008515
ITEM: TIMESTEP
350
ITEM: NUMBER OF ATOMS
7
ITEM: BOX BOUNDS ss ss ss
-2.8994 3.4197
-2.9366 3.1159
-2.2470 1.7288
ITEM: ATOMS id type xs ys zs
1 1 .488035 .989786 .547655