ITEM: TIMESTEP
1
ITEM: NUMBER OF ATOMS
7
ITEM: BOX BOUNDS ss ss ss
-2.8672 3.3636
-2.8984 3.0409
-2.1898 1.6780
ITEM: ATOMS id type xs ys zs
1 1 .490845 .999394 .539818
2 1 .999197 .636399 .518294
3 1 .816743 .018598 .491177
4 1 .197194 .000575 .474533
5 1 .000569 .610430 .470013
6 1 .495699 .447031 .998935
7 1 .516376 .474119 .001018
ITEM: TIMESTEP
50
ITEM: NUMBER OF ATOMS
7
ITEM: BOX BOUNDS ss ss ss
-2.8895 3.3914
-2.9206 3.0673
-2.2147 1.6998
ITEM: ATOMS id type xs ys zs
1 1 .490365 .995746 .540039
2 1 .995545 .635000 .518643
3 1 .813515 .022375 .491826
4 1 .199196 .004582 .475484
5 1 .004216 .608846 .470415
6 1 .495188 .446380 .993328
7 1 .515531 .473531 .006931
ITEM: TIMESTEP
100
ITEM: NUMBER OF ATOMS
7
ITEM: BOX BOUNDS ss ss ss
-2.8939 3.4031
-2.9200 3.0785
-2.2227 1.7114
ITEM: ATOMS id type xs ys zs
1 1 .489792 .995059 .539856
2 1 .994505 .633716 .518895
3 1 .811536 .022679 .491751
4 1 .199724 .005602 .475098
5 1 .005717 .607526 .469271
6 1 .494495 .444114 .990294
7 1 .513944 .471225 .008573
ITEM: TIMESTEP
150
ITEM: NUMBER OF ATOMS
7
ITEM: BOX BOUNDS ss ss ss
-2.8964 3.4102
-2.9249 3.0881
-2.2307 1.7109
ITEM: ATOMS id type xs ys zs
1 1 .489737 .994247 .540163
2 1 .993450 .632510 .520722
3 1 .810317 .023271 .492872
4 1 .200420 .007647 .475328
5 1 .006082 .607017 .470368
6 1 .494079 .443681 .990728
7 1 .512865 .469104 .010596
ITEM: TIMESTEP
200
ITEM: NUMBER OF ATOMS
7
ITEM: BOX BOUNDS ss ss ss
-2.9034 3.4132
-2.9172 3.0947
-2.2273 1.7128
ITEM: ATOMS id type xs ys zs
1 1 .489514 .993166 .539304
2 1 .992999 .631068 .520721
3 1 .810704 .021618 .492241
4 1 .202432 .007452 .473663
5 1 .006896 .606113 .470280
6 1 .494333 .442406 .990524
7 1 .512579 .466318 .009843
ITEM: TIMESTEP
250
ITEM: NUMBER OF ATOMS
7
ITEM: BOX BOUNDS ss ss ss
-2.8991 3.4095
-2.9244 3.0926
-2.2324 1.7260
ITEM: ATOMS id type xs ys zs
1 1 .488881 .993575 .538096
2 1 .993324 .631432 .520173
3 1 .811641 .022384 .491219
4 1 .203186 .009082 .472637
5 1 .006024 .607077 .469607
6 1 .494272 .443124 .987420
7 1 .512235 .466163 .010925
ITEM: TIMESTEP
300
ITEM: NUMBER OF ATOMS
7
ITEM: BOX BOUNDS ss ss ss
-2.9096 3.4187
-2.9183 3.0999
-2.2394 1.7365
ITEM: ATOMS id type xs ys zs
1 1 .488823 .992565 .537103
2 1 .991333 .630189 .520124
3 1 .811074 .021139 .490771
4 1 .205171 .008194 .472213
5 1 .007934 .606272 .469267
6 1 .494323 .442103 .985101
7 1 .512179 .464494 .012208
ITEM: TIMESTEP
350
ITEM: NUMBER OF ATOMS
7
ITEM: BOX BOUNDS ss ss ss
-2.9111 3.4086
-2.9192 3.1115
-2.2423 1.7352
ITEM: ATOMS id type xs ys zs
1 1 .489854 .990647 .537044
2 1 .992110 .628926 .520984
3 1 .812476 .021142 .491326
4 1 .206371 .008646 .472432
5 1 .008564 .605705 .469899
6 1 .495071 .441407 .986268
7 1 .512977 .463278 .012334
ITEM: TIMESTEP
400
ITEM: NUMBER OF ATOMS
7
ITEM: BOX BOUNDS ss ss ss
-2.9086 3.4082
-2.9186 3.1099
-2.2390 1.7352
ITEM: ATOMS id type xs ys zs
1 1 .490054 .990812 .535861
2 1 .991269 .628979 .520654
3 1 .812272 .021142 .491539
4 1 .206494 .008960 .471764
5 1 .008588 .606451 .469713
6 1 .494570 .441645 .987411
7 1 .512555 .462929 .010767
ITEM: TIMESTEP
1
ITEM: NUMBER OF ATOMS
7
ITEM: BOX BOUNDS ss ss ss
-2.8858 3.3742
-2.9039 3.0761
-2.2295 1.7230
ITEM: ATOMS id type xs ys zs
1 1 .491535 .993517 .538302
2 1 .997513 .632995 .517237
3 1 .815906 .019398 .490701
4 1 .199248 .001499 .474418
5 1 .003544 .607205 .469987
6 1 .496367 .444917 .987582
7 1 .516949 .471824 .011037
ITEM: TIMESTEP
50
ITEM: NUMBER OF ATOMS
7
ITEM: BOX BOUNDS ss ss ss
-2.8899 3.3892
-2.9250 3.0761
-2.2295 1.7230
ITEM: ATOMS id type xs ys zs
1 1 .490607 .994316 .538720
2 1 .995914 .634475 .517411
3 1 .813794 .022955 .490716
4 1 .199326 .005202 .474892
5 1 .004132 .608522 .469781
6 1 .495448 .446263 .987589
7 1 .515933 .473218 .010677
ITEM: TIMESTEP
100
ITEM: NUMBER OF ATOMS
7
ITEM: BOX BOUNDS ss ss ss
-2.8971 3.4067
-2.9313 3.0809
-2.2295 1.7230
ITEM: ATOMS id type xs ys zs
1 1 .490291 .994795 .540681
2 1 .993699 .635099 .517524
3 1 .811172 .024054 .490182
4 1 .201102 .008068 .474737
5 1 .005221 .610009 .471076
6 1 .494982 .444971 .987990
7 1 .514157 .471185 .009776
ITEM: TIMESTEP
150
ITEM: NUMBER OF ATOMS
7
ITEM: BOX BOUNDS ss ss ss
-2.9046 3.4069
-2.9202 3.0911
-2.2295 1.7230
ITEM: ATOMS id type xs ys zs
1 1 .490815 .993849 .542505
2 1 .993980 .634112 .517232
3 1 .811800 .022482 .489225
4 1 .202920 .007888 .475205
5 1 .006950 .608753 .472377
6 1 .495581 .442281 .988767
7 1 .513716 .467523 .010406
ITEM: TIMESTEP
200
ITEM: NUMBER OF ATOMS
7
ITEM: BOX BOUNDS ss ss ss
-2.8973 3.4127
-2.9138 3.0935
-2.2327 1.7236
ITEM: ATOMS id type xs ys zs
1 1 .489588 .993720 .543488
2 1 .992932 .633648 .517817
3 1 .811024 .021577 .489365
4 1 .202292 .007493 .475881
5 1 .006394 .608067 .472712
6 1 .494712 .441308 .988693
7 1 .511911 .466234 .011270
ITEM: TIMESTEP
250
ITEM: NUMBER OF ATOMS
7
ITEM: BOX BOUNDS ss ss ss
-2.9036 3.4120
-2.9102 3.1072
-2.2329 1.7230
ITEM: ATOMS id type xs ys zs
1 1 .490087 .991401 .544097
2 1 .992461 .631840 .518270
3 1 .811424 .020990 .489134
4 1 .203821 .007353 .475512
5 1 .007698 .606482 .472849
6 1 .495402 .439922 .989454
7 1 .511883 .464587 .010947
ITEM: TIMESTEP
300
ITEM: NUMBER OF ATOMS
7
ITEM: BOX BOUNDS ss ss ss
-2.8979 3.4076
-2.9134 3.1106
-2.2417 1.7313
ITEM: ATOMS id type xs ys zs
1 1 .489895 .990501 .544393
2 1 .992506 .631288 .518505
3 1 .812022 .021471 .488971
4 1 .203956 .008210 .475259
5 1 .007028 .606406 .473414
6 1 .495388 .439771 .988369
7 1 .511376 .464331 .012632
ITEM: TIMESTEP
350
ITEM: NUMBER OF ATOMS
7
ITEM: BOX BOUNDS ss ss ss
-2.9047 3.4133
-2.9086 3.1071
-2.2394 1.7379
ITEM: ATOMS id type xs ys zs
1 1 .489982 .990782 .543747
2 1 .990951 .630919 .517461
3 1 .811518 .020443 .487408
4 1 .205126 .007674 .473945
5 1 .008334 .606533 .473120
6 1 .495617 .439246 .987648
7 1 .511034 .463928 .011500
ITEM: TIMESTEP
400
ITEM: NUMBER OF ATOMS
7
ITEM: BOX BOUNDS ss ss ss
-2.8999 3.4013
-2.9196 3.1095
-2.2559 1.7441
ITEM: ATOMS id type xs ys zs
1 1 .490520 .990286 .545113
2 1 .992295 .631030 .518905
3 1 .813040 .022143 .488421
4 1 .205191 .009505 .475301
5 1 .007879 .607024 .475176
6 1 .496257 .439790 .986756
7 1 .511297 .464411 .015239
ITEM: TIMESTEP
1
ITEM: NUMBER OF ATOMS
7
ITEM: BOX BOUNDS ss ss ss
-2.8858 3.3827
-2.9039 3.0899
-2.2307 1.7329
ITEM: ATOMS id type xs ys zs
1 1 .490870 .991217 .537101
2 1 .996168 .631529 .516094
3 1 .814807 .019351 .489631
4 1 .198981 .001493 .473396
5 1 .003542 .605796 .468977
6 1 .495697 .443891 .985125
7 1 .516250 .470730 .011314
ITEM: TIMESTEP
50
ITEM: NUMBER OF ATOMS
7
ITEM: BOX BOUNDS ss ss ss
-2.8903 3.3892
-2.9199 3.0899
-2.2307 1.7329
ITEM: ATOMS id type xs ys zs
1 1 .490697 .991876 .537330
2 1 .995763 .632731 .516123
3 1 .813863 .022130 .489759
4 1 .199128 .004159 .473854
5 1 .004238 .606554 .468564
6 1 .495437 .444717 .984875
7 1 .515938 .471960 .010923
ITEM: TIMESTEP
100
ITEM: NUMBER OF ATOMS
7
ITEM: BOX BOUNDS ss ss ss
-2.8989 3.4089
-2.9274 3.0899
-2.2307 1.7329
ITEM: ATOMS id type xs ys zs
1 1 .489690 .992982 .537453
2 1 .993722 .633734 .516814
3 1 .811177 .023576 .489309
4 1 .199655 .006005 .474310
5 1 .005931 .606844 .468061
6 1 .493843 .443779 .984124
7 1 .514679 .471203 .010160
ITEM: TIMESTEP
150
ITEM: NUMBER OF ATOMS
7
ITEM: BOX BOUNDS ss ss ss
-2.9043 3.4107
-2.9327 3.0900
-2.2307 1.7329
ITEM: ATOMS id type xs ys zs
1 1 .489962 .993653 .538101
2 1 .993610 .634024 .516704
3 1 .810567 .024636 .489295
4 1 .201051 .007842 .474752
5 1 .006980 .606479 .467618
6 1 .493976 .443811 .984715
7 1 .514300 .470473 .010191
ITEM: TIMESTEP
200
ITEM: NUMBER OF ATOMS
7
ITEM: BOX BOUNDS ss ss ss
-2.9033 3.4167
-2.9298 3.1013
-2.2429 1.7329
ITEM: ATOMS id type xs ys zs
1 1 .489000 .992244 .539991
2 1 .992679 .632326 .518837
3 1 .809238 .023988 .490703
4 1 .201689 .008434 .476410
5 1 .007143 .604893 .468707
6 1 .493590 .442892 .985359
7 1 .513209 .468516 .013018
ITEM: TIMESTEP
250
ITEM: NUMBER OF ATOMS
7
ITEM: BOX BOUNDS ss ss ss
-2.9033 3.4167
-2.9267 3.1048
-2.2431 1.7329
ITEM: ATOMS id type xs ys zs
1 1 .488969 .991666 .540527
2 1 .992145 .631708 .520152
3 1 .808601 .022698 .489852
4 1 .202360 .008773 .476374
5 1 .007828 .604495 .467677
6 1 .493901 .442267 .985674
7 1 .512909 .466997 .011440
ITEM: TIMESTEP
300
ITEM: NUMBER OF ATOMS
7
ITEM: BOX BOUNDS ss ss ss
-2.9064 3.4157
-2.9269 3.1117
-2.2495 1.7283
ITEM: ATOMS id type xs ys zs
1 1 .489091 .990451 .542492
2 1 .991030 .631126 .522393
3 1 .808419 .022195 .490867
4 1 .203221 .009189 .477518
5 1 .008756 .604409 .468613
6 1 .494232 .441514 .986982
7 1 .512878 .465675 .011801
ITEM: TIMESTEP
350
ITEM: NUMBER OF ATOMS
7
ITEM: BOX BOUNDS ss ss ss
-2.9009 3.4104
-2.9229 3.1097
-2.2533 1.7281
ITEM: ATOMS id type xs ys zs
1 1 .488622 .990897 .542881
2 1 .990706 .631144 .523468
3 1 .809069 .021539 .491466
4 1 .203046 .008627 .477605
5 1 .007811 .605051 .469284
6 1 .493850 .441147 .987245
7 1 .512316 .464879 .012589
ITEM: TIMESTEP
400
ITEM: NUMBER OF ATOMS
7
ITEM: BOX BOUNDS ss ss ss
-2.9043 3.3989
-2.9196 3.1044
-2.2557 1.7270
ITEM: ATOMS id type xs ys zs
1 1 .489564 .991989 .542914
2 1 .991815 .631282 .524664
3 1 .810814 .021325 .492274
4 1 .204107 .008231 .477307
5 1 .008159 .606034 .470168
6 1 .494538 .441249 .987879
7 1 .512954 .464637 .013187
ITEM: TIMESTEP
1
ITEM: NUMBER OF ATOMS
7
ITEM: BOX BOUNDS ss ss ss
-2.8907 3.3759
-2.8985 3.0903
-2.2330 1.7130
ITEM: ATOMS id type xs ys zs
1 1 .491793 .991152 .540063
2 1 .997252 .631161 .518966
3 1 .815835 .018465 .492386
4 1 .199811 .000587 .476077
5 1 .004310 .605408 .471640
6 1 .496624 .443363 .990090
7 1 .517184 .470228 .011932
ITEM: TIMESTEP
50
ITEM: NUMBER OF ATOMS
7
ITEM: BOX BOUNDS ss ss ss
-2.8916 3.3876
-2.9220 3.0903
-2.2330 1.7130
ITEM: ATOMS id type xs ys zs
1 1 .490942 .991706 .540432
2 1 .996088 .632773 .518790
3 1 .814164 .022386 .492509
4 1 .199377 .004534 .476387
5 1 .004412 .606678 .471138
6 1 .495702 .445099 .990283
7 1 .516323 .472165 .011707
ITEM: TIMESTEP
100
ITEM: NUMBER OF ATOMS
7
ITEM: BOX BOUNDS ss ss ss
-2.8952 3.4104
-2.9237 3.0903
-2.2330 1.7145
ITEM: ATOMS id type xs ys zs
1 1 .490097 .992767 .540594
2 1 .993980 .632259 .519003
3 1 .809842 .022569 .491295
4 1 .199753 .006666 .476277
5 1 .005020 .606749 .472412
6 1 .492802 .442968 .990355
7 1 .514177 .471329 .010723
ITEM: TIMESTEP
150
ITEM: NUMBER OF ATOMS
7
ITEM: BOX BOUNDS ss ss ss
-2.9010 3.4093
-2.9223 3.0903
-2.2330 1.7176
ITEM: ATOMS id type xs ys zs
1 1 .491164 .993024 .541226
2 1 .994718 .630436 .519189
3 1 .809696 .022634 .490022
4 1 .200826 .007619 .475714
5 1 .006025 .606311 .472294
6 1 .492804 .441534 .990047
7 1 .513972 .469511 .010364
ITEM: TIMESTEP
200
ITEM: NUMBER OF ATOMS
7
ITEM: BOX BOUNDS ss ss ss
-2.9038 3.4198
-2.9237 3.0903
-2.2384 1.7184
ITEM: ATOMS id type xs ys zs
1 1 .490850 .993147 .542431
2 1 .992921 .630108 .520364
3 1 .808088 .023020 .490451
4 1 .201646 .008053 .476345
5 1 .006810 .606258 .472035
6 1 .492134 .441851 .989920
7 1 .512556 .468552 .011246
ITEM: TIMESTEP
250
ITEM: NUMBER OF ATOMS
7
ITEM: BOX BOUNDS ss ss ss
-2.9020 3.4192
-2.9280 3.1025
-2.2430 1.7268
ITEM: ATOMS id type xs ys zs
1 1 .490801 .991351 .542493
2 1 .992447 .628919 .520368
3 1 .807957 .023612 .490135
4 1 .202248 .008865 .475666
5 1 .006821 .605495 .471534
6 1 .492200 .441870 .988177
7 1 .511666 .467320 .011748
ITEM: TIMESTEP
300
ITEM: NUMBER OF ATOMS
7
ITEM: BOX BOUNDS ss ss ss
-2.9054 3.4106
-2.9239 3.0967
-2.2546 1.7266
ITEM: ATOMS id type xs ys zs
1 1 .491759 .992405 .544342
2 1 .993244 .629171 .522108
3 1 .809329 .022737 .491429
4 1 .203617 .008529 .476854
5 1 .007359 .606094 .473154
6 1 .493572 .442306 .988715
7 1 .511946 .466744 .014493
ITEM: TIMESTEP
350
ITEM: NUMBER OF ATOMS
7
ITEM: BOX BOUNDS ss ss ss
-2.9111 3.4172
-2.9301 3.1013
-2.2487 1.7390
ITEM: ATOMS id type xs ys zs
1 1 .491451 .991769 .542115
2 1 .991488 .629373 .519962
3 1 .808983 .023268 .488776
4 1 .204551 .010067 .474507
5 1 .008248 .606640 .471699
6 1 .493944 .442558 .985761
7 1 .511339 .466310 .013021
ITEM: TIMESTEP
400
ITEM: NUMBER OF ATOMS
7
ITEM: BOX BOUNDS ss ss ss
-2.9151 3.4069
-2.9291 3.0989
-2.2557 1.7368
ITEM: ATOMS id type xs ys zs
1 1 .491652 .992283 .543490
2 1 .991872 .629959 .521552
3 1 .810675 .022833 .489871
4 1 .205591 .010746 .476029
5 1 .008639 .608076 .473993
6 1 .495075 .442663 .987039
7 1 .511702 .465908 .014781
ITEM: TIMESTEP
1
ITEM: NUMBER OF ATOMS
7
ITEM: BOX BOUNDS ss ss ss
-2.8907 3.3759
-2.8989 3.0903
-2.2330 1.7205
ITEM: ATOMS id type xs ys zs
1 1 .491796 .991148 .539046
2 1 .997248 .631186 .517981
3 1 .815836 .018528 .491457
4 1 .199808 .000651 .475179
5 1 .004307 .605431 .470750
6 1 .496623 .443400 .988217
7 1 .517189 .470266 .011911
ITEM: TIMESTEP
50
ITEM: NUMBER OF ATOMS
7
ITEM: BOX BOUNDS ss ss ss
-2.8924 3.3938
-2.9264 3.0903
-2.2330 1.7205
ITEM: ATOMS id type xs ys zs
1 1 .490388 .991825 .539528
2 1 .995028 .633079 .517690
3 1 .813406 .023133 .491401
4 1 .199138 .004979 .475849
5 1 .004412 .606683 .470422
6 1 .495240 .445601 .988059
7 1 .516010 .472514 .011608
ITEM: TIMESTEP
100
ITEM: NUMBER OF ATOMS
7
ITEM: BOX BOUNDS ss ss ss
-2.9003 3.3997
-2.9348 3.0903
-2.2330 1.7205
ITEM: ATOMS id type xs ys zs
1 1 .490732 .993699 .540228
2 1 .994975 .633786 .517975
3 1 .811614 .025022 .491482
4 1 .200046 .006188 .476810
5 1 .005936 .606017 .470526
6 1 .494687 .445715 .988306
7 1 .515874 .471704 .011255
ITEM: TIMESTEP
150
ITEM: NUMBER OF ATOMS
7
ITEM: BOX BOUNDS ss ss ss
-2.9044 3.4095
-2.9394 3.0956
-2.2330 1.7205
ITEM: ATOMS id type xs ys zs
1 1 .490057 .993874 .540927
2 1 .994109 .633567 .518449
3 1 .809297 .026143 .492161
4 1 .201067 .007380 .477692
5 1 .007034 .604682 .470505
6 1 .494091 .445070 .988587
7 1 .514973 .470504 .010096
ITEM: TIMESTEP
200
ITEM: NUMBER OF ATOMS
7
ITEM: BOX BOUNDS ss ss ss
-2.9043 3.4105
-2.9347 3.1043
-2.2386 1.7205
ITEM: ATOMS id type xs ys zs
1 1 .489853 .992881 .542546
2 1 .993828 .632492 .518745
3 1 .808150 .025163 .493263
4 1 .202303 .007140 .478194
5 1 .007391 .602788 .471304
6 1 .493945 .443732 .988921
7 1 .513913 .468825 .010857
ITEM: TIMESTEP
250
ITEM: NUMBER OF ATOMS
7
ITEM: BOX BOUNDS ss ss ss
-2.9006 3.4121
-2.9535 3.1036
-2.2468 1.7208
ITEM: ATOMS id type xs ys zs
1 1 .489227 .992881 .543786
2 1 .992994 .632939 .520608
3 1 .808094 .028122 .494339
4 1 .203094 .010327 .478546
5 1 .007217 .604229 .471847
6 1 .493138 .445405 .989579
7 1 .512845 .469995 .012657
ITEM: TIMESTEP
300
ITEM: NUMBER OF ATOMS
7
ITEM: BOX BOUNDS ss ss ss
-2.9019 3.4094
-2.9493 3.1141
-2.2438 1.7240
ITEM: ATOMS id type xs ys zs
1 1 .489457 .990705 .543807
2 1 .993060 .630685 .520703
3 1 .809274 .027435 .494213
4 1 .204780 .010141 .477386
5 1 .007675 .603019 .470749
6 1 .493407 .444363 .989913
7 1 .513254 .468574 .012109
ITEM: TIMESTEP
350
ITEM: NUMBER OF ATOMS
7
ITEM: BOX BOUNDS ss ss ss
-2.8962 3.4148
-2.9417 3.1101
-2.2447 1.7354
ITEM: ATOMS id type xs ys zs
1 1 .488747 .991111 .543213
2 1 .991838 .629896 .520286
3 1 .809038 .026142 .493248
4 1 .204955 .009699 .475660
5 1 .006856 .603167 .469637
6 1 .492658 .443971 .988190
7 1 .512181 .467993 .012308
ITEM: TIMESTEP
400
ITEM: NUMBER OF ATOMS
7
ITEM: BOX BOUNDS ss ss ss
-2.8965 3.4068
-2.9340 3.1026
-2.2556 1.7441
ITEM: ATOMS id type xs ys zs
1 1 .489610 .991898 .543125
2 1 .992474 .629665 .521269
3 1 .810365 .024860 .493293
4 1 .205716 .009330 .476052
5 1 .006792 .604010 .470142
6 1 .493054 .443840 .986837
7 1 .512347 .467286 .014312
ITEM: TIMESTEP
1
ITEM: NUMBER OF ATOMS
7
ITEM: BOX BOUNDS ss ss ss
-2.8862 3.3881
-2.9104 3.0786
-2.2319 1.7255
ITEM: ATOMS id type xs ys zs
1 1 .490473 .993104 .538247
2 1 .995302 .633131 .517197
3 1 .814114 .020460 .490701
4 1 .198845 .002582 .474439
5 1 .003589 .607377 .470010
6 1 .495297 .445344 .986968
7 1 .515835 .472212 .011640
ITEM: TIMESTEP
50
ITEM: NUMBER OF ATOMS
7
ITEM: BOX BOUNDS ss ss ss
-2.8970 3.3904
-2.9231 3.0786
-2.2319 1.7255
ITEM: ATOMS id type xs ys zs
1 1 .491181 .993487 .538915
2 1 .995652 .634079 .516882
3 1 .813918 .022437 .490808
4 1 .199711 .004670 .474975
5 1 .005152 .607735 .469406
6 1 .495923 .446198 .986974
7 1 .516566 .473328 .011610
ITEM: TIMESTEP
100
ITEM: NUMBER OF ATOMS
7
ITEM: BOX BOUNDS ss ss ss
-2.9073 3.4059
-2.9249 3.0786
-2.2319 1.7255
ITEM: ATOMS id type xs ys zs
1 1 .491056 .994406 .540170
2 1 .994733 .634701 .517988
3 1 .811090 .022961 .489345
4 1 .201294 .005833 .476892
5 1 .006372 .606220 .469262
6 1 .495280 .444972 .986555
7 1 .515670 .472567 .011631
ITEM: TIMESTEP
150
ITEM: NUMBER OF ATOMS
7
ITEM: BOX BOUNDS ss ss ss
-2.9112 3.4213
-2.9339 3.0833
-2.2341 1.7255
ITEM: ATOMS id type xs ys zs
1 1 .489753 .994711 .541138
2 1 .993111 .634354 .518907
3 1 .808533 .024570 .489115
4 1 .201323 .007980 .477382
5 1 .007110 .605489 .468964
6 1 .494469 .444797 .986199
7 1 .514195 .472038 .011994
ITEM: TIMESTEP
200
ITEM: NUMBER OF ATOMS
7
ITEM: BOX BOUNDS ss ss ss
-2.9126 3.4232
-2.9261 3.0984
-2.2323 1.7255
ITEM: ATOMS id type xs ys zs
1 1 .489176 .992546 .539918
2 1 .992793 .630619 .519442
3 1 .807519 .023115 .489357
4 1 .201222 .007804 .475552
5 1 .007674 .603661 .468420
6 1 .494047 .442936 .987086
7 1 .513416 .468969 .010812
ITEM: TIMESTEP
250
ITEM: NUMBER OF ATOMS
7
ITEM: BOX BOUNDS ss ss ss
-2.9212 3.4218
-2.9326 3.1028
-2.2390 1.7320
ITEM: ATOMS id type xs ys zs
1 1 .490164 .991714 .538432
2 1 .992711 .630157 .519062
3 1 .807833 .024520 .489986
4 1 .202682 .009234 .475176
5 1 .009371 .604137 .468251
6 1 .494567 .443336 .985763
7 1 .513494 .468004 .011698
ITEM: TIMESTEP
300
ITEM: NUMBER OF ATOMS
7
ITEM: BOX BOUNDS ss ss ss
-2.9121 3.4279
-2.9291 3.1028
-2.2488 1.7288
ITEM: ATOMS id type xs ys zs
1 1 .489611 .991641 .538310
2 1 .991425 .630469 .519913
3 1 .807100 .024265 .491688
4 1 .201785 .008355 .476743
5 1 .008347 .604258 .470474
6 1 .493166 .442868 .986173
7 1 .511802 .466626 .013130
ITEM: TIMESTEP
350
ITEM: NUMBER OF ATOMS
7
ITEM: BOX BOUNDS ss ss ss
-2.9175 3.4205
-2.9368 3.1020
-2.2614 1.7347
ITEM: ATOMS id type xs ys zs
1 1 .491080 .991534 .538052
2 1 .991881 .631133 .520480
3 1 .808254 .025654 .491997
4 1 .203239 .010111 .477383
5 1 .009405 .605493 .471326
6 1 .494039 .443738 .985312
7 1 .512496 .466490 .015377
ITEM: TIMESTEP
400
ITEM: NUMBER OF ATOMS
7
ITEM: BOX BOUNDS ss ss ss
-2.9150 3.4230
-2.9274 3.0944
-2.2578 1.7430
ITEM: ATOMS id type xs ys zs
1 1 .491368 .992022 .535831
2 1 .990248 .631693 .519593
3 1 .808500 .024346 .488547
4 1 .203616 .009867 .476738
5 1 .009099 .606996 .468862
6 1 .493704 .443273 .985089
7 1 .511479 .465074 .013886
ITEM: TIMESTEP
1
ITEM: NUMBER OF ATOMS
7
ITEM: BOX BOUNDS ss ss ss
-2.8890 3.3824
-2.9058 3.0686
-2.2320 1.7156
ITEM: ATOMS id type xs ys zs
1 1 .491143 .994751 .539602
2 1 .996202 .633902 .518504
3 1 .814933 .019730 .491941
4 1 .199388 .001809 .475639
5 1 .004045 .608082 .471198
6 1 .495974 .445654 .989435
7 1 .516523 .472590 .011690
ITEM: TIMESTEP
50
ITEM: NUMBER OF ATOMS
7
ITEM: BOX BOUNDS ss ss ss
-2.8921 3.3901
-2.9279 3.0686
-2.2320 1.7156
ITEM: ATOMS id type xs ys zs
1 1 .490704 .995103 .540085
2 1 .995624 .635433 .518116
3 1 .813902 .023375 .492164
4 1 .199084 .005247 .476353
5 1 .004251 .609102 .470565
6 1 .495504 .447508 .989439
7 1 .516281 .474766 .011460
ITEM: TIMESTEP
100
ITEM: NUMBER OF ATOMS
7
ITEM: BOX BOUNDS ss ss ss
-2.9090 3.4038
-2.9346 3.0788
-2.2320 1.7156
ITEM: ATOMS id type xs ys zs
1 1 .491083 .994215 .540360
2 1 .994764 .635362 .517798
3 1 .811905 .025244 .492686
4 1 .201295 .007062 .477226
5 1 .006723 .608073 .468580
6 1 .494978 .446831 .988968
7 1 .515860 .472908 .012041
ITEM: TIMESTEP
150
ITEM: NUMBER OF ATOMS
7
ITEM: BOX BOUNDS ss ss ss
-2.9021 3.4201
-2.9249 3.0916
-2.2320 1.7156
ITEM: ATOMS id type xs ys zs
1 1 .489718 .993016 .540235
2 1 .993373 .634049 .519158
3 1 .808785 .023703 .492807
4 1 .200447 .006580 .477180
5 1 .005244 .605660 .466976
6 1 .492585 .444999 .988244
7 1 .513559 .469011 .012771
ITEM: TIMESTEP
200
ITEM: NUMBER OF ATOMS
7
ITEM: BOX BOUNDS ss ss ss
-2.9104 3.4253
-2.9236 3.0929
-2.2353 1.7156
ITEM: ATOMS id type xs ys zs
1 1 .489836 .993226 .540264
2 1 .992754 .634393 .520071
3 1 .807658 .024149 .492715
4 1 .201788 .007391 .477282
5 1 .006412 .605207 .467037
6 1 .492888 .444727 .988184
7 1 .512875 .467908 .012785
ITEM: TIMESTEP
250
ITEM: NUMBER OF ATOMS
7
ITEM: BOX BOUNDS ss ss ss
-2.9139 3.4309
-2.9211 3.0960
-2.2320 1.7156
ITEM: ATOMS id type xs ys zs
1 1 .488840 .992852 .539774
2 1 .990906 .634221 .519912
3 1 .806791 .024522 .490732
4 1 .201993 .007729 .476009
5 1 .006689 .604701 .468555
6 1 .492959 .444139 .989058
7 1 .511074 .466761 .010944
ITEM: TIMESTEP
300
ITEM: NUMBER OF ATOMS
7
ITEM: BOX BOUNDS ss ss ss
-2.9184 3.4156
-2.9301 3.1058
-2.2320 1.7204
ITEM: ATOMS id type xs ys zs
1 1 .489714 .991521 .539109
2 1 .992305 .633617 .519283
3 1 .808934 .025594 .489294
4 1 .203268 .009641 .474687
5 1 .008032 .604470 .469358
6 1 .494776 .444152 .988419
7 1 .512192 .466137 .010374
ITEM: TIMESTEP
350
ITEM: NUMBER OF ATOMS
7
ITEM: BOX BOUNDS ss ss ss
-2.9259 3.4162
-2.9210 3.1052
-2.2372 1.7237
ITEM: ATOMS id type xs ys zs
1 1 .489928 .992083 .538628
2 1 .991505 .632888 .519710
3 1 .809589 .023129 .489730
4 1 .205041 .008462 .474427
5 1 .009825 .604365 .470059
6 1 .495529 .443522 .987771
7 1 .512937 .464598 .011388
ITEM: TIMESTEP
400
ITEM: NUMBER OF ATOMS
7
ITEM: BOX BOUNDS ss ss ss
-2.9170 3.4244
-2.9240 3.1030
-2.2383 1.7314
ITEM: ATOMS id type xs ys zs
1 1 .488160 .992872 .536978
2 1 .989919 .633152 .519315
3 1 .808696 .023160 .489552
4 1 .204378 .009200 .473732
5 1 .008566 .605135 .469484
6 1 .494366 .444065 .985896
7 1 .511664 .464763 .011678
ITEM: TIMESTEP
1
ITEM: NUMBER OF ATOMS
7
ITEM: BOX BOUNDS ss ss ss
-2.8890 3.3860
-2.9058 3.0926
-2.2320 1.7156
ITEM: ATOMS id type xs ys zs
1 1 .490866 .990771 .539602
2 1 .995637 .631369 .518501
3 1 .814474 .019650 .491941
4 1 .199274 .001796 .475636
5 1 .004042 .605655 .471200
6 1 .495697 .443874 .989433
7 1 .516233 .470701 .011695
ITEM: TIMESTEP
50
ITEM: NUMBER OF ATOMS
7
ITEM: BOX BOUNDS ss ss ss
-2.8953 3.3912
-2.9243 3.0926
-2.2320 1.7156
ITEM: ATOMS id type xs ys zs
1 1 .491023 .991236 .540054
2 1 .995454 .632769 .517919
3 1 .813814 .022785 .492080
4 1 .199315 .004539 .476265
5 1 .004834 .606555 .470619
6 1 .495874 .445368 .989438
7 1 .516606 .472666 .011743
ITEM: TIMESTEP
100
ITEM: NUMBER OF ATOMS
7
ITEM: BOX BOUNDS ss ss ss
-2.9036 3.4034
-2.9300 3.0926
-2.2320 1.7156
ITEM: ATOMS id type xs ys zs
1 1 .490589 .992816 .541426
2 1 .994994 .633170 .516151
3 1 .810609 .024153 .492920
4 1 .199960 .005673 .476186
5 1 .005624 .606149 .471256
6 1 .495012 .444226 .990098
7 1 .514864 .472477 .012390
ITEM: TIMESTEP
150
ITEM: NUMBER OF ATOMS
7
ITEM: BOX BOUNDS ss ss ss
-2.9177 3.4167
-2.9317 3.0926
-2.2320 1.7173
ITEM: ATOMS id type xs ys zs
1 1 .490359 .993471 .542431
2 1 .993839 .633048 .515597
3 1 .808476 .024428 .492840
4 1 .201314 .006750 .476846
5 1 .008003 .605202 .470767
6 1 .495175 .444003 .989493
7 1 .514296 .471880 .012121
ITEM: TIMESTEP
200
ITEM: NUMBER OF ATOMS
7
ITEM: BOX BOUNDS ss ss ss
-2.9159 3.4204
-2.9370 3.1130
-2.2320 1.7280
ITEM: ATOMS id type xs ys zs
1 1 .491137 .990597 .540809
2 1 .994100 .630181 .514808
3 1 .807475 .024042 .492383
4 1 .202727 .009281 .477310
5 1 .008391 .603372 .467167
6 1 .494753 .443547 .986832
7 1 .514651 .470351 .011059
ITEM: TIMESTEP
250
ITEM: NUMBER OF ATOMS
7
ITEM: BOX BOUNDS ss ss ss
-2.9099 3.4313
-2.9361 3.1083
-2.2468 1.7258
ITEM: ATOMS id type xs ys zs
1 1 .490833 .991988 .542224
2 1 .992940 .629748 .517671
3 1 .805564 .023227 .494644
4 1 .203135 .010238 .480220
5 1 .008005 .604059 .467657
6 1 .493655 .444540 .987166
7 1 .513944 .470075 .014072
ITEM: TIMESTEP
300
ITEM: NUMBER OF ATOMS
7
ITEM: BOX BOUNDS ss ss ss
-2.9258 3.4367
-2.9338 3.1106
-2.2532 1.7407
ITEM: ATOMS id type xs ys zs
1 1 .491901 .991892 .540894
2 1 .992341 .629047 .517078
3 1 .805374 .022214 .492942
4 1 .205138 .010719 .478824
5 1 .010465 .604242 .465567
6 1 .494943 .444503 .983166
7 1 .514709 .468815 .015687
ITEM: TIMESTEP
350
ITEM: NUMBER OF ATOMS
7
ITEM: BOX BOUNDS ss ss ss
-2.9166 3.4336
-2.9338 3.1151
-2.2409 1.7275
ITEM: ATOMS id type xs ys zs
1 1 .490950 .990837 .541510
2 1 .992426 .628011 .517814
3 1 .805406 .021487 .492640
4 1 .204439 .011421 .478328
5 1 .009062 .604141 .464519
6 1 .494818 .443991 .986409
7 1 .514002 .467685 .011956
ITEM: TIMESTEP
400
ITEM: NUMBER OF ATOMS
7
ITEM: BOX BOUNDS ss ss ss
-2.9104 3.4388
-2.9161 3.1195
-2.2452 1.7256
ITEM: ATOMS id type xs ys zs
1 1 .489605 .989862 .542182
2 1 .991280 .626190 .518839
3 1 .804593 .018340 .493070
4 1 .203922 .008628 .479001
5 1 .008209 .602669 .464938
6 1 .494166 .441966 .986983
7 1 .512661 .465075 .012574
ITEM: TIMESTEP
1
ITEM: NUMBER OF ATOMS
7
ITEM: BOX BOUNDS ss ss ss
-2.8890 3.4199
-2.9058 3.0862
-2.2320 1.7156
ITEM: ATOMS id type xs ys zs
1 1 .488230 .991820 .539601
2 1 .990288 .632034 .518503
3 1 .810092 .019670 .491942
4 1 .198202 .001800 .475642
5 1 .004019 .606292 .471203
6 1 .493028 .444344 .989427
7 1 .513458 .471206 .011690
ITEM: TIMESTEP
50
ITEM: NUMBER OF ATOMS
7
ITEM: BOX BOUNDS ss ss ss
-2.8980 3.4199
-2.9282 3.0862
-2.2320 1.7156
ITEM: ATOMS id type xs ys zs
1 1 .488861 .992118 .540110
2 1 .990946 .633466 .518008
3 1 .810269 .023262 .492163
4 1 .198744 .005049 .476406
5 1 .005150 .607554 .470639
6 1 .493763 .446138 .989406
7 1 .514487 .473581 .011850
ITEM: TIMESTEP
100
ITEM: NUMBER OF ATOMS
7
ITEM: BOX BOUNDS ss ss ss
-2.9060 3.4199
-2.9345 3.0862
-2.2320 1.7156
ITEM: ATOMS id type xs ys zs
1 1 .489754 .993638 .540656
2 1 .992569 .633723 .518300
3 1 .810176 .024358 .491691
4 1 .200419 .006650 .477321
5 1 .006500 .607946 .470064
6 1 .494110 .445415 .989097
7 1 .514369 .473660 .012049
ITEM: TIMESTEP
150
ITEM: NUMBER OF ATOMS
7
ITEM: BOX BOUNDS ss ss ss
-2.9091 3.4325
-2.9308 3.0928
-2.2320 1.7156
ITEM: ATOMS id type xs ys zs
1 1 .488805 .993617 .541250
2 1 .991590 .633306 .518877
3 1 .807937 .024379 .491354
4 1 .201010 .006353 .477750
5 1 .006967 .606732 .469480
6 1 .493350 .444122 .988224
7 1 .512794 .472164 .011884
ITEM: TIMESTEP
200
ITEM: NUMBER OF ATOMS
7
ITEM: BOX BOUNDS ss ss ss
-2.9126 3.4388
-2.9400 3.1024
-2.2389 1.7214
ITEM: ATOMS id type xs ys zs
1 1 .488883 .993016 .542031
2 1 .990367 .633727 .519312
3 1 .806487 .026351 .490698
4 1 .202053 .008180 .478384
5 1 .007514 .606311 .468649
6 1 .492456 .443946 .986581
7 1 .511837 .471723 .012871
ITEM: TIMESTEP
250
ITEM: NUMBER OF ATOMS
7
ITEM: BOX BOUNDS ss ss ss
-2.9155 3.4330
-2.9361 3.1168
-2.2441 1.7156
ITEM: ATOMS id type xs ys zs
1 1 .490046 .991367 .545376
2 1 .991320 .632085 .519952
3 1 .807174 .025926 .491461
4 1 .203523 .007603 .479474
5 1 .008398 .604876 .468748
6 1 .492644 .442592 .988063
7 1 .512124 .469449 .014041
ITEM: TIMESTEP
300
ITEM: NUMBER OF ATOMS
7
ITEM: BOX BOUNDS ss ss ss
-2.9156 3.4270
-2.9485 3.1171
-2.2336 1.7214
ITEM: ATOMS id type xs ys zs
1 1 .490798 .991249 .545115
2 1 .992535 .632598 .517572
3 1 .808407 .028288 .489184
4 1 .204884 .009858 .476851
5 1 .009178 .606116 .465195
6 1 .493380 .443640 .987028
7 1 .512795 .469370 .011426
ITEM: TIMESTEP
350
ITEM: NUMBER OF ATOMS
7
ITEM: BOX BOUNDS ss ss ss
-2.9047 3.4296
-2.9388 3.1187
-2.2416 1.7223
ITEM: ATOMS id type xs ys zs
1 1 .489790 .991175 .546503
2 1 .992261 .631334 .518568
3 1 .807828 .026412 .489561
4 1 .204121 .009082 .477831
5 1 .007710 .605693 .465167
6 1 .492565 .443024 .987037
7 1 .511878 .467814 .013146
ITEM: TIMESTEP
400
ITEM: NUMBER OF ATOMS
7
ITEM: BOX BOUNDS ss ss ss
-2.9067 3.4304
-2.9362 3.1209
-2.2385 1.7211
ITEM: ATOMS id type xs ys zs
1 1 .489951 .991058 .546839
2 1 .991884 .630620 .518581
3 1 .807937 .025614 .488671
4 1 .204487 .009462 .477627
5 1 .007891 .605290 .464454
6 1 .492728 .442900 .987718
7 1 .511867 .467012 .012419
ITEM: TIMESTEP
1
ITEM: NUMBER OF ATOMS
7
ITEM: BOX BOUNDS ss ss ss
-2.8890 3.4053
-2.9069 3.1022
-2.2320 1.7156
ITEM: ATOMS id type xs ys zs
1 1 .489362 .989187 .539605
2 1 .992579 .630422 .518499
3 1 .811971 .019792 .491942
4 1 .198658 .001972 .475647
5 1 .004030 .604755 .471198
6 1 .494168 .443266 .989436
7 1 .514647 .470047 .011695
ITEM: TIMESTEP
50
ITEM: NUMBER OF ATOMS
7
ITEM: BOX BOUNDS ss ss ss
-2.8936 3.4053
-2.9276 3.1022
-2.2320 1.7156
ITEM: ATOMS id type xs ys zs
1 1 .489712 .989516 .540364
2 1 .993385 .631835 .518077
3 1 .811929 .023119 .492047
4 1 .198636 .005099 .476440
5 1 .004355 .605735 .470690
6 1 .494612 .444819 .989212
7 1 .515307 .472232 .011692
ITEM: TIMESTEP
100
ITEM: NUMBER OF ATOMS
7
ITEM: BOX BOUNDS ss ss ss
-2.8999 3.4054
-2.9355 3.1022
-2.2320 1.7156
ITEM: ATOMS id type xs ys zs
1 1 .490167 .990645 .541690
2 1 .994748 .633162 .518193
3 1 .811695 .024843 .491963
4 1 .199176 .006546 .477497
5 1 .005054 .605248 .469531
6 1 .494595 .444093 .987824
7 1 .515604 .471660 .010505
ITEM: TIMESTEP
150
ITEM: NUMBER OF ATOMS
7
ITEM: BOX BOUNDS ss ss ss
-2.9047 3.4144
-2.9468 3.1022
-2.2378 1.7156
ITEM: ATOMS id type xs ys zs
1 1 .489722 .991248 .543378
2 1 .994267 .634162 .519111
3 1 .810095 .027109 .493282
4 1 .199665 .008922 .479139
5 1 .005678 .604925 .469889
6 1 .494121 .444026 .987136
7 1 .514725 .472076 .011516
ITEM: TIMESTEP
200
ITEM: NUMBER OF ATOMS
7
ITEM: BOX BOUNDS ss ss ss
-2.9072 3.4311
-2.9419 3.1022
-2.2389 1.7156
ITEM: ATOMS id type xs ys zs
1 1 .488830 .992182 .544297
2 1 .992216 .633909 .519099
3 1 .807042 .026348 .494157
4 1 .200439 .008810 .479170
5 1 .006551 .604547 .470013
6 1 .492773 .443266 .987077
7 1 .513221 .471575 .011505
ITEM: TIMESTEP
250
ITEM: NUMBER OF ATOMS
7
ITEM: BOX BOUNDS ss ss ss
-2.9137 3.4374
-2.9334 3.1071
-2.2460 1.7156
ITEM: ATOMS id type xs ys zs
1 1 .489107 .992141 .546428
2 1 .990377 .632150 .520700
3 1 .805695 .024708 .495411
4 1 .201474 .007795 .479587
5 1 .007938 .604103 .471165
6 1 .492710 .442448 .987115
7 1 .512035 .469777 .013009
ITEM: TIMESTEP
300
ITEM: NUMBER OF ATOMS
7
ITEM: BOX BOUNDS ss ss ss
-2.9095 3.4317
-2.9276 3.1173
-2.2413 1.7156
ITEM: ATOMS id type xs ys zs
1 1 .488172 .990708 .547672
2 1 .987390 .630010 .521490
3 1 .806673 .023536 .492146
4 1 .200475 .007727 .480091
5 1 .008118 .603399 .470911
6 1 .492706 .440474 .988289
7 1 .510501 .466827 .010471
ITEM: TIMESTEP
350
ITEM: NUMBER OF ATOMS
7
ITEM: BOX BOUNDS ss ss ss
-2.8994 3.4197
-2.9366 3.1159
-2.2470 1.7288
ITEM: ATOMS id type xs ys zs
1 1 .487780 .990450 .547363