ITEM: TIMESTEP
1
ITEM: NUMBER OF ATOMS
7
ITEM: BOX BOUNDS ss ss ss
-2.8716 3.3478
-2.5687 3.3404
-1.8585 1.9896
ITEM: ATOMS id type xs ys zs
1 1 .486679 .999505 .486325
2 1 .999353 .630609 .588073
3 1 .818490 .017903 .593312
4 1 .206640 .000634 .466143
5 1 .000565 .618223 .403038
6 1 .470850 .459042 .999208
7 1 .533032 .450956 .000993
ITEM: TIMESTEP
50
ITEM: NUMBER OF ATOMS
7
ITEM: BOX BOUNDS ss ss ss
-2.8992 3.3724
-2.5980 3.3656
-1.8813 2.0130
ITEM: ATOMS id type xs ys zs
1 1 .486081 .995820 .484817
2 1 .994180 .630944 .587948
3 1 .814837 .021791 .589552
4 1 .209049 .006650 .466833
5 1 .004483 .616130 .403375
6 1 .470055 .461165 .994629
7 1 .534496 .450741 .007065
ITEM: TIMESTEP
100
ITEM: NUMBER OF ATOMS
7
ITEM: BOX BOUNDS ss ss ss
-2.9105 3.3811
-2.6065 3.3891
-1.8955 2.0262
ITEM: ATOMS id type xs ys zs
1 1 .487251 .992881 .485426
2 1 .991265 .629821 .584987
3 1 .813488 .021832 .586807
4 1 .210141 .008241 .466973
5 1 .006198 .614665 .407289
6 1 .471519 .460718 .994205
7 1 .533636 .447713 .008940
ITEM: TIMESTEP
150
ITEM: NUMBER OF ATOMS
7
ITEM: BOX BOUNDS ss ss ss
-2.9161 3.3869
-2.5978 3.3994
-1.8937 2.0335
ITEM: ATOMS id type xs ys zs
1 1 .489454 .991749 .483073
2 1 .990863 .628375 .584802
3 1 .813904 .021743 .587519
4 1 .210060 .007999 .468046
5 1 .007533 .612453 .406307
6 1 .469195 .459033 .992414
7 1 .534328 .445491 .011398
ITEM: TIMESTEP
200
ITEM: NUMBER OF ATOMS
7
ITEM: BOX BOUNDS ss ss ss
-2.9176 3.3837
-2.5985 3.4064
-1.8913 2.0442
ITEM: ATOMS id type xs ys zs
1 1 .489969 .989276 .479842
2 1 .989587 .628155 .581395
3 1 .813168 .020550 .583807
4 1 .207805 .006930 .468457
5 1 .008238 .610657 .405547
6 1 .467973 .459299 .987731
7 1 .536422 .442853 .007291
ITEM: TIMESTEP
250
ITEM: NUMBER OF ATOMS
7
ITEM: BOX BOUNDS ss ss ss
-2.9148 3.3775
-2.5965 3.3975
-1.8927 2.0470
ITEM: ATOMS id type xs ys zs
1 1 .491155 .992071 .478067
2 1 .989997 .628315 .579234
3 1 .813035 .018871 .583797
4 1 .208427 .007063 .469698
5 1 .009505 .612477 .402472
6 1 .469206 .460758 .989488
7 1 .536612 .440941 .009206
ITEM: TIMESTEP
300
ITEM: NUMBER OF ATOMS
7
ITEM: BOX BOUNDS ss ss ss
-2.9167 3.3762
-2.6036 3.3996
-1.8990 2.0597
ITEM: ATOMS id type xs ys zs
1 1 .491220 .993879 .477078
2 1 .990996 .629550 .575390
3 1 .815598 .020782 .575430
4 1 .209430 .006982 .467837
5 1 .009676 .609010 .402768
6 1 .470511 .461110 .986871
7 1 .536339 .442921 .010364
ITEM: TIMESTEP
350
ITEM: NUMBER OF ATOMS
7
ITEM: BOX BOUNDS ss ss ss
-2.9144 3.3726
-2.5974 3.3940
-1.8943 2.0601
ITEM: ATOMS id type xs ys zs
1 1 .492719 .993447 .476375
2 1 .991181 .628996 .577226
3 1 .814160 .018323 .577835
4 1 .208501 .006243 .467002
5 1 .009724 .608228 .400790
6 1 .469694 .461822 .985881
7 1 .537939 .441030 .011049
ITEM: TIMESTEP
400
ITEM: NUMBER OF ATOMS
7
ITEM: BOX BOUNDS ss ss ss
-2.9143 3.3730
-2.6054 3.4017
-1.8929 2.0652
ITEM: ATOMS id type xs ys zs
1 1 .495494 .993872 .474656
2 1 .991207 .630206 .578636
3 1 .811696 .020785 .579556
4 1 .208127 .009194 .466588
5 1 .010026 .611679 .401778
6 1 .468842 .463590 .987437
7 1 .537870 .443846 .011939
ITEM: TIMESTEP
1
ITEM: NUMBER OF ATOMS
7
ITEM: BOX BOUNDS ss ss ss
-2.8757 3.3485
-2.5989 3.3810
-1.8707 2.0427
ITEM: ATOMS id type xs ys zs
1 1 .486947 .992758 .481297
2 1 .999244 .628147 .581374
3 1 .818497 .022738 .586558
4 1 .207124 .005696 .461501
5 1 .001240 .615955 .399437
6 1 .471143 .458661 .985600
7 1 .533278 .450664 .004088
ITEM: TIMESTEP
50
ITEM: NUMBER OF ATOMS
7
ITEM: BOX BOUNDS ss ss ss
-2.8984 3.3741
-2.5989 3.3810
-1.8823 2.0427
ITEM: ATOMS id type xs ys zs
1 1 .487534 .993822 .484765
2 1 .992748 .629480 .581369
3 1 .817496 .021863 .585505
4 1 .209984 .006113 .462079
5 1 .002761 .614974 .402687
6 1 .470078 .458135 .988324
7 1 .533374 .448531 .005680
ITEM: TIMESTEP
100
ITEM: NUMBER OF ATOMS
7
ITEM: BOX BOUNDS ss ss ss
-2.9187 3.3757
-2.5989 3.3810
-1.8948 2.0427
ITEM: ATOMS id type xs ys zs
1 1 .489384 .992891 .484764
2 1 .992158 .629782 .582648
3 1 .816954 .022061 .584618
4 1 .212203 .007438 .462082
5 1 .006346 .614081 .404022
6 1 .469523 .458422 .991361
7 1 .535592 .448020 .008131
ITEM: TIMESTEP
150
ITEM: NUMBER OF ATOMS
7
ITEM: BOX BOUNDS ss ss ss
-2.9179 3.3701
-2.5989 3.3810
-1.8963 2.0436
ITEM: ATOMS id type xs ys zs
1 1 .490743 .994034 .485267
2 1 .991105 .631360 .583137
3 1 .817942 .021399 .584044
4 1 .211674 .005927 .463835
5 1 .007631 .614421 .404163
6 1 .468181 .458309 .990426
7 1 .536669 .447957 .009933
ITEM: TIMESTEP
200
ITEM: NUMBER OF ATOMS
7
ITEM: BOX BOUNDS ss ss ss
-2.9223 3.3799
-2.5989 3.3859
-1.8975 2.0431
ITEM: ATOMS id type xs ys zs
1 1 .491324 .992025 .482259
2 1 .991383 .629721 .584112
3 1 .814702 .021766 .584285
4 1 .213005 .005776 .464837
5 1 .009537 .612067 .405171
6 1 .467881 .460756 .995586
7 1 .538886 .446041 .011883
ITEM: TIMESTEP
250
ITEM: NUMBER OF ATOMS
7
ITEM: BOX BOUNDS ss ss ss
-2.9282 3.3740
-2.5989 3.3871
-1.8979 2.0510
ITEM: ATOMS id type xs ys zs
1 1 .493546 .995507 .485365
2 1 .990038 .629457 .583067
3 1 .816332 .019795 .582146
4 1 .213031 .008911 .461823
5 1 .010303 .611213 .402179
6 1 .467540 .460192 .989174
7 1 .539540 .447257 .012722
ITEM: TIMESTEP
300
ITEM: NUMBER OF ATOMS
7
ITEM: BOX BOUNDS ss ss ss
-2.9236 3.3747
-2.5999 3.3919
-1.8934 2.0539
ITEM: ATOMS id type xs ys zs
1 1 .494515 .993698 .482349
2 1 .991281 .630032 .577199
3 1 .815689 .020162 .579839
4 1 .213273 .005929 .459702
5 1 .010351 .607170 .405269
6 1 .469753 .457967 .988424
7 1 .540192 .445659 .011457
ITEM: TIMESTEP
350
ITEM: NUMBER OF ATOMS
7
ITEM: BOX BOUNDS ss ss ss
-2.9207 3.3714
-2.6067 3.4002
-1.8919 2.0612
ITEM: ATOMS id type xs ys zs
1 1 .495584 .992248 .481276
2 1 .991501 .629915 .577770
3 1 .815489 .020406 .578321
4 1 .212252 .006110 .459703
5 1 .011048 .606532 .404034
6 1 .470157 .458852 .987921
7 1 .539934 .445039 .011028
ITEM: TIMESTEP
400
ITEM: NUMBER OF ATOMS
7
ITEM: BOX BOUNDS ss ss ss
-2.9130 3.3715
-2.6039 3.4015
-1.8993 2.0653
ITEM: ATOMS id type xs ys zs
1 1 .494242 .991653 .480460
2 1 .991608 .629869 .578975
3 1 .815070 .018898 .577673
4 1 .210670 .005157 .460624
5 1 .010524 .605779 .405344
6 1 .469430 .457785 .987492
7 1 .539238 .444164 .012434
ITEM: TIMESTEP
1
ITEM: NUMBER OF ATOMS
7
ITEM: BOX BOUNDS ss ss ss
-2.8842 3.3478
-2.5841 3.3877
-1.8840 2.0413
ITEM: ATOMS id type xs ys zs
1 1 .487696 .991611 .483286
2 1 .999355 .626536 .582946
3 1 .818836 .020297 .588148
4 1 .208227 .003251 .463497
5 1 .002582 .614333 .401622
6 1 .471890 .456799 .986024
7 1 .533932 .448787 .007456
ITEM: TIMESTEP
50
ITEM: NUMBER OF ATOMS
7
ITEM: BOX BOUNDS ss ss ss
-2.8977 3.3764
-2.5923 3.3877
-1.8840 2.0413
ITEM: ATOMS id type xs ys zs
1 1 .488135 .993382 .484208
2 1 .993996 .628382 .581742
3 1 .816802 .020919 .586135
4 1 .210063 .004753 .462931
5 1 .004648 .613421 .402496
6 1 .470608 .457551 .987183
7 1 .534064 .449738 .008108
ITEM: TIMESTEP
100
ITEM: NUMBER OF ATOMS
7
ITEM: BOX BOUNDS ss ss ss
-2.9105 3.3860
-2.6021 3.3877
-1.8901 2.0413
ITEM: ATOMS id type xs ys zs
1 1 .489728 .993909 .486061
2 1 .991331 .629948 .581401
3 1 .814871 .021418 .586724
4 1 .211468 .007425 .463803
5 1 .007308 .614290 .404595
6 1 .470033 .458684 .987833
7 1 .534837 .449922 .010655
ITEM: TIMESTEP
150
ITEM: NUMBER OF ATOMS
7
ITEM: BOX BOUNDS ss ss ss
-2.9164 3.3814
-2.5966 3.3877
-1.8904 2.0413
ITEM: ATOMS id type xs ys zs
1 1 .488948 .994648 .481697
2 1 .991138 .631800 .582480
3 1 .815651 .018583 .584158
4 1 .210407 .005427 .459536
5 1 .008188 .613079 .404410
6 1 .469889 .460239 .986062
7 1 .535202 .445949 .009933
ITEM: TIMESTEP
200
ITEM: NUMBER OF ATOMS
7
ITEM: BOX BOUNDS ss ss ss
-2.9209 3.3802
-2.5951 3.3924
-1.8925 2.0413
ITEM: ATOMS id type xs ys zs
1 1 .490093 .995174 .482111
2 1 .988512 .629833 .579279
3 1 .816081 .017098 .584809
4 1 .211395 .006997 .460594
5 1 .008354 .611474 .402989
6 1 .470123 .460789 .987396
7 1 .536294 .446466 .008791
ITEM: TIMESTEP
250
ITEM: NUMBER OF ATOMS
7
ITEM: BOX BOUNDS ss ss ss
-2.9203 3.3772
-2.6036 3.3973
-1.8930 2.0413
ITEM: ATOMS id type xs ys zs
1 1 .490110 .994268 .485574
2 1 .990021 .630335 .581434
3 1 .816589 .020242 .583388
4 1 .211904 .007630 .462213
5 1 .010131 .610349 .403845
6 1 .471217 .459859 .988775
7 1 .537191 .446451 .009588
ITEM: TIMESTEP
300
ITEM: NUMBER OF ATOMS
7
ITEM: BOX BOUNDS ss ss ss
-2.9179 3.3720
-2.6033 3.4035
-1.8962 2.0495
ITEM: ATOMS id type xs ys zs
1 1 .490706 .993420 .483137
2 1 .990819 .630331 .579276
3 1 .816994 .019660 .581060
4 1 .211320 .009804 .462372
5 1 .009809 .609800 .404162
6 1 .470904 .459160 .987089
7 1 .538191 .446431 .010390
ITEM: TIMESTEP
350
ITEM: NUMBER OF ATOMS
7
ITEM: BOX BOUNDS ss ss ss
-2.9096 3.3772
-2.6049 3.4080
-1.8980 2.0479
ITEM: ATOMS id type xs ys zs
1 1 .490005 .994028 .480366
2 1 .989173 .629173 .579951
3 1 .814280 .019707 .580322
4 1 .209318 .007993 .461106
5 1 .009391 .609002 .405452
6 1 .469070 .460134 .986224
7 1 .537349 .446212 .011812
ITEM: TIMESTEP
400
ITEM: NUMBER OF ATOMS
7
ITEM: BOX BOUNDS ss ss ss
-2.9142 3.3790
-2.6046 3.4122
-1.9057 2.0534
ITEM: ATOMS id type xs ys zs
1 1 .490328 .992335 .484702
2 1 .987722 .629354 .577126
3 1 .813400 .018715 .576449
4 1 .209871 .008384 .460791
5 1 .008759 .607416 .402386
6 1 .468955 .457520 .989061
7 1 .537671 .444674 .014136
ITEM: TIMESTEP
1
ITEM: NUMBER OF ATOMS
7
ITEM: BOX BOUNDS ss ss ss
-2.8842 3.3775
-2.5976 3.3909
-1.8840 2.0413
ITEM: ATOMS id type xs ys zs
1 1 .485381 .991092 .483247
2 1 .994606 .627043 .582994
3 1 .814926 .022506 .588166
4 1 .207233 .005504 .463474
5 1 .002556 .614868 .401632
6 1 .469666 .457781 .986015
7 1 .531417 .449813 .007452
ITEM: TIMESTEP
50
ITEM: NUMBER OF ATOMS
7
ITEM: BOX BOUNDS ss ss ss
-2.8961 3.3781
-2.5976 3.3909
-1.8840 2.0413
ITEM: ATOMS id type xs ys zs
1 1 .488062 .991288 .484204
2 1 .994810 .627577 .581577
3 1 .815802 .021606 .587254
4 1 .208934 .005650 .462345
5 1 .002740 .612107 .402689
6 1 .470159 .457920 .989127
7 1 .532095 .448559 .007916
ITEM: TIMESTEP
100
ITEM: NUMBER OF ATOMS
7
ITEM: BOX BOUNDS ss ss ss
-2.9103 3.3798
-2.5985 3.3909
-1.8915 2.0413
ITEM: ATOMS id type xs ys zs
1 1 .487949 .993109 .484718
2 1 .994336 .628726 .584346
3 1 .813991 .022440 .583849
4 1 .209601 .006250 .464175
5 1 .007153 .614004 .402082
6 1 .469614 .462181 .986269
7 1 .536116 .447319 .007646
ITEM: TIMESTEP
150
ITEM: NUMBER OF ATOMS
7
ITEM: BOX BOUNDS ss ss ss
-2.9193 3.3862
-2.6127 3.3932
-1.8959 2.0413
ITEM: ATOMS id type xs ys zs
1 1 .488323 .991859 .485311
2 1 .990931 .630738 .582473
3 1 .814767 .024757 .587869
4 1 .209165 .008190 .467329
5 1 .007446 .612450 .403026
6 1 .468604 .463016 .988148
7 1 .536979 .447603 .011289
ITEM: TIMESTEP
200
ITEM: NUMBER OF ATOMS
7
ITEM: BOX BOUNDS ss ss ss
-2.9259 3.3922
-2.6021 3.3939
-1.9023 2.0413
ITEM: ATOMS id type xs ys zs
1 1 .492280 .996691 .489257
2 1 .993572 .628212 .583842
3 1 .814052 .021830 .581688
4 1 .209690 .008488 .467022
5 1 .010490 .612069 .403577
6 1 .468805 .463946 .986594
7 1 .537822 .448621 .010977
ITEM: TIMESTEP
250
ITEM: NUMBER OF ATOMS
7
ITEM: BOX BOUNDS ss ss ss
-2.9314 3.3934
-2.6043 3.3990
-1.8974 2.0518
ITEM: ATOMS id type xs ys zs
1 1 .488778 .991192 .485296
2 1 .988503 .629434 .582582
3 1 .817031 .020711 .581108
4 1 .214613 .006363 .462626
5 1 .010628 .609844 .408458
6 1 .470272 .457513 .987999
7 1 .536336 .443125 .010883
ITEM: TIMESTEP
300
ITEM: NUMBER OF ATOMS
7
ITEM: BOX BOUNDS ss ss ss
-2.9334 3.3920
-2.6045 3.4065
-1.8989 2.0447
ITEM: ATOMS id type xs ys zs
1 1 .490263 .990839 .488396
2 1 .987126 .628537 .583966
3 1 .814040 .019616 .586221
4 1 .213604 .005681 .466260
5 1 .012284 .610228 .405443
6 1 .468431 .457150 .991634
7 1 .537656 .442559 .014286
ITEM: TIMESTEP
350
ITEM: NUMBER OF ATOMS
7
ITEM: BOX BOUNDS ss ss ss
-2.9373 3.3866
-2.6134 3.4118
-1.8955 2.0545
ITEM: ATOMS id type xs ys zs
1 1 .493371 .990053 .487335
2 1 .990015 .626991 .581268
3 1 .813177 .023274 .582365
4 1 .212122 .010254 .465320
5 1 .011996 .608368 .403677
6 1 .468701 .459339 .989094
7 1 .539054 .445664 .011577
ITEM: TIMESTEP
400
ITEM: NUMBER OF ATOMS
7
ITEM: BOX BOUNDS ss ss ss
-2.9297 3.3823
-2.6097 3.4097
-1.8948 2.0637
ITEM: ATOMS id type xs ys zs
1 1 .494207 .990411 .483576
2 1 .991298 .627373 .575823
3 1 .814332 .020803 .579993
4 1 .213510 .007909 .466283
5 1 .010823 .606625 .403885
6 1 .470123 .459571 .987339
7 1 .538294 .443502 .015251
ITEM: TIMESTEP
1
ITEM: NUMBER OF ATOMS
7
ITEM: BOX BOUNDS ss ss ss
-2.8883 3.3526
-2.6027 3.3926
-1.8690 2.0485
ITEM: ATOMS id type xs ys zs
1 1 .487659 .990881 .480263
2 1 .998542 .627218 .580337
3 1 .818366 .023380 .585469
4 1 .208522 .006360 .460626
5 1 .003281 .614952 .398707
6 1 .471868 .458089 .984143
7 1 .533879 .450113 .003547
ITEM: TIMESTEP
50
ITEM: NUMBER OF ATOMS
7
ITEM: BOX BOUNDS ss ss ss
-2.8977 3.3753
-2.6027 3.3926
-1.8877 2.0485
ITEM: ATOMS id type xs ys zs
1 1 .488048 .991907 .483266
2 1 .994335 .627105 .581935
3 1 .815600 .022649 .585286
4 1 .209354 .006531 .463428
5 1 .003892 .613407 .401964
6 1 .470557 .458306 .985460
7 1 .533099 .449296 .007739
ITEM: TIMESTEP
100
ITEM: NUMBER OF ATOMS
7
ITEM: BOX BOUNDS ss ss ss
-2.9123 3.3838
-2.6027 3.3926
-1.8908 2.0485
ITEM: ATOMS id type xs ys zs
1 1 .490383 .992651 .483360
2 1 .992472 .626214 .582554
3 1 .814530 .022121 .584253
4 1 .210421 .005760 .465281
5 1 .007439 .612857 .405051
6 1 .469379 .459186 .986621
7 1 .534644 .450179 .004868
ITEM: TIMESTEP
150
ITEM: NUMBER OF ATOMS
7
ITEM: BOX BOUNDS ss ss ss
-2.9232 3.3837
-2.6108 3.3926
-1.8994 2.0485
ITEM: ATOMS id type xs ys zs
1 1 .488757 .994132 .485895
2 1 .991052 .630167 .583590
3 1 .812840 .023431 .586460
4 1 .211797 .006270 .465114
5 1 .007960 .612820 .405928
6 1 .468721 .458707 .987128
7 1 .535303 .445344 .009072
ITEM: TIMESTEP
200
ITEM: NUMBER OF ATOMS
7
ITEM: BOX BOUNDS ss ss ss
-2.9287 3.3761
-2.6047 3.3962
-1.9056 2.0485
ITEM: ATOMS id type xs ys zs
1 1 .492799 .995501 .486027
2 1 .993050 .631126 .582043
3 1 .816855 .020987 .585226
4 1 .212877 .009769 .458182
5 1 .008289 .611990 .405836
6 1 .471772 .460727 .987614
7 1 .539505 .451040 .013661
ITEM: TIMESTEP
250
ITEM: NUMBER OF ATOMS
7
ITEM: BOX BOUNDS ss ss ss
-2.9295 3.3705
-2.6074 3.4044
-1.8964 2.0485
ITEM: ATOMS id type xs ys zs
1 1 .493366 .994692 .485955
2 1 .991723 .628610 .578512
3 1 .816080 .020850 .586021
4 1 .210668 .008445 .461117
5 1 .010186 .611104 .402766
6 1 .470445 .459758 .986505
7 1 .536848 .447062 .013658
ITEM: TIMESTEP
300
ITEM: NUMBER OF ATOMS
7
ITEM: BOX BOUNDS ss ss ss
-2.9192 3.3714
-2.6153 3.4109
-1.8970 2.0485
ITEM: ATOMS id type xs ys zs
1 1 .494395 .993879 .482851
2 1 .992912 .626233 .582371
3 1 .817107 .021088 .584107
4 1 .208540 .014220 .458634
5 1 .010919 .614016 .400736
6 1 .467796 .460741 .988838
7 1 .540378 .447532 .011597
ITEM: TIMESTEP
350
ITEM: NUMBER OF ATOMS
7
ITEM: BOX BOUNDS ss ss ss
-2.9243 3.3726
-2.6108 3.4159
-1.8927 2.0485
ITEM: ATOMS id type xs ys zs
1 1 .497788 .994418 .482110
2 1 .993575 .627182 .581712
3 1 .817010 .020644 .582916
4 1 .208907 .013488 .455978
5 1 .013702 .614806 .399432
6 1 .468834 .460271 .988879
7 1 .542663 .446683 .009843
ITEM: TIMESTEP
400
ITEM: NUMBER OF ATOMS
7
ITEM: BOX BOUNDS ss ss ss
-2.9235 3.3779
-2.6125 3.4220
-1.8871 2.0485
ITEM: ATOMS id type xs ys zs
1 1 .495874 .993911 .484672
2 1 .991689 .629055 .581001
3 1 .814198 .020841 .580749
4 1 .208013 .014292 .457245
5 1 .014039 .614494 .398958
6 1 .468557 .460701 .991044
7 1 .542736 .446364 .008891
ITEM: TIMESTEP
1
ITEM: NUMBER OF ATOMS
7
ITEM: BOX BOUNDS ss ss ss
-2.8976 3.3527
-2.6027 3.4006
-1.8690 2.0485
ITEM: ATOMS id type xs ys zs
1 1 .488404 .989523 .480402
2 1 .998552 .626359 .580364
3 1 .818584 .023308 .585425
4 1 .209733 .006322 .460536
5 1 .004741 .614218 .398544
6 1 .472648 .457537 .984110
7 1 .534565 .449499 .003607
ITEM: TIMESTEP
50
ITEM: NUMBER OF ATOMS
7
ITEM: BOX BOUNDS ss ss ss
-2.8984 3.3777
-2.6027 3.4006
-1.8848 2.0485
ITEM: ATOMS id type xs ys zs
1 1 .488305 .990113 .484062
2 1 .993778 .629568 .578540
3 1 .816686 .025037 .589472
4 1 .209429 .006529 .463050
5 1 .005820 .613724 .401233
6 1 .467967 .456168 .984923
7 1 .533362 .447862 .007067
ITEM: TIMESTEP
100
ITEM: NUMBER OF ATOMS
7
ITEM: BOX BOUNDS ss ss ss
-2.9164 3.3845
-2.6114 3.4006
-1.8959 2.0485
ITEM: ATOMS id type xs ys zs
1 1 .489478 .990633 .483899
2 1 .992014 .627060 .580891
3 1 .816400 .024382 .587770
4 1 .211046 .008101 .463972
5 1 .005747 .613534 .405617
6 1 .470020 .458395 .987399
7 1 .533788 .448730 .009510
ITEM: TIMESTEP
150
ITEM: NUMBER OF ATOMS
7
ITEM: BOX BOUNDS ss ss ss
-2.9246 3.3914
-2.6027 3.4006
-1.9001 2.0485
ITEM: ATOMS id type xs ys zs
1 1 .489962 .991409 .486508
2 1 .992149 .625497 .582667
3 1 .816711 .022095 .587517
4 1 .211328 .008667 .461415
5 1 .009824 .612441 .402380
6 1 .469929 .458704 .987789
7 1 .536564 .447238 .011100
ITEM: TIMESTEP
200
ITEM: NUMBER OF ATOMS
7
ITEM: BOX BOUNDS ss ss ss
-2.9353 3.3972
-2.6027 3.4006
-1.8984 2.0485
ITEM: ATOMS id type xs ys zs
1 1 .490939 .990886 .484871
2 1 .990120 .625688 .579806
3 1 .813839 .021910 .581384
4 1 .211111 .010387 .457626
5 1 .010219 .612557 .401677
6 1 .470488 .457056 .987485
7 1 .536870 .449073 .009769
ITEM: TIMESTEP
250
ITEM: NUMBER OF ATOMS
7
ITEM: BOX BOUNDS ss ss ss
-2.9424 3.3963
-2.6166 3.4006
-1.8993 2.0498
ITEM: ATOMS id type xs ys zs
1 1 .493106 .991153 .486423
2 1 .990549 .627751 .578757
3 1 .815289 .024528 .580798
4 1 .213231 .012996 .459709
5 1 .013631 .611426 .400471
6 1 .470036 .459499 .988988
7 1 .537941 .450861 .012507
ITEM: TIMESTEP
300
ITEM: NUMBER OF ATOMS
7
ITEM: BOX BOUNDS ss ss ss
-2.9361 3.3920
-2.6193 3.4009
-1.9050 2.0492
ITEM: ATOMS id type xs ys zs
1 1 .494068 .991990 .485718
2 1 .990584 .628233 .582735
3 1 .814492 .024324 .581434
4 1 .214096 .011144 .458297
5 1 .012347 .613173 .402658
6 1 .470151 .457602 .988559
7 1 .538861 .449704 .013838
ITEM: TIMESTEP
350
ITEM: NUMBER OF ATOMS
7
ITEM: BOX BOUNDS ss ss ss
-2.9415 3.3819
-2.6129 3.4175
-1.9079 2.0485
ITEM: ATOMS id type xs ys zs
1 1 .495270 .990428 .484903
2 1 .992184 .626273 .581114
3 1 .817100 .022106 .581840
4 1 .215681 .011264 .459560
5 1 .012890 .610307 .401106
6 1 .470484 .458609 .987512
7 1 .541274 .448458 .014069
ITEM: TIMESTEP
400
ITEM: NUMBER OF ATOMS
7
ITEM: BOX BOUNDS ss ss ss
-2.9379 3.3840
-2.6027 3.4157
-1.8979 2.0462
ITEM: ATOMS id type xs ys zs
1 1 .494734 .990815 .481895
2 1 .992458 .626736 .580448
3 1 .813932 .021085 .578357
4 1 .214264 .010790 .457116
5 1 .013435 .610410 .399129
6 1 .468628 .458678 .987346
7 1 .542440 .447706 .011796
ITEM: TIMESTEP
1
ITEM: NUMBER OF ATOMS
7
ITEM: BOX BOUNDS ss ss ss
-2.8972 3.3709
-2.5736 3.4033
-1.8842 2.0283
ITEM: ATOMS id type xs ys zs
1 1 .486966 .988998 .484856
2 1 .995672 .624284 .584996
3 1 .816226 .018533 .590099
4 1 .209093 .001491 .465071
5 1 .004649 .612016 .402957
6 1 .471248 .454673 .989253
7 1 .532968 .446698 .007521
ITEM: TIMESTEP
50
ITEM: NUMBER OF ATOMS
7
ITEM: BOX BOUNDS ss ss ss
-2.9001 3.3743
-2.5906 3.4033
-1.8857 2.0283
ITEM: ATOMS id type xs ys zs
1 1 .487161 .990053 .485689
2 1 .994526 .626864 .584100
3 1 .815944 .020697 .591387
4 1 .208255 .005055 .464823
5 1 .005285 .612729 .403307
6 1 .470726 .456946 .989606
7 1 .533428 .447225 .007113
ITEM: TIMESTEP
100
ITEM: NUMBER OF ATOMS
7
ITEM: BOX BOUNDS ss ss ss
-2.9090 3.3851
-2.6050 3.4033
-1.8991 2.0290
ITEM: ATOMS id type xs ys zs
1 1 .486994 .989132 .488480
2 1 .991950 .626444 .584563
3 1 .815935 .022635 .589929
4 1 .210078 .005644 .466940
5 1 .006496 .610610 .404348
6 1 .469644 .457319 .991308
7 1 .532988 .447908 .012968
ITEM: TIMESTEP
150
ITEM: NUMBER OF ATOMS
7
ITEM: BOX BOUNDS ss ss ss
-2.9272 3.3919
-2.6075 3.4033
-1.8982 2.0344
ITEM: ATOMS id type xs ys zs
1 1 .490593 .986881 .486480
2 1 .990099 .627812 .583357
3 1 .816759 .021524 .588691
4 1 .210596 .006002 .465918
5 1 .006818 .608024 .402533
6 1 .470385 .458292 .989313
7 1 .534040 .445738 .013247
ITEM: TIMESTEP
200
ITEM: NUMBER OF ATOMS
7
ITEM: BOX BOUNDS ss ss ss
-2.9318 3.3891
-2.6044 3.4033
-1.8998 2.0388
ITEM: ATOMS id type xs ys zs
1 1 .490532 .987512 .487545
2 1 .990320 .627945 .582225
3 1 .816636 .021237 .585960
4 1 .211341 .004611 .464598
5 1 .009029 .609463 .402846
6 1 .470666 .456629 .990207
7 1 .535706 .445174 .012438
ITEM: TIMESTEP
250
ITEM: NUMBER OF ATOMS
7
ITEM: BOX BOUNDS ss ss ss
-2.9328 3.3863
-2.6126 3.4033
-1.9020 2.0480
ITEM: ATOMS id type xs ys zs
1 1 .490681 .990801 .485027
2 1 .992249 .628428 .576800
3 1 .818925 .026984 .582847
4 1 .215658 .008578 .463412
5 1 .010365 .609793 .408935
6 1 .470319 .460589 .989891
7 1 .537414 .448262 .008803
ITEM: TIMESTEP
300
ITEM: NUMBER OF ATOMS
7
ITEM: BOX BOUNDS ss ss ss
-2.9345 3.3883
-2.6059 3.4033
-1.9052 2.0568
ITEM: ATOMS id type xs ys zs
1 1 .489280 .991056 .482379
2 1 .989893 .627717 .573020
3 1 .818247 .022682 .575287
4 1 .215380 .007254 .460099
5 1 .011048 .610096 .403200
6 1 .468571 .459768 .985569
7 1 .535616 .446110 .008016
ITEM: TIMESTEP
350
ITEM: NUMBER OF ATOMS
7
ITEM: BOX BOUNDS ss ss ss
-2.9307 3.3828
-2.6045 3.4009
-1.9051 2.0489
ITEM: ATOMS id type xs ys zs
1 1 .490539 .991757 .480798
2 1 .989135 .628144 .577129
3 1 .819600 .021787 .579739
4 1 .215661 .007263 .464437
5 1 .010177 .609774 .404817
6 1 .468133 .460140 .988948
7 1 .535891 .444908 .011513
ITEM: TIMESTEP
400
ITEM: NUMBER OF ATOMS
7
ITEM: BOX BOUNDS ss ss ss
-2.9219 3.3822
-2.6120 3.4055
-1.9051 2.0515
ITEM: ATOMS id type xs ys zs
1 1 .491547 .990918 .479782
2 1 .987319 .629381 .576436
3 1 .818177 .022687 .578970
4 1 .214476 .007353 .466110
5 1 .009515 .609806 .406936
6 1 .467371 .461016 .991170
7 1 .536564 .446269 .014097
ITEM: TIMESTEP
1
ITEM: NUMBER OF ATOMS
7
ITEM: BOX BOUNDS ss ss ss
-2.8984 3.3495
-2.5883 3.4003
-1.8793 2.0356
ITEM: ATOMS id type xs ys zs
1 1 .488736 .989525 .483361
2 1 .999077 .625522 .583334
3 1 .819006 .020932 .588480
4 1 .209955 .003912 .463541
5 1 .004850 .613291 .401412
6 1 .472977 .456272 .987428
7 1 .534845 .448247 .006282
ITEM: TIMESTEP
50
ITEM: NUMBER OF ATOMS
7
ITEM: BOX BOUNDS ss ss ss
-2.9045 3.3765
-2.5917 3.4003
-1.8829 2.0356
ITEM: ATOMS id type xs ys zs
1 1 .486620 .990718 .483810
2 1 .994757 .627231 .586582
3 1 .814559 .020754 .585394
4 1 .208453 .004718 .464616
5 1 .007146 .612650 .403327
6 1 .468895 .457742 .985815
7 1 .533587 .448163 .006813
ITEM: TIMESTEP
100
ITEM: NUMBER OF ATOMS
7
ITEM: BOX BOUNDS ss ss ss
-2.9162 3.3838
-2.6058 3.4003
-1.8908 2.0356
ITEM: ATOMS id type xs ys zs
1 1 .490031 .991760 .489830
2 1 .993661 .626624 .583161
3 1 .815115 .023343 .588949
4 1 .211044 .007849 .461888
5 1 .006631 .614630 .407030
6 1 .471407 .459318 .988599
7 1 .533376 .448192 .008391
ITEM: TIMESTEP
150
ITEM: NUMBER OF ATOMS
7
ITEM: BOX BOUNDS ss ss ss
-2.9223 3.3920
-2.6094 3.4003
-1.8923 2.0356
ITEM: ATOMS id type xs ys zs
1 1 .490657 .990734 .488046
2 1 .992722 .627385 .583503
3 1 .814954 .023684 .587023
4 1 .212218 .008370 .463409
5 1 .007702 .613972 .405854
6 1 .471238 .460576 .989585
7 1 .533782 .447953 .008511
ITEM: TIMESTEP
200
ITEM: NUMBER OF ATOMS
7
ITEM: BOX BOUNDS ss ss ss
-2.9230 3.3911
-2.5980 3.4003
-1.8986 2.0356
ITEM: ATOMS id type xs ys zs
1 1 .490068 .991594 .492227
2 1 .993662 .626860 .582925
3 1 .814892 .019204 .587229
4 1 .211185 .008874 .467045
5 1 .007107 .612728 .409300
6 1 .472036 .457376 .993839
7 1 .532459 .445574 .013336
ITEM: TIMESTEP
250
ITEM: NUMBER OF ATOMS
7
ITEM: BOX BOUNDS ss ss ss
-2.9293 3.3900
-2.6032 3.4020
-1.9060 2.0398
ITEM: ATOMS id type xs ys zs
1 1 .490233 .993518 .487130
2 1 .991250 .623298 .579993
3 1 .814301 .018281 .593409
4 1 .212392 .006870 .466516
5 1 .009552 .613868 .411399
6 1 .471546 .460255 .993858
7 1 .534412 .445711 .014677
ITEM: TIMESTEP
300
ITEM: NUMBER OF ATOMS
7
ITEM: BOX BOUNDS ss ss ss
-2.9295 3.3892
-2.6023 3.4054
-1.9025 2.0375
ITEM: ATOMS id type xs ys zs
1 1 .489404 .991758 .484685
2 1 .991042 .623001 .579683
3 1 .814187 .019119 .593488
4 1 .213224 .007482 .464541
5 1 .008054 .611365 .411131
6 1 .470911 .460478 .991230
7 1 .536514 .444215 .016653
ITEM: TIMESTEP
350
ITEM: NUMBER OF ATOMS
7
ITEM: BOX BOUNDS ss ss ss
-2.9394 3.3894
-2.6072 3.4104
-1.9149 2.0421
ITEM: ATOMS id type xs ys zs
1 1 .492926 .990418 .485370
2 1 .989161 .620996 .578987
3 1 .814508 .017277 .596946
4 1 .212300 .006594 .467631
5 1 .012668 .609477 .411944
6 1 .472031 .460824 .988622
7 1 .536335 .444949 .018830
ITEM: TIMESTEP
400
ITEM: NUMBER OF ATOMS
7
ITEM: BOX BOUNDS ss ss ss
-2.9316 3.3933
-2.6143 3.4104
-1.8974 2.0627
ITEM: ATOMS id type xs ys zs
1 1 .492161 .989562 .478169
2 1 .989560 .624248 .572025
3 1 .813548 .020484 .588437
4 1 .212455 .010860 .466607
5 1 .009143 .608041 .406475
6 1 .471848 .461892 .983132
7 1 .535354 .445525 .014900
ITEM: TIMESTEP
1
ITEM: NUMBER OF ATOMS
7
ITEM: BOX BOUNDS ss ss ss
-2.9011 3.3746
-2.5883 3.4003
-1.8793 2.0358
ITEM: ATOMS id type xs ys zs
1 1 .486993 .989540 .483254
2 1 .995050 .625482 .583338
3 1 .815807 .020923 .588434
4 1 .209498 .003915 .463452
5 1 .005295 .613281 .401464
6 1 .471308 .456248 .987349
7 1 .532972 .448234 .006232
ITEM: TIMESTEP
50
ITEM: NUMBER OF ATOMS
7
ITEM: BOX BOUNDS ss ss ss
-2.9011 3.3746
-2.5943 3.4003
-1.8889 2.0358
ITEM: ATOMS id type xs ys zs
1 1 .488108 .989956 .485629
2 1 .995053 .626063 .582056
3 1 .816368 .021555 .590070
4 1 .210811 .005969 .468086
5 1 .004801 .612130 .402137
6 1 .472096 .456576 .989101
7 1 .533702 .447308 .010108
ITEM: TIMESTEP
100
ITEM: NUMBER OF ATOMS
7
ITEM: BOX BOUNDS ss ss ss
-2.9128 3.3927
-2.6025 3.4003
-1.8966 2.0358
ITEM: ATOMS id type xs ys zs
1 1 .485298 .991373 .484910
2 1 .991930 .625426 .586528
3 1 .812548 .018891 .587601
4 1 .212430 .004695 .461872
5 1 .007716 .610862 .405843
6 1 .469387 .458677 .988183
7 1 .532688 .448569 .010648
ITEM: TIMESTEP
150
ITEM: NUMBER OF ATOMS
7
ITEM: BOX BOUNDS ss ss ss
-2.9205 3.3904
-2.6041 3.4003
-1.8922 2.0358
ITEM: ATOMS id type xs ys zs
1 1 .488952 .990982 .487321
2 1 .992403 .626911 .571896
3 1 .814681 .023829 .591029
4 1 .210831 .007549 .464885
5 1 .007476 .612719 .403580
6 1 .468312 .460369 .991455
7 1 .534485 .446826 .009064
ITEM: TIMESTEP
200
ITEM: NUMBER OF ATOMS
7
ITEM: BOX BOUNDS ss ss ss
-2.9194 3.3895
-2.5998 3.4003
-1.9096 2.0358
ITEM: ATOMS id type xs ys zs
1 1 .489807 .992408 .487240
2 1 .991629 .626830 .575924
3 1 .813607 .022318 .591339
4 1 .210625 .007330 .464064
5 1 .008124 .612396 .405130
6 1 .468131 .460044 .989275
7 1 .535392 .446316 .014154
ITEM: TIMESTEP
250
ITEM: NUMBER OF ATOMS
7
ITEM: BOX BOUNDS ss ss ss
-2.9209 3.3886
-2.6021 3.4003
-1.8982 2.0362
ITEM: ATOMS id type xs ys zs
1 1 .490859 .992547 .484398
2 1 .990500 .626324 .576235
3 1 .813062 .022758 .589715
4 1 .211111 .008258 .461581
5 1 .008611 .612221 .401472
6 1 .467543 .460983 .990348
7 1 .535797 .446033 .012537
ITEM: TIMESTEP
300
ITEM: NUMBER OF ATOMS
7
ITEM: BOX BOUNDS ss ss ss
-2.9206 3.3966
-2.5955 3.4003
-1.8907 2.0452
ITEM: ATOMS id type xs ys zs
1 1 .490996 .993971 .484153
2 1 .987944 .626800 .573971
3 1 .811897 .020962 .587570
4 1 .209610 .009066 .457939
5 1 .009516 .611200 .398996
6 1 .467707 .460476 .988799
7 1 .536155 .446640 .007531
ITEM: TIMESTEP
350
ITEM: NUMBER OF ATOMS
7
ITEM: BOX BOUNDS ss ss ss
-2.9206 3.4136
-2.6030 3.4003
-1.8941 2.0469
ITEM: ATOMS id type xs ys zs
1 1 .487663 .994589 .481789
2 1 .984760 .630212 .573582
3 1 .810184 .022142 .586476
4 1 .207512 .009554 .459010
5 1 .009153 .611198 .399626
6 1 .466348 .461902 .989025
7 1 .534328 .446632 .009780
ITEM: TIMESTEP
400
ITEM: NUMBER OF ATOMS
7
ITEM: BOX BOUNDS ss ss ss
-2.9137 3.4034
-2.6149 3.4098
-1.8996 2.0500
ITEM: ATOMS id type xs ys zs
1 1 .489060 .991038 .479362
2 1 .987202 .630992 .575826
3 1 .812900 .023940 .584054
4 1 .207854 .012226 .457577
5 1 .008610 .610640 .401123
6 1 .466047 .460413 .987847
7 1 .535989 .446446 .012486
ITEM: TIMESTEP
1
ITEM: NUMBER OF ATOMS
7
ITEM: BOX BOUNDS ss ss ss
-2.9011 3.3754
-2.5904 3.4003
-1.8795 2.0364
ITEM: ATOMS id type xs ys zs
1 1 .486968 .989545 .483261
2 1 .994961 .625640 .583234
3 1 .815717 .021264 .588385
4 1 .209450 .004251 .463425
5 1 .005197 .613442 .401402
6 1 .471253 .456413 .987244
7 1 .532873 .448422 .006250
ITEM: TIMESTEP
50
ITEM: NUMBER OF ATOMS
7
ITEM: BOX BOUNDS ss ss ss
-2.9011 3.3754
-2.5939 3.4003
-1.8952 2.0364
ITEM: ATOMS id type xs ys zs
1 1 .486490 .988510 .488112
2 1 .994549 .626382 .585442
3 1 .816966 .020715 .587720
4 1 .210958 .006159 .465799
5 1 .005652 .611747 .405047
6 1 .471458 .455824 .990747
7 1 .533508 .446503 .009707
ITEM: TIMESTEP
100
ITEM: NUMBER OF ATOMS
7
ITEM: BOX BOUNDS ss ss ss
-2.9161 3.3870
-2.5975 3.4003
-1.8913 2.0364
ITEM: ATOMS id type xs ys zs
1 1 .489270 .990172 .486115
2 1 .993097 .625737 .582249
3 1 .816946 .022113 .586753
4 1 .210469 .005462 .464577
5 1 .006924 .613133 .405508
6 1 .470254 .459280 .989800
7 1 .533979 .447249 .009727
ITEM: TIMESTEP
150
ITEM: NUMBER OF ATOMS
7
ITEM: BOX BOUNDS ss ss ss
-2.9185 3.3967
-2.6051 3.4003
-1.9021 2.0364
ITEM: ATOMS id type xs ys zs
1 1 .488826 .991440 .489751
2 1 .989242 .625163 .587035
3 1 .816243 .023569 .587080
4 1 .210654 .008403 .462751
5 1 .007421 .612978 .408863
6 1 .466127 .460305 .990081
7 1 .534508 .445881 .014919
ITEM: TIMESTEP
200
ITEM: NUMBER OF ATOMS
7
ITEM: BOX BOUNDS ss ss ss
-2.9259 3.3885
-2.6056 3.4003
-1.9037 2.0364
ITEM: ATOMS id type xs ys zs
1 1 .492122 .993177 .490019
2 1 .989731 .625293 .588055
3 1 .813962 .022859 .586407
4 1 .213512 .007990 .460492
5 1 .008820 .611151 .407913
6 1 .466325 .461957 .987983
7 1 .535172 .444434 .012925
ITEM: TIMESTEP
250
ITEM: NUMBER OF ATOMS
7
ITEM: BOX BOUNDS ss ss ss
-2.9279 3.3875
-2.6035 3.4003
-1.8904 2.0364
ITEM: ATOMS id type xs ys zs
1 1 .492111 .993839 .486753
2 1 .990462 .625974 .585073
3 1 .816091 .022037 .582823
4 1 .212938 .006147 .460363
5 1 .010077 .611467 .406915
6 1 .466955 .462091 .989337
7 1 .535955 .445318 .008685
ITEM: TIMESTEP
300
ITEM: NUMBER OF ATOMS
7
ITEM: BOX BOUNDS ss ss ss
-2.9259 3.3844
-2.6033 3.4077
-1.8929 2.0467
ITEM: ATOMS id type xs ys zs
1 1 .492169 .993896 .486623
2 1 .989952 .624244 .582501
3 1 .813063 .021558 .582285
4 1 .211120 .005359 .464329
5 1 .007822 .611471 .405145
6 1 .464067 .461131 .986198
7 1 .536507 .444293 .011358
ITEM: TIMESTEP
350
ITEM: NUMBER OF ATOMS
7
ITEM: BOX BOUNDS ss ss ss
-2.9266 3.3808
-2.6304 3.4147
-1.9057 2.0442
ITEM: ATOMS id type xs ys zs
1 1 .492682 .992853 .487485