ITEM: TIMESTEP
1
ITEM: NUMBER OF ATOMS
7
ITEM: BOX BOUNDS ss ss ss
-2.8716 3.3478
-2.5687 3.3404
-1.8585 1.9896
ITEM: ATOMS id type xs ys zs
1 1 .486546 .999403 .486281
2 1 .999434 .630518 .588144
3 1 .818467 .017988 .593515
4 1 .206626 .000602 .466194
5 1 .000549 .618349 .402963
6 1 .470962 .458971 .998987
7 1 .532917 .451088 .000942
ITEM: TIMESTEP
50
ITEM: NUMBER OF ATOMS
7
ITEM: BOX BOUNDS ss ss ss
-2.8992 3.3724
-2.5980 3.3656
-1.8813 2.0130
ITEM: ATOMS id type xs ys zs
1 1 .486960 .995663 .486612
2 1 .995871 .629813 .587009
3 1 .816359 .022349 .592327
4 1 .209424 .005649 .466503
5 1 .004464 .617550 .404069
6 1 .471170 .459825 .993281
7 1 .532907 .451607 .006388
ITEM: TIMESTEP
100
ITEM: NUMBER OF ATOMS
7
ITEM: BOX BOUNDS ss ss ss
-2.9105 3.3811
-2.6065 3.3891
-1.8955 2.0262
ITEM: ATOMS id type xs ys zs
1 1 .487547 .992856 .486822
2 1 .994700 .628154 .585887
3 1 .815864 .022982 .591064
4 1 .210756 .007699 .466720
5 1 .005752 .615152 .404991
6 1 .470517 .459613 .990863
7 1 .533399 .449650 .010080
ITEM: TIMESTEP
150
ITEM: NUMBER OF ATOMS
7
ITEM: BOX BOUNDS ss ss ss
-2.9161 3.3869
-2.5978 3.3994
-1.8937 2.0335
ITEM: ATOMS id type xs ys zs
1 1 .487965 .991410 .485387
2 1 .993180 .626913 .584260
3 1 .815233 .021153 .588687
4 1 .211187 .006569 .465646
5 1 .006555 .612770 .404298
6 1 .469879 .458518 .990277
7 1 .533952 .447023 .010389
ITEM: TIMESTEP
200
ITEM: NUMBER OF ATOMS
7
ITEM: BOX BOUNDS ss ss ss
-2.9176 3.3837
-2.5985 3.4064
-1.8913 2.0442
ITEM: ATOMS id type xs ys zs
1 1 .488975 .989815 .483474
2 1 .992887 .627015 .581078
3 1 .815802 .021045 .585794
4 1 .210868 .007121 .464299
5 1 .007188 .610997 .402855
6 1 .469901 .457776 .988972
7 1 .535382 .445357 .010278
ITEM: TIMESTEP
250
ITEM: NUMBER OF ATOMS
7
ITEM: BOX BOUNDS ss ss ss
-2.9148 3.3775
-2.5965 3.3975
-1.8927 2.0470
ITEM: ATOMS id type xs ys zs
1 1 .489770 .991227 .483261
2 1 .993139 .628300 .579448
3 1 .816513 .020348 .584993
4 1 .210197 .007106 .464269
5 1 .007213 .610689 .403087
6 1 .470060 .458148 .989246
7 1 .536794 .444647 .011153
ITEM: TIMESTEP
300
ITEM: NUMBER OF ATOMS
7
ITEM: BOX BOUNDS ss ss ss
-2.9167 3.3762
-2.6036 3.3996
-1.8990 2.0597
ITEM: ATOMS id type xs ys zs
1 1 .490305 .990989 .482483
2 1 .992781 .628692 .577513
3 1 .816661 .021065 .583294
4 1 .210278 .008373 .463593
5 1 .007966 .609834 .403053
6 1 .470135 .458924 .987070
7 1 .537729 .444345 .013371
ITEM: TIMESTEP
350
ITEM: NUMBER OF ATOMS
7
ITEM: BOX BOUNDS ss ss ss
-2.9144 3.3726
-2.5974 3.3940
-1.8943 2.0601
ITEM: ATOMS id type xs ys zs
1 1 .490668 .992064 .481642
2 1 .992708 .629188 .576294
3 1 .816588 .019552 .582265
4 1 .209923 .007365 .463203
5 1 .008258 .609281 .402421
6 1 .470224 .459173 .987700
7 1 .538328 .443353 .012329
ITEM: TIMESTEP
400
ITEM: NUMBER OF ATOMS
7
ITEM: BOX BOUNDS ss ss ss
-2.9143 3.3730
-2.6054 3.4017
-1.8929 2.0652
ITEM: ATOMS id type xs ys zs
1 1 .491032 .991137 .479915
2 1 .992177 .629158 .574947
3 1 .815779 .020312 .581021
4 1 .209477 .008550 .462888
5 1 .008829 .608603 .401640
6 1 .470146 .459849 .986683
7 1 .538499 .442762 .011995
ITEM: TIMESTEP
1
ITEM: NUMBER OF ATOMS
7
ITEM: BOX BOUNDS ss ss ss
-2.8757 3.3485
-2.5989 3.3810
-1.8707 2.0427
ITEM: ATOMS id type xs ys zs
1 1 .486823 .992609 .481296
2 1 .999310 .628093 .581451
3 1 .818492 .022822 .586733
4 1 .207129 .005640 .461538
5 1 .001207 .616072 .399370
6 1 .471256 .458578 .985436
7 1 .533162 .450787 .004054
ITEM: TIMESTEP
50
ITEM: NUMBER OF ATOMS
7
ITEM: BOX BOUNDS ss ss ss
-2.8984 3.3741
-2.5989 3.3810
-1.8823 2.0427
ITEM: ATOMS id type xs ys zs
1 1 .486641 .992890 .483102
2 1 .995522 .628110 .582688
3 1 .816132 .022474 .587914
4 1 .209202 .005765 .462967
5 1 .004331 .616134 .401241
6 1 .470997 .458704 .985943
7 1 .532603 .450587 .006609
ITEM: TIMESTEP
100
ITEM: NUMBER OF ATOMS
7
ITEM: BOX BOUNDS ss ss ss
-2.9187 3.3757
-2.5989 3.3810
-1.8948 2.0427
ITEM: ATOMS id type xs ys zs
1 1 .488864 .993400 .486077
2 1 .993412 .629203 .583016
3 1 .817990 .021939 .587534
4 1 .212831 .006608 .463393
5 1 .005992 .615683 .404649
6 1 .471467 .458378 .988514
7 1 .534054 .449119 .008796
ITEM: TIMESTEP
150
ITEM: NUMBER OF ATOMS
7
ITEM: BOX BOUNDS ss ss ss
-2.9179 3.3701
-2.5989 3.3810
-1.8963 2.0436
ITEM: ATOMS id type xs ys zs
1 1 .489639 .993514 .486639
2 1 .993826 .629539 .582452
3 1 .819119 .021505 .586772
4 1 .213112 .006855 .463088
5 1 .005637 .614594 .405107
6 1 .470839 .458523 .988840
7 1 .535248 .448367 .009544
ITEM: TIMESTEP
200
ITEM: NUMBER OF ATOMS
7
ITEM: BOX BOUNDS ss ss ss
-2.9223 3.3799
-2.5989 3.3859
-1.8975 2.0431
ITEM: ATOMS id type xs ys zs
1 1 .490215 .992675 .486476
2 1 .991664 .629653 .581522
3 1 .817560 .021360 .584567
4 1 .213150 .007179 .463240
5 1 .006593 .613352 .405252
6 1 .469413 .458829 .990214
7 1 .535572 .447543 .010760
ITEM: TIMESTEP
250
ITEM: NUMBER OF ATOMS
7
ITEM: BOX BOUNDS ss ss ss
-2.9282 3.3740
-2.5989 3.3871
-1.8979 2.0510
ITEM: ATOMS id type xs ys zs
1 1 .491929 .992948 .485498
2 1 .991765 .629969 .578555
3 1 .818526 .021576 .582581
4 1 .213949 .006867 .462410
5 1 .007812 .612424 .404403
6 1 .469308 .458943 .988359
7 1 .536798 .446910 .011292
ITEM: TIMESTEP
300
ITEM: NUMBER OF ATOMS
7
ITEM: BOX BOUNDS ss ss ss
-2.9236 3.3747
-2.5999 3.3919
-1.8934 2.0539
ITEM: ATOMS id type xs ys zs
1 1 .491917 .992791 .484712
2 1 .991018 .629612 .576911
3 1 .818074 .021561 .581699
4 1 .213220 .006885 .461250
5 1 .007730 .611239 .403270
6 1 .468343 .459009 .987958
7 1 .536765 .446033 .010503
ITEM: TIMESTEP
350
ITEM: NUMBER OF ATOMS
7
ITEM: BOX BOUNDS ss ss ss
-2.9207 3.3714
-2.6067 3.4002
-1.8919 2.0612
ITEM: ATOMS id type xs ys zs
1 1 .492427 .992149 .483265
2 1 .991121 .629034 .576118
3 1 .817531 .022061 .580568
4 1 .212692 .008300 .459638
5 1 .008382 .610159 .402130
6 1 .468078 .459445 .986667
7 1 .537799 .445832 .010241
ITEM: TIMESTEP
400
ITEM: NUMBER OF ATOMS
7
ITEM: BOX BOUNDS ss ss ss
-2.9130 3.3715
-2.6039 3.4015
-1.8993 2.0653
ITEM: ATOMS id type xs ys zs
1 1 .492346 .992338 .483631
2 1 .991095 .628672 .576622
3 1 .816302 .021055 .580444
4 1 .211514 .007773 .459382
5 1 .008062 .609039 .403033
6 1 .467523 .459257 .986131
7 1 .538079 .445326 .012312
ITEM: TIMESTEP
1
ITEM: NUMBER OF ATOMS
7
ITEM: BOX BOUNDS ss ss ss
-2.8842 3.3478
-2.5841 3.3877
-1.8840 2.0413
ITEM: ATOMS id type xs ys zs
1 1 .487577 .991487 .483219
2 1 .999424 .626481 .583069
3 1 .818831 .020387 .588339
4 1 .208227 .003179 .463523
5 1 .002568 .614442 .401543
6 1 .472029 .456732 .985815
7 1 .533858 .448934 .007434
ITEM: TIMESTEP
50
ITEM: NUMBER OF ATOMS
7
ITEM: BOX BOUNDS ss ss ss
-2.8977 3.3764
-2.5923 3.3877
-1.8840 2.0413
ITEM: ATOMS id type xs ys zs
1 1 .486396 .991784 .483553
2 1 .995261 .626974 .583073
3 1 .815813 .021387 .588508
4 1 .209044 .004594 .463505
5 1 .004230 .615126 .401484
6 1 .470866 .457562 .986000
7 1 .532293 .449574 .007010
ITEM: TIMESTEP
100
ITEM: NUMBER OF ATOMS
7
ITEM: BOX BOUNDS ss ss ss
-2.9105 3.3860
-2.6021 3.3877
-1.8901 2.0413
ITEM: ATOMS id type xs ys zs
1 1 .487833 .993159 .485474
2 1 .993033 .628270 .582749
3 1 .815619 .022038 .588077
4 1 .211077 .006640 .463230
5 1 .005672 .615215 .403016
6 1 .470490 .458546 .986995
7 1 .533250 .450178 .008879
ITEM: TIMESTEP
150
ITEM: NUMBER OF ATOMS
7
ITEM: BOX BOUNDS ss ss ss
-2.9164 3.3814
-2.5966 3.3877
-1.8904 2.0413
ITEM: ATOMS id type xs ys zs
1 1 .489461 .993801 .486346
2 1 .993486 .629031 .581377
3 1 .817015 .020755 .587692
4 1 .212033 .006614 .461828
5 1 .006314 .614477 .403510
6 1 .470563 .458324 .987620
7 1 .535014 .449200 .009781
ITEM: TIMESTEP
200
ITEM: NUMBER OF ATOMS
7
ITEM: BOX BOUNDS ss ss ss
-2.9209 3.3802
-2.5951 3.3924
-1.8925 2.0413
ITEM: ATOMS id type xs ys zs
1 1 .490079 .993346 .486785
2 1 .993089 .629153 .580238
3 1 .817796 .020568 .587699
4 1 .212845 .007357 .460455
5 1 .006910 .613761 .403871
6 1 .470070 .458563 .988234
7 1 .536315 .447854 .010823
ITEM: TIMESTEP
250
ITEM: NUMBER OF ATOMS
7
ITEM: BOX BOUNDS ss ss ss
-2.9203 3.3772
-2.6036 3.3973
-1.8930 2.0413
ITEM: ATOMS id type xs ys zs
1 1 .490577 .992867 .487098
2 1 .993053 .629342 .579144
3 1 .818101 .021597 .587368
4 1 .213010 .009101 .460015
5 1 .007162 .613328 .404200
6 1 .469836 .459447 .988928
7 1 .537163 .447795 .011068
ITEM: TIMESTEP
300
ITEM: NUMBER OF ATOMS
7
ITEM: BOX BOUNDS ss ss ss
-2.9179 3.3720
-2.6033 3.4035
-1.8962 2.0495
ITEM: ATOMS id type xs ys zs
1 1 .491127 .992424 .486791
2 1 .993257 .628355 .576807
3 1 .817784 .020565 .585867
4 1 .212610 .009165 .460077
5 1 .007661 .611329 .404356
6 1 .470261 .459502 .987293
7 1 .537779 .446811 .011594
ITEM: TIMESTEP
350
ITEM: NUMBER OF ATOMS
7
ITEM: BOX BOUNDS ss ss ss
-2.9096 3.3772
-2.6049 3.4080
-1.8980 2.0479
ITEM: ATOMS id type xs ys zs
1 1 .490335 .992062 .487847
2 1 .992386 .627718 .575873
3 1 .815977 .020232 .586002
4 1 .210951 .009488 .460962
5 1 .007030 .609895 .404989
6 1 .469428 .459539 .988217
7 1 .537319 .446129 .012104
ITEM: TIMESTEP
400
ITEM: NUMBER OF ATOMS
7
ITEM: BOX BOUNDS ss ss ss
-2.9142 3.3790
-2.6046 3.4122
-1.9057 2.0534
ITEM: ATOMS id type xs ys zs
1 1 .490936 .991712 .488521
2 1 .992020 .627337 .575198
3 1 .815454 .019988 .585507
4 1 .211202 .009232 .461060
5 1 .008312 .608588 .405959
6 1 .469744 .459204 .987191
7 1 .538006 .445603 .014233
ITEM: TIMESTEP
1
ITEM: NUMBER OF ATOMS
7
ITEM: BOX BOUNDS ss ss ss
-2.8842 3.3775
-2.5976 3.3909
-1.8840 2.0413
ITEM: ATOMS id type xs ys zs
1 1 .485263 .990967 .483218
2 1 .994691 .626981 .583073
3 1 .814951 .022590 .588340
4 1 .207244 .005428 .463522
5 1 .002553 .614983 .401537
6 1 .469798 .457714 .985809
7 1 .531326 .449937 .007435
ITEM: TIMESTEP
50
ITEM: NUMBER OF ATOMS
7
ITEM: BOX BOUNDS ss ss ss
-2.8961 3.3781
-2.5976 3.3909
-1.8840 2.0413
ITEM: ATOMS id type xs ys zs
1 1 .486129 .991219 .483530
2 1 .995112 .626824 .583045
3 1 .815553 .022243 .588705
4 1 .208712 .005404 .463444
5 1 .003911 .615130 .401442
6 1 .470667 .457740 .985820
7 1 .531884 .449859 .006891
ITEM: TIMESTEP
100
ITEM: NUMBER OF ATOMS
7
ITEM: BOX BOUNDS ss ss ss
-2.9103 3.3798
-2.5985 3.3909
-1.8915 2.0413
ITEM: ATOMS id type xs ys zs
1 1 .488167 .991885 .484744
2 1 .994895 .626971 .583330
3 1 .816269 .021723 .589105
4 1 .209970 .006105 .464199
5 1 .005427 .614514 .403243
6 1 .470662 .458713 .986941
7 1 .532954 .448748 .008527
ITEM: TIMESTEP
150
ITEM: NUMBER OF ATOMS
7
ITEM: BOX BOUNDS ss ss ss
-2.9193 3.3862
-2.6127 3.3932
-1.8959 2.0413
ITEM: ATOMS id type xs ys zs
1 1 .488866 .992150 .485745
2 1 .993915 .628211 .583934
3 1 .815473 .023918 .588473
4 1 .210808 .008945 .465360
5 1 .006659 .614905 .404485
6 1 .470166 .460729 .987134
7 1 .534117 .448919 .009655
ITEM: TIMESTEP
200
ITEM: NUMBER OF ATOMS
7
ITEM: BOX BOUNDS ss ss ss
-2.9259 3.3922
-2.6021 3.3939
-1.9023 2.0413
ITEM: ATOMS id type xs ys zs
1 1 .489237 .992991 .487011
2 1 .992740 .628040 .584721
3 1 .814835 .021890 .587890
4 1 .211830 .007429 .466234
5 1 .007950 .613687 .405610
6 1 .469653 .460453 .986684
7 1 .535172 .447395 .011449
ITEM: TIMESTEP
250
ITEM: NUMBER OF ATOMS
7
ITEM: BOX BOUNDS ss ss ss
-2.9314 3.3934
-2.6043 3.3990
-1.8974 2.0518
ITEM: ATOMS id type xs ys zs
1 1 .489783 .992685 .485380
2 1 .991912 .628095 .581837
3 1 .815167 .021583 .584996
4 1 .212871 .007912 .464018
5 1 .008602 .612318 .404418
6 1 .469639 .460273 .984545
7 1 .535886 .446926 .011119
ITEM: TIMESTEP
300
ITEM: NUMBER OF ATOMS
7
ITEM: BOX BOUNDS ss ss ss
-2.9334 3.3920
-2.6045 3.4065
-1.8989 2.0447
ITEM: ATOMS id type xs ys zs
1 1 .490415 .991516 .486739
2 1 .991498 .627428 .582268
3 1 .815357 .021317 .585570
4 1 .213285 .008177 .464675
5 1 .009093 .610666 .406108
6 1 .469659 .459598 .987288
7 1 .536789 .445989 .012351
ITEM: TIMESTEP
350
ITEM: NUMBER OF ATOMS
7
ITEM: BOX BOUNDS ss ss ss
-2.9373 3.3866
-2.6134 3.4118
-1.8955 2.0545
ITEM: ATOMS id type xs ys zs
1 1 .491727 .990097 .486443
2 1 .991598 .627347 .579661
3 1 .815623 .022065 .583843
4 1 .214081 .009397 .463314
5 1 .010473 .610149 .404953
6 1 .470217 .459182 .986967
7 1 .538149 .445724 .012310
ITEM: TIMESTEP
400
ITEM: NUMBER OF ATOMS
7
ITEM: BOX BOUNDS ss ss ss
-2.9297 3.3823
-2.6097 3.4097
-1.8948 2.0637
ITEM: ATOMS id type xs ys zs
1 1 .491804 .990108 .486312
2 1 .991345 .627339 .577760
3 1 .815439 .021036 .582337
4 1 .212958 .008718 .462562
5 1 .010000 .609617 .403463
6 1 .469409 .458478 .986415
7 1 .538317 .444937 .012767
ITEM: TIMESTEP
1
ITEM: NUMBER OF ATOMS
7
ITEM: BOX BOUNDS ss ss ss
-2.8883 3.3526
-2.6027 3.3926
-1.8690 2.0485
ITEM: ATOMS id type xs ys zs
1 1 .487539 .990702 .480351
2 1 .998657 .627121 .580411
3 1 .818320 .023416 .585691
4 1 .208596 .006271 .460615
5 1 .003230 .615142 .398507
6 1 .472022 .458045 .983963
7 1 .533756 .450280 .003604
ITEM: TIMESTEP
50
ITEM: NUMBER OF ATOMS
7
ITEM: BOX BOUNDS ss ss ss
-2.8977 3.3753
-2.6027 3.3926
-1.8877 2.0485
ITEM: ATOMS id type xs ys zs
1 1 .486286 .990941 .482947
2 1 .995548 .626972 .582612
3 1 .815952 .023139 .588095
4 1 .209136 .006242 .463145
5 1 .004177 .615440 .401237
6 1 .471097 .458044 .983927
7 1 .532295 .450332 .007797
ITEM: TIMESTEP
100
ITEM: NUMBER OF ATOMS
7
ITEM: BOX BOUNDS ss ss ss
-2.9123 3.3838
-2.6027 3.3926
-1.8908 2.0485
ITEM: ATOMS id type xs ys zs
1 1 .487474 .991730 .483765
2 1 .993454 .626930 .583134
3 1 .815533 .021759 .587167
4 1 .211042 .006401 .463705
5 1 .005184 .614804 .403050
6 1 .470316 .458028 .984222
7 1 .532741 .449336 .007608
ITEM: TIMESTEP
150
ITEM: NUMBER OF ATOMS
7
ITEM: BOX BOUNDS ss ss ss
-2.9232 3.3837
-2.6108 3.3926
-1.8994 2.0485
ITEM: ATOMS id type xs ys zs
1 1 .488648 .992169 .485648
2 1 .992534 .627276 .583929
3 1 .816194 .021882 .586840
4 1 .212094 .007801 .464504
5 1 .006191 .614613 .405182
6 1 .470219 .458612 .984203
7 1 .533828 .449134 .009577
ITEM: TIMESTEP
200
ITEM: NUMBER OF ATOMS
7
ITEM: BOX BOUNDS ss ss ss
-2.9287 3.3761
-2.6047 3.3962
-1.9056 2.0485
ITEM: ATOMS id type xs ys zs
1 1 .490029 .993513 .486911
2 1 .993508 .627845 .581975
3 1 .817411 .020498 .588167
4 1 .211260 .007427 .464065
5 1 .007408 .612592 .405422
6 1 .471283 .458595 .984414
7 1 .536083 .448349 .013235
ITEM: TIMESTEP
250
ITEM: NUMBER OF ATOMS
7
ITEM: BOX BOUNDS ss ss ss
-2.9295 3.3705
-2.6074 3.4044
-1.8964 2.0485
ITEM: ATOMS id type xs ys zs
1 1 .491203 .993981 .485479
2 1 .993940 .627823 .579069
3 1 .817676 .020454 .587620
4 1 .210832 .008383 .461384
5 1 .008710 .611900 .403045
6 1 .471357 .459134 .984790
7 1 .537317 .448101 .013183
ITEM: TIMESTEP
300
ITEM: NUMBER OF ATOMS
7
ITEM: BOX BOUNDS ss ss ss
-2.9192 3.3714
-2.6153 3.4109
-1.8970 2.0485
ITEM: ATOMS id type xs ys zs
1 1 .491111 .993598 .485717
2 1 .993316 .627425 .578410
3 1 .816975 .020924 .588184
4 1 .209709 .010123 .460290
5 1 .007574 .612229 .402283
6 1 .469631 .459950 .985072
7 1 .537009 .447896 .014573
ITEM: TIMESTEP
350
ITEM: NUMBER OF ATOMS
7
ITEM: BOX BOUNDS ss ss ss
-2.9243 3.3726
-2.6108 3.4159
-1.8927 2.0485
ITEM: ATOMS id type xs ys zs
1 1 .492160 .993012 .485620
2 1 .992611 .626652 .577585
3 1 .816813 .020104 .587681
4 1 .210205 .010025 .459106
5 1 .008755 .611810 .401089
6 1 .469248 .459462 .985539
7 1 .537857 .446785 .013717
ITEM: TIMESTEP
400
ITEM: NUMBER OF ATOMS
7
ITEM: BOX BOUNDS ss ss ss
-2.9235 3.3779
-2.6125 3.4220
-1.8871 2.0485
ITEM: ATOMS id type xs ys zs
1 1 .492187 .992009 .485151
2 1 .991464 .626264 .576491
3 1 .815720 .020650 .586602
4 1 .210043 .010463 .458186
5 1 .008919 .611290 .400478
6 1 .468176 .459330 .986303
7 1 .537614 .446021 .012228
ITEM: TIMESTEP
1
ITEM: NUMBER OF ATOMS
7
ITEM: BOX BOUNDS ss ss ss
-2.8976 3.3527
-2.6027 3.4006
-1.8690 2.0485
ITEM: ATOMS id type xs ys zs
1 1 .488299 .989376 .480353
2 1 .998657 .626284 .580411
3 1 .818588 .023384 .585691
4 1 .209774 .006262 .460615
5 1 .004714 .614320 .398511
6 1 .472808 .457431 .983958
7 1 .534445 .449681 .003607
ITEM: TIMESTEP
50
ITEM: NUMBER OF ATOMS
7
ITEM: BOX BOUNDS ss ss ss
-2.8984 3.3777
-2.6027 3.4006
-1.8848 2.0485
ITEM: ATOMS id type xs ys zs
1 1 .486125 .989478 .482529
2 1 .995314 .626044 .582219
3 1 .815761 .023184 .587809
4 1 .209067 .006185 .462807
5 1 .004255 .614652 .400701
6 1 .471013 .457353 .983930
7 1 .532079 .449754 .007062
ITEM: TIMESTEP
100
ITEM: NUMBER OF ATOMS
7
ITEM: BOX BOUNDS ss ss ss
-2.9164 3.3845
-2.6114 3.4006
-1.8959 2.0485
ITEM: ATOMS id type xs ys zs
1 1 .487539 .990241 .485009
2 1 .994362 .626627 .582594
3 1 .816407 .023980 .588887
4 1 .211738 .007965 .464198
5 1 .006399 .614846 .402594
6 1 .470932 .458131 .984773
7 1 .533063 .449772 .009317
ITEM: TIMESTEP
150
ITEM: NUMBER OF ATOMS
7
ITEM: BOX BOUNDS ss ss ss
-2.9246 3.3914
-2.6027 3.4006
-1.9001 2.0485
ITEM: ATOMS id type xs ys zs
1 1 .487811 .990483 .485747
2 1 .993131 .626139 .582039
3 1 .816234 .022195 .589030
4 1 .212976 .006971 .464240
5 1 .006658 .613896 .403953
6 1 .470064 .457712 .986249
7 1 .533632 .448164 .011117
ITEM: TIMESTEP
200
ITEM: NUMBER OF ATOMS
7
ITEM: BOX BOUNDS ss ss ss
-2.9353 3.3972
-2.6027 3.4006
-1.8984 2.0485
ITEM: ATOMS id type xs ys zs
1 1 .488759 .990736 .485184
2 1 .991904 .626546 .580758
3 1 .816329 .022034 .588237
4 1 .214117 .007284 .463265
5 1 .007789 .613326 .404475
6 1 .470346 .458154 .986695
7 1 .534340 .447427 .011589
ITEM: TIMESTEP
250
ITEM: NUMBER OF ATOMS
7
ITEM: BOX BOUNDS ss ss ss
-2.9424 3.3963
-2.6166 3.4006
-1.8993 2.0498
ITEM: ATOMS id type xs ys zs
1 1 .489952 .991209 .484930
2 1 .991234 .627411 .579963
3 1 .816771 .024080 .587168
4 1 .214565 .010659 .461359
5 1 .009197 .613495 .404463
6 1 .470735 .459498 .986946
7 1 .535841 .448847 .012174
ITEM: TIMESTEP
300
ITEM: NUMBER OF ATOMS
7
ITEM: BOX BOUNDS ss ss ss
-2.9361 3.3920
-2.6193 3.4009
-1.9050 2.0492
ITEM: ATOMS id type xs ys zs
1 1 .491243 .991735 .485956
2 1 .991195 .627530 .580164
3 1 .816433 .023858 .587444
4 1 .213318 .012412 .460684
5 1 .009541 .613575 .405054
6 1 .470121 .459936 .987347
7 1 .537199 .449260 .012406
ITEM: TIMESTEP
350
ITEM: NUMBER OF ATOMS
7
ITEM: BOX BOUNDS ss ss ss
-2.9415 3.3819
-2.6129 3.4175
-1.9079 2.0485
ITEM: ATOMS id type xs ys zs
1 1 .493954 .990336 .486816
2 1 .992176 .625377 .580246
3 1 .817398 .022043 .588735
4 1 .214272 .011825 .460350
5 1 .011901 .612340 .405732
6 1 .470952 .458885 .987102
7 1 .539638 .447296 .012679
ITEM: TIMESTEP
400
ITEM: NUMBER OF ATOMS
7
ITEM: BOX BOUNDS ss ss ss
-2.9379 3.3840
-2.6027 3.4157
-1.8979 2.0462
ITEM: ATOMS id type xs ys zs
1 1 .494124 .991076 .485521
2 1 .991587 .625303 .579096
3 1 .816742 .020059 .587966
4 1 .214406 .010250 .458786
5 1 .011750 .611800 .404855
6 1 .470117 .458757 .987907
7 1 .539853 .446339 .010943
ITEM: TIMESTEP
1
ITEM: NUMBER OF ATOMS
7
ITEM: BOX BOUNDS ss ss ss
-2.8972 3.3709
-2.5736 3.4033
-1.8842 2.0283
ITEM: ATOMS id type xs ys zs
1 1 .486845 .988887 .484852
2 1 .995758 .624182 .585033
3 1 .816199 .018606 .590327
4 1 .209117 .001407 .465096
5 1 .004636 .612168 .402904
6 1 .471399 .454580 .989096
7 1 .532862 .446799 .007504
ITEM: TIMESTEP
50
ITEM: NUMBER OF ATOMS
7
ITEM: BOX BOUNDS ss ss ss
-2.9001 3.3743
-2.5906 3.4033
-1.8857 2.0283
ITEM: ATOMS id type xs ys zs
1 1 .486448 .988994 .485352
2 1 .995853 .624965 .585304
3 1 .816225 .021216 .591107
4 1 .209465 .004124 .465413
5 1 .004578 .613700 .402776
6 1 .471491 .455955 .988958
7 1 .532396 .448491 .007309
ITEM: TIMESTEP
100
ITEM: NUMBER OF ATOMS
7
ITEM: BOX BOUNDS ss ss ss
-2.9090 3.3851
-2.6050 3.4033
-1.8991 2.0290
ITEM: ATOMS id type xs ys zs
1 1 .486245 .990046 .487674
2 1 .994146 .625820 .585557
3 1 .815860 .022345 .591511
4 1 .209825 .006715 .467649
5 1 .004991 .614122 .404795
6 1 .470834 .457622 .989036
7 1 .531984 .448972 .010268
ITEM: TIMESTEP
150
ITEM: NUMBER OF ATOMS
7
ITEM: BOX BOUNDS ss ss ss
-2.9272 3.3919
-2.6075 3.4033
-1.8982 2.0344
ITEM: ATOMS id type xs ys zs
1 1 .487688 .990595 .487578
2 1 .992580 .626119 .583998
3 1 .816554 .021877 .589843
4 1 .211106 .007438 .467229
5 1 .006929 .613978 .404840
6 1 .470978 .458089 .986686
7 1 .532754 .448200 .009988
ITEM: TIMESTEP
200
ITEM: NUMBER OF ATOMS
7
ITEM: BOX BOUNDS ss ss ss
-2.9318 3.3891
-2.6044 3.4033
-1.8998 2.0388
ITEM: ATOMS id type xs ys zs
1 1 .488527 .990514 .488931
2 1 .992839 .626176 .582013
3 1 .816958 .021858 .588332
4 1 .212423 .007684 .466942
5 1 .007617 .613070 .404441
6 1 .471273 .458074 .988200
7 1 .533767 .447711 .011481
ITEM: TIMESTEP
250
ITEM: NUMBER OF ATOMS
7
ITEM: BOX BOUNDS ss ss ss
-2.9328 3.3863
-2.6126 3.4033
-1.9020 2.0480
ITEM: ATOMS id type xs ys zs
1 1 .489530 .990340 .488092
2 1 .993248 .627027 .578913
3 1 .817639 .023849 .585934
4 1 .213671 .009247 .465969
5 1 .007623 .612481 .403425
6 1 .471129 .459611 .987626
7 1 .534652 .447942 .012080
ITEM: TIMESTEP
300
ITEM: NUMBER OF ATOMS
7
ITEM: BOX BOUNDS ss ss ss
-2.9345 3.3883
-2.6059 3.4033
-1.9052 2.0568
ITEM: ATOMS id type xs ys zs
1 1 .490161 .990311 .486899
2 1 .992466 .626509 .575805
3 1 .817640 .023440 .583299
4 1 .215113 .008285 .465453
5 1 .008262 .611231 .402695
6 1 .470345 .459738 .986129
7 1 .535279 .446780 .011796
ITEM: TIMESTEP
350
ITEM: NUMBER OF ATOMS
7
ITEM: BOX BOUNDS ss ss ss
-2.9307 3.3828
-2.6045 3.4009
-1.9051 2.0489
ITEM: ATOMS id type xs ys zs
1 1 .491073 .991456 .487490
2 1 .992141 .626346 .575044
3 1 .818445 .023155 .583621
4 1 .215800 .008113 .465242
5 1 .008386 .611477 .403847
6 1 .469257 .460452 .988322
7 1 .535750 .446817 .011173
ITEM: TIMESTEP
400
ITEM: NUMBER OF ATOMS
7
ITEM: BOX BOUNDS ss ss ss
-2.9219 3.3822
-2.6120 3.4055
-1.9051 2.0515
ITEM: ATOMS id type xs ys zs
1 1 .491584 .991596 .486857
2 1 .991121 .626209 .573904
3 1 .818351 .023936 .583291
4 1 .215229 .009391 .464824
5 1 .007580 .611515 .403882
6 1 .467881 .461344 .988197
7 1 .535159 .447183 .011428
ITEM: TIMESTEP
1
ITEM: NUMBER OF ATOMS
7
ITEM: BOX BOUNDS ss ss ss
-2.8984 3.3495
-2.5883 3.4003
-1.8793 2.0356
ITEM: ATOMS id type xs ys zs
1 1 .488606 .989395 .483290
2 1 .999162 .625416 .583412
3 1 .819022 .021035 .588699
4 1 .209981 .003871 .463540
5 1 .004836 .613424 .401391
6 1 .473116 .456149 .987223
7 1 .534769 .448383 .006229
ITEM: TIMESTEP
50
ITEM: NUMBER OF ATOMS
7
ITEM: BOX BOUNDS ss ss ss
-2.9045 3.3765
-2.5917 3.4003
-1.8829 2.0356
ITEM: ATOMS id type xs ys zs
1 1 .486604 .989486 .484018
2 1 .995529 .625470 .583929
3 1 .815941 .021460 .589748
4 1 .209924 .004252 .464095
5 1 .005275 .614156 .401850
6 1 .471741 .456385 .986998
7 1 .532529 .448855 .006693
ITEM: TIMESTEP
100
ITEM: NUMBER OF ATOMS
7
ITEM: BOX BOUNDS ss ss ss
-2.9162 3.3838
-2.6058 3.4003
-1.8908 2.0356
ITEM: ATOMS id type xs ys zs
1 1 .487635 .991935 .487230
2 1 .994784 .626082 .583303
3 1 .816454 .022838 .591105
4 1 .210476 .006858 .463704
5 1 .006064 .615127 .404345
6 1 .471657 .458363 .987298
7 1 .532670 .449585 .007864
ITEM: TIMESTEP
150
ITEM: NUMBER OF ATOMS
7
ITEM: BOX BOUNDS ss ss ss
-2.9223 3.3920
-2.6094 3.4003
-1.8923 2.0356
ITEM: ATOMS id type xs ys zs
1 1 .487788 .992828 .488210
2 1 .993513 .625742 .582050
3 1 .816399 .022456 .592105
4 1 .210798 .008470 .463443
5 1 .006603 .614956 .406009
6 1 .470985 .459218 .987247
7 1 .532493 .449368 .008989
ITEM: TIMESTEP
200
ITEM: NUMBER OF ATOMS
7
ITEM: BOX BOUNDS ss ss ss
-2.9230 3.3911
-2.5980 3.4003
-1.8986 2.0356
ITEM: ATOMS id type xs ys zs
1 1 .487804 .992466 .488448
2 1 .993267 .623509 .580890
3 1 .816588 .018801 .593379
4 1 .212085 .006966 .465117
5 1 .006660 .614086 .406789
6 1 .470532 .458335 .988688
7 1 .533806 .446969 .011645
ITEM: TIMESTEP
250
ITEM: NUMBER OF ATOMS
7
ITEM: BOX BOUNDS ss ss ss
-2.9293 3.3900
-2.6032 3.4020
-1.9060 2.0398
ITEM: ATOMS id type xs ys zs
1 1 .488558 .992639 .488488
2 1 .992971 .622915 .579195
3 1 .817430 .018299 .594741
4 1 .213912 .007773 .465686
5 1 .007280 .613563 .408363
6 1 .471020 .459100 .987606
7 1 .535099 .446860 .014658
ITEM: TIMESTEP
300
ITEM: NUMBER OF ATOMS
7
ITEM: BOX BOUNDS ss ss ss
-2.9295 3.3892
-2.6023 3.4054
-1.9025 2.0375
ITEM: ATOMS id type xs ys zs
1 1 .488647 .992529 .488200
2 1 .992597 .622332 .577277
3 1 .817784 .017377 .595272
4 1 .214323 .007844 .465606
5 1 .007200 .612632 .408261
6 1 .470951 .459031 .987982
7 1 .535733 .446420 .014331
ITEM: TIMESTEP
350
ITEM: NUMBER OF ATOMS
7
ITEM: BOX BOUNDS ss ss ss
-2.9394 3.3894
-2.6072 3.4104
-1.9149 2.0421
ITEM: ATOMS id type xs ys zs
1 1 .489528 .991768 .488786
2 1 .992389 .622384 .576990
3 1 .817664 .018179 .595619
4 1 .215342 .008791 .466682
5 1 .008527 .611991 .410193
6 1 .471869 .459561 .986861
7 1 .536667 .445922 .017976
ITEM: TIMESTEP
400
ITEM: NUMBER OF ATOMS
7
ITEM: BOX BOUNDS ss ss ss
-2.9316 3.3933
-2.6143 3.4104
-1.8974 2.0627
ITEM: ATOMS id type xs ys zs
1 1 .488906 .991912 .483886
2 1 .991871 .622792 .572313
3 1 .815991 .019341 .590952
4 1 .213506 .010217 .461047
5 1 .007422 .611484 .406461
6 1 .470902 .461150 .982576
7 1 .535742 .446015 .014396
ITEM: TIMESTEP
1
ITEM: NUMBER OF ATOMS
7
ITEM: BOX BOUNDS ss ss ss
-2.9011 3.3746
-2.5883 3.4003
-1.8793 2.0358
ITEM: ATOMS id type xs ys zs
1 1 .486872 .989397 .483257
2 1 .995161 .625412 .583389
3 1 .815819 .021036 .588676
4 1 .209484 .003871 .463521
5 1 .005252 .613427 .401369
6 1 .471452 .456148 .987179
7 1 .532829 .448382 .006226
ITEM: TIMESTEP
50
ITEM: NUMBER OF ATOMS
7
ITEM: BOX BOUNDS ss ss ss
-2.9011 3.3746
-2.5943 3.4003
-1.8889 2.0358
ITEM: ATOMS id type xs ys zs
1 1 .486427 .989331 .484648
2 1 .995914 .625495 .584508
3 1 .816152 .021826 .590467
4 1 .209553 .004741 .464955
5 1 .004741 .614195 .402653
6 1 .471708 .456421 .986796
7 1 .532341 .449207 .008042
ITEM: TIMESTEP
100
ITEM: NUMBER OF ATOMS
7
ITEM: BOX BOUNDS ss ss ss
-2.9128 3.3927
-2.6025 3.4003
-1.8966 2.0358
ITEM: ATOMS id type xs ys zs
1 1 .486210 .990162 .486127
2 1 .993591 .625793 .583271
3 1 .814539 .022240 .590987
4 1 .210574 .006804 .465861
5 1 .005502 .614438 .402862
6 1 .470536 .457628 .987598
7 1 .531632 .449676 .010148
ITEM: TIMESTEP
150
ITEM: NUMBER OF ATOMS
7
ITEM: BOX BOUNDS ss ss ss
-2.9205 3.3904
-2.6041 3.4003
-1.8922 2.0358
ITEM: ATOMS id type xs ys zs
1 1 .487618 .990444 .486852
2 1 .993168 .624755 .577833
3 1 .815794 .022669 .590816
4 1 .212910 .007732 .464025
5 1 .006604 .614734 .399519
6 1 .470470 .459110 .989026
7 1 .532729 .448109 .008715
ITEM: TIMESTEP
200
ITEM: NUMBER OF ATOMS
7
ITEM: BOX BOUNDS ss ss ss
-2.9194 3.3895
-2.5998 3.4003
-1.9096 2.0358
ITEM: ATOMS id type xs ys zs
1 1 .488798 .990754 .489433
2 1 .993747 .625633 .575430
3 1 .816186 .023012 .593053
4 1 .211829 .006836 .466731
5 1 .006543 .613531 .404426
6 1 .468678 .459553 .990331
7 1 .534157 .446494 .013697
ITEM: TIMESTEP
250
ITEM: NUMBER OF ATOMS
7
ITEM: BOX BOUNDS ss ss ss
-2.9209 3.3886
-2.6021 3.4003
-1.8982 2.0362
ITEM: ATOMS id type xs ys zs
1 1 .489527 .991177 .488236
2 1 .993752 .625929 .573289
3 1 .816167 .023145 .591858
4 1 .211862 .007482 .465106
5 1 .006709 .613053 .402821
6 1 .468173 .460021 .990551
7 1 .534699 .446387 .011737
ITEM: TIMESTEP
300
ITEM: NUMBER OF ATOMS
7
ITEM: BOX BOUNDS ss ss ss
-2.9206 3.3966
-2.5955 3.4003
-1.8907 2.0452
ITEM: ATOMS id type xs ys zs
1 1 .490104 .991779 .487173
2 1 .992431 .625622 .571138
3 1 .814321 .021891 .589956
4 1 .211157 .006674 .462435
5 1 .007611 .611524 .401111
6 1 .467263 .459672 .988307
7 1 .534957 .445590 .011352
ITEM: TIMESTEP
350
ITEM: NUMBER OF ATOMS
7
ITEM: BOX BOUNDS ss ss ss
-2.9206 3.4136
-2.6030 3.4003
-1.8941 2.0469
ITEM: ATOMS id type xs ys zs
1 1 .489829 .992216 .487530
2 1 .989582 .626256 .570394
3 1 .811399 .022754 .590066
4 1 .210414 .007848 .461486
5 1 .008269 .611380 .401392
6 1 .465708 .460629 .988322
7 1 .534413 .445720 .012693
ITEM: TIMESTEP
400
ITEM: NUMBER OF ATOMS
7
ITEM: BOX BOUNDS ss ss ss
-2.9137 3.4034
-2.6149 3.4098
-1.8996 2.0500
ITEM: ATOMS id type xs ys zs
1 1 .490343 .991320 .487534
2 1 .990582 .626282 .569930
3 1 .812021 .023829 .590024
4 1 .209782 .010280 .461036
5 1 .007507 .610965 .402003
6 1 .465952 .461506 .988160
7 1 .535266 .445938 .014158
ITEM: TIMESTEP
1
ITEM: NUMBER OF ATOMS
7
ITEM: BOX BOUNDS ss ss ss
-2.9011 3.3754
-2.5904 3.4003
-1.8795 2.0364
ITEM: ATOMS id type xs ys zs
1 1 .486813 .989398 .483228
2 1 .995040 .625538 .583328
3 1 .815722 .021369 .588617
4 1 .209458 .004210 .463487
5 1 .005250 .613559 .401354
6 1 .471395 .456330 .987028
7 1 .532765 .448571 .006295
ITEM: TIMESTEP
50
ITEM: NUMBER OF ATOMS
7
ITEM: BOX BOUNDS ss ss ss
-2.9011 3.3754
-2.5939 3.4003
-1.8952 2.0364
ITEM: ATOMS id type xs ys zs
1 1 .486317 .989217 .485522
2 1 .995838 .625388 .585147
3 1 .816129 .021885 .591081
4 1 .209531 .004656 .465745
5 1 .004762 .614363 .403479
6 1 .471761 .456404 .986812
7 1 .532343 .449219 .009622
ITEM: TIMESTEP
100
ITEM: NUMBER OF ATOMS
7
ITEM: BOX BOUNDS ss ss ss
-2.9161 3.3870
-2.5975 3.4003
-1.8913 2.0364
ITEM: ATOMS id type xs ys zs
1 1 .486924 .989141 .486486
2 1 .994333 .625367 .584260
3 1 .816388 .021467 .589374
4 1 .211492 .005583 .464036
5 1 .007073 .613647 .404715
6 1 .471968 .456796 .988533
7 1 .532386 .447762 .008701
ITEM: TIMESTEP
150
ITEM: NUMBER OF ATOMS
7
ITEM: BOX BOUNDS ss ss ss
-2.9185 3.3967
-2.6051 3.4003
-1.9021 2.0364
ITEM: ATOMS id type xs ys zs
1 1 .487073 .989493 .488286
2 1 .992798 .625671 .584061
3 1 .816134 .022567 .589595
4 1 .211460 .006808 .465305
5 1 .006408 .614062 .406669
6 1 .470698 .458295 .989405
7 1 .532192 .447680 .011893
ITEM: TIMESTEP
200
ITEM: NUMBER OF ATOMS
7
ITEM: BOX BOUNDS ss ss ss
-2.9259 3.3885
-2.6056 3.4003
-1.9037 2.0364
ITEM: ATOMS id type xs ys zs
1 1 .489644 .991279 .488758
2 1 .993151 .625007 .585641
3 1 .818019 .023102 .588419
4 1 .212835 .007102 .464550
5 1 .007151 .614333 .407890
6 1 .469479 .460470 .989389
7 1 .534089 .446771 .014402
ITEM: TIMESTEP
250
ITEM: NUMBER OF ATOMS
7
ITEM: BOX BOUNDS ss ss ss
-2.9279 3.3875
-2.6035 3.4003
-1.8904 2.0364
ITEM: ATOMS id type xs ys zs
1 1 .490821 .992204 .488556
2 1 .991991 .624719 .585330
3 1 .818226 .022634 .586460
4 1 .212809 .007165 .461022
5 1 .007647 .613355 .406757
6 1 .468101 .460655 .988788
7 1 .535009 .445667 .011003
ITEM: TIMESTEP
300
ITEM: NUMBER OF ATOMS
7
ITEM: BOX BOUNDS ss ss ss
-2.9259 3.3844
-2.6033 3.4077
-1.8929 2.0467
ITEM: ATOMS id type xs ys zs
1 1 .491906 .991762 .487514
2 1 .991777 .623809 .583604
3 1 .818614 .021864 .584604
4 1 .213189 .006758 .459044
5 1 .007502 .612740 .406856
6 1 .467350 .459476 .986227
7 1 .535827 .445566 .011737
ITEM: TIMESTEP
350
ITEM: NUMBER OF ATOMS
7
ITEM: BOX BOUNDS ss ss ss
-2.9266 3.3808
-2.6304 3.4147
-1.9057 2.0442
ITEM: ATOMS id type xs ys zs
1 1 .492805 .991264 .489276