ITEM: TIMESTEP
1
ITEM: NUMBER OF ATOMS
7
ITEM: BOX BOUNDS ss ss ss
-2.8716 3.3478
-2.5687 3.3404
-1.8585 1.9896
ITEM: ATOMS id type xs ys zs
1 1 .486489 .999726 .486594
2 1 .999297 .630723 .588097
3 1 .818662 .017840 .593830
4 1 .206356 .000487 .466127
5 1 .000550 .618441 .402397
6 1 .470915 .459085 .999018
7 1 .532942 .450837 .000522
ITEM: TIMESTEP
50
ITEM: NUMBER OF ATOMS
7
ITEM: BOX BOUNDS ss ss ss
-2.8992 3.3724
-2.5980 3.3656
-1.8813 2.0130
ITEM: ATOMS id type xs ys zs
1 1 .487983 .996620 .485297
2 1 .995629 .628182 .585925
3 1 .817035 .022553 .589578
4 1 .208149 .005492 .468616
5 1 .004806 .616186 .403222
6 1 .471475 .458953 .992734
7 1 .534006 .453198 .004998
ITEM: TIMESTEP
100
ITEM: NUMBER OF ATOMS
7
ITEM: BOX BOUNDS ss ss ss
-2.9105 3.3811
-2.6065 3.3891
-1.8955 2.0262
ITEM: ATOMS id type xs ys zs
1 1 .487842 .992624 .489366
2 1 .992313 .628001 .582081
3 1 .816176 .023234 .591823
4 1 .210392 .009884 .468889
5 1 .007608 .614677 .403867
6 1 .469413 .458266 .993405
7 1 .532793 .450593 .010436
ITEM: TIMESTEP
150
ITEM: NUMBER OF ATOMS
7
ITEM: BOX BOUNDS ss ss ss
-2.9161 3.3869
-2.5978 3.3994
-1.8937 2.0335
ITEM: ATOMS id type xs ys zs
1 1 .489674 .990582 .481076
2 1 .992185 .627299 .584722
3 1 .813311 .020499 .587897
4 1 .210704 .005964 .465379
5 1 .008447 .612502 .403505
6 1 .468593 .460341 .988356
7 1 .536280 .446865 .011351
ITEM: TIMESTEP
200
ITEM: NUMBER OF ATOMS
7
ITEM: BOX BOUNDS ss ss ss
-2.9176 3.3837
-2.5985 3.4064
-1.8913 2.0442
ITEM: ATOMS id type xs ys zs
1 1 .488607 .989499 .480292
2 1 .994206 .627342 .580134
3 1 .813318 .020827 .587280
4 1 .211886 .008543 .462981
5 1 .008712 .614050 .403904
6 1 .467561 .458903 .985457
7 1 .537440 .446089 .011760
ITEM: TIMESTEP
250
ITEM: NUMBER OF ATOMS
7
ITEM: BOX BOUNDS ss ss ss
-2.9148 3.3775
-2.5965 3.3975
-1.8927 2.0470
ITEM: ATOMS id type xs ys zs
1 1 .492104 .988368 .486884
2 1 .995191 .630195 .580435
3 1 .816323 .019513 .590436
4 1 .210969 .002763 .460576
5 1 .006841 .609975 .405648
6 1 .470604 .454472 .991723
7 1 .538029 .442209 .011684
ITEM: TIMESTEP
300
ITEM: NUMBER OF ATOMS
7
ITEM: BOX BOUNDS ss ss ss
-2.9167 3.3762
-2.6036 3.3996
-1.8990 2.0597
ITEM: ATOMS id type xs ys zs
1 1 .490319 .990373 .481514
2 1 .991158 .627660 .575944
3 1 .812746 .018638 .573829
4 1 .208946 .007311 .468335
5 1 .009417 .612256 .403026
6 1 .468852 .459611 .979483
7 1 .534733 .441954 .014177
ITEM: TIMESTEP
350
ITEM: NUMBER OF ATOMS
7
ITEM: BOX BOUNDS ss ss ss
-2.9144 3.3726
-2.5974 3.3940
-1.8943 2.0601
ITEM: ATOMS id type xs ys zs
1 1 .486759 .993427 .483643
2 1 .989769 .630547 .572220
3 1 .813586 .017726 .576224
4 1 .210862 .008404 .467193
5 1 .010124 .608070 .410926
6 1 .473449 .460062 .989085
7 1 .538022 .444010 .011243
ITEM: TIMESTEP
400
ITEM: NUMBER OF ATOMS
7
ITEM: BOX BOUNDS ss ss ss
-2.9143 3.3730
-2.6054 3.4017
-1.8929 2.0652
ITEM: ATOMS id type xs ys zs
1 1 .490953 .986958 .483408
2 1 .992243 .631563 .569273
3 1 .818173 .019393 .572526
4 1 .212887 .011190 .464168
5 1 .007264 .610540 .403190
6 1 .466297 .455861 .989476
7 1 .538883 .443169 .014284
ITEM: TIMESTEP
1
ITEM: NUMBER OF ATOMS
7
ITEM: BOX BOUNDS ss ss ss
-2.8757 3.3485
-2.5989 3.3810
-1.8707 2.0427
ITEM: ATOMS id type xs ys zs
1 1 .486514 .992618 .481217
2 1 .999164 .628246 .581090
3 1 .818557 .022922 .586221
4 1 .206978 .005666 .461674
5 1 .001137 .616026 .399196
6 1 .471272 .458270 .985550
7 1 .533278 .451109 .004207
ITEM: TIMESTEP
50
ITEM: NUMBER OF ATOMS
7
ITEM: BOX BOUNDS ss ss ss
-2.8984 3.3741
-2.5989 3.3810
-1.8823 2.0427
ITEM: ATOMS id type xs ys zs
1 1 .485754 .992356 .484307
2 1 .995728 .627771 .582842
3 1 .812911 .021278 .586380
4 1 .210128 .004928 .464461
5 1 .003615 .616427 .402826
6 1 .469730 .459285 .982372
7 1 .533471 .450765 .007320
ITEM: TIMESTEP
100
ITEM: NUMBER OF ATOMS
7
ITEM: BOX BOUNDS ss ss ss
-2.9187 3.3757
-2.5989 3.3810
-1.8948 2.0427
ITEM: ATOMS id type xs ys zs
1 1 .487821 .993715 .484272
2 1 .992967 .627968 .584688
3 1 .818341 .021680 .588494
4 1 .212930 .006362 .465321
5 1 .005426 .616591 .406663
6 1 .472155 .459101 .988198
7 1 .534326 .448830 .007953
ITEM: TIMESTEP
150
ITEM: NUMBER OF ATOMS
7
ITEM: BOX BOUNDS ss ss ss
-2.9179 3.3701
-2.5989 3.3810
-1.8963 2.0436
ITEM: ATOMS id type xs ys zs
1 1 .490461 .992298 .486882
2 1 .997351 .632309 .583440
3 1 .818057 .023587 .590003
4 1 .212810 .006375 .464175
5 1 .004772 .613480 .405841
6 1 .471868 .458933 .988050
7 1 .533355 .447194 .011068
ITEM: TIMESTEP
200
ITEM: NUMBER OF ATOMS
7
ITEM: BOX BOUNDS ss ss ss
-2.9223 3.3799
-2.5989 3.3859
-1.8975 2.0431
ITEM: ATOMS id type xs ys zs
1 1 .487803 .990649 .487713
2 1 .993170 .628086 .584686
3 1 .820297 .020090 .583665
4 1 .215067 .006595 .458745
5 1 .006395 .612992 .404613
6 1 .469219 .456976 .992364
7 1 .537488 .444746 .008294
ITEM: TIMESTEP
250
ITEM: NUMBER OF ATOMS
7
ITEM: BOX BOUNDS ss ss ss
-2.9282 3.3740
-2.5989 3.3871
-1.8979 2.0510
ITEM: ATOMS id type xs ys zs
1 1 .492243 .993022 .488542
2 1 .992863 .629292 .582530
3 1 .816424 .017889 .587783
4 1 .212090 .007421 .462782
5 1 .010581 .613943 .410890
6 1 .471549 .458668 .988442
7 1 .537711 .445899 .010749
ITEM: TIMESTEP
300
ITEM: NUMBER OF ATOMS
7
ITEM: BOX BOUNDS ss ss ss
-2.9236 3.3747
-2.5999 3.3919
-1.8934 2.0539
ITEM: ATOMS id type xs ys zs
1 1 .495778 .993473 .482116
2 1 .993885 .627837 .577931
3 1 .819303 .020366 .584640
4 1 .214422 .009336 .457493
5 1 .010939 .607724 .402756
6 1 .469142 .461375 .985995
7 1 .538273 .444718 .008098
ITEM: TIMESTEP
350
ITEM: NUMBER OF ATOMS
7
ITEM: BOX BOUNDS ss ss ss
-2.9207 3.3714
-2.6067 3.4002
-1.8919 2.0612
ITEM: ATOMS id type xs ys zs
1 1 .493931 .993561 .483025
2 1 .995700 .626400 .576579
3 1 .820602 .020260 .583757
4 1 .213420 .010004 .455159
5 1 .010023 .605925 .401643
6 1 .469224 .460673 .981863
7 1 .538219 .445883 .009365
ITEM: TIMESTEP
400
ITEM: NUMBER OF ATOMS
7
ITEM: BOX BOUNDS ss ss ss
-2.9130 3.3715
-2.6039 3.4015
-1.8993 2.0653
ITEM: ATOMS id type xs ys zs
1 1 .488372 .990563 .486228
2 1 .989003 .634161 .568369
3 1 .820448 .022688 .576890
4 1 .213369 .002568 .458158
5 1 .006188 .604841 .405464
6 1 .465928 .454757 .980808
7 1 .535788 .441809 .008138
ITEM: TIMESTEP
1
ITEM: NUMBER OF ATOMS
7
ITEM: BOX BOUNDS ss ss ss
-2.8842 3.3478
-2.5841 3.3877
-1.8840 2.0413
ITEM: ATOMS id type xs ys zs
1 1 .487794 .991701 .483551
2 1 .999473 .626506 .582862
3 1 .818884 .020418 .588494
4 1 .208344 .003335 .463870
5 1 .002636 .614316 .401517
6 1 .471843 .456461 .985614
7 1 .533888 .448663 .007147
ITEM: TIMESTEP
50
ITEM: NUMBER OF ATOMS
7
ITEM: BOX BOUNDS ss ss ss
-2.8977 3.3764
-2.5923 3.3877
-1.8840 2.0413
ITEM: ATOMS id type xs ys zs
1 1 .487528 .991396 .485743
2 1 .995761 .628487 .588049
3 1 .815503 .020370 .586227
4 1 .210743 .005629 .464344
5 1 .004251 .613958 .399179
6 1 .469881 .457356 .988050
7 1 .533574 .451070 .003818
ITEM: TIMESTEP
100
ITEM: NUMBER OF ATOMS
7
ITEM: BOX BOUNDS ss ss ss
-2.9105 3.3860
-2.6021 3.3877
-1.8901 2.0413
ITEM: ATOMS id type xs ys zs
1 1 .488529 .992880 .484566
2 1 .994500 .629494 .581085
3 1 .814175 .020749 .586780
4 1 .213409 .007356 .461515
5 1 .005830 .617656 .404965
6 1 .470909 .458400 .991119
7 1 .534071 .447579 .011726
ITEM: TIMESTEP
150
ITEM: NUMBER OF ATOMS
7
ITEM: BOX BOUNDS ss ss ss
-2.9164 3.3814
-2.5966 3.3877
-1.8904 2.0413
ITEM: ATOMS id type xs ys zs
1 1 .487958 .991576 .488212
2 1 .991229 .630676 .581996
3 1 .816419 .022017 .585014
4 1 .213573 .007166 .461497
5 1 .007464 .614696 .402732
6 1 .470756 .459042 .990085
7 1 .533913 .447982 .009515
ITEM: TIMESTEP
200
ITEM: NUMBER OF ATOMS
7
ITEM: BOX BOUNDS ss ss ss
-2.9209 3.3802
-2.5951 3.3924
-1.8925 2.0413
ITEM: ATOMS id type xs ys zs
1 1 .490623 .993798 .488830
2 1 .990841 .630686 .579212
3 1 .818624 .021266 .587689
4 1 .210959 .011730 .453790
5 1 .007617 .615182 .403895
6 1 .468147 .459432 .988352
7 1 .536142 .447666 .007990
ITEM: TIMESTEP
250
ITEM: NUMBER OF ATOMS
7
ITEM: BOX BOUNDS ss ss ss
-2.9203 3.3772
-2.6036 3.3973
-1.8930 2.0413
ITEM: ATOMS id type xs ys zs
1 1 .490067 .992970 .489172
2 1 .991264 .630013 .578156
3 1 .820387 .021605 .587813
4 1 .209810 .011905 .451651
5 1 .006615 .614060 .403169
6 1 .469920 .459373 .987464
7 1 .538728 .447469 .006211
ITEM: TIMESTEP
300
ITEM: NUMBER OF ATOMS
7
ITEM: BOX BOUNDS ss ss ss
-2.9179 3.3720
-2.6033 3.4035
-1.8962 2.0495
ITEM: ATOMS id type xs ys zs
1 1 .495215 .993354 .487452
2 1 .991985 .628732 .575976
3 1 .814295 .021112 .591614
4 1 .217223 .007971 .457437
5 1 .005607 .611062 .404595
6 1 .470102 .459780 .989334
7 1 .536016 .450487 .012204
ITEM: TIMESTEP
350
ITEM: NUMBER OF ATOMS
7
ITEM: BOX BOUNDS ss ss ss
-2.9096 3.3772
-2.6049 3.4080
-1.8980 2.0479
ITEM: ATOMS id type xs ys zs
1 1 .490883 .990324 .489601
2 1 .996433 .627834 .569373
3 1 .814891 .021114 .584621
4 1 .210607 .012297 .465496
5 1 .005858 .610937 .405106
6 1 .473146 .459520 .990622
7 1 .536872 .446418 .013150
ITEM: TIMESTEP
400
ITEM: NUMBER OF ATOMS
7
ITEM: BOX BOUNDS ss ss ss
-2.9142 3.3790
-2.6046 3.4122
-1.9057 2.0534
ITEM: ATOMS id type xs ys zs
1 1 .490826 .988564 .489449
2 1 .995494 .628197 .568531
3 1 .813840 .019379 .585896
4 1 .211256 .010732 .466891
5 1 .004399 .611619 .406568
6 1 .472628 .460003 .989409
7 1 .536633 .445855 .012759
ITEM: TIMESTEP
1
ITEM: NUMBER OF ATOMS
7
ITEM: BOX BOUNDS ss ss ss
-2.8842 3.3775
-2.5976 3.3909
-1.8840 2.0413
ITEM: ATOMS id type xs ys zs
1 1 .485175 .991292 .483516
2 1 .995062 .626814 .583267
3 1 .815019 .022378 .588257
4 1 .207241 .005371 .463444
5 1 .002465 .615178 .401321
6 1 .469617 .457722 .985988
7 1 .531288 .449910 .006856
ITEM: TIMESTEP
50
ITEM: NUMBER OF ATOMS
7
ITEM: BOX BOUNDS ss ss ss
-2.8961 3.3781
-2.5976 3.3909
-1.8840 2.0413
ITEM: ATOMS id type xs ys zs
1 1 .484126 .990823 .480423
2 1 .993723 .626945 .584535
3 1 .817269 .022935 .589489
4 1 .207933 .007147 .463200
5 1 .004817 .614633 .402472
6 1 .472279 .457716 .985483
7 1 .531271 .448396 .007123
ITEM: TIMESTEP
100
ITEM: NUMBER OF ATOMS
7
ITEM: BOX BOUNDS ss ss ss
-2.9103 3.3798
-2.5985 3.3909
-1.8915 2.0413
ITEM: ATOMS id type xs ys zs
1 1 .489937 .990746 .482689
2 1 .995488 .624784 .582840
3 1 .817244 .020802 .588412
4 1 .209687 .007451 .464429
5 1 .005585 .615348 .408203
6 1 .469578 .459245 .990204
7 1 .530415 .446665 .010023
ITEM: TIMESTEP
150
ITEM: NUMBER OF ATOMS
7
ITEM: BOX BOUNDS ss ss ss
-2.9193 3.3862
-2.6127 3.3932
-1.8959 2.0413
ITEM: ATOMS id type xs ys zs
1 1 .488368 .989019 .490771
2 1 .993347 .627343 .583486
3 1 .815135 .025118 .588443
4 1 .212334 .009945 .464583
5 1 .005134 .612387 .403555
6 1 .469998 .460752 .987177
7 1 .535751 .449186 .008811
ITEM: TIMESTEP
200
ITEM: NUMBER OF ATOMS
7
ITEM: BOX BOUNDS ss ss ss
-2.9259 3.3922
-2.6021 3.3939
-1.9023 2.0413
ITEM: ATOMS id type xs ys zs
1 1 .490985 .991984 .492865
2 1 .993121 .629476 .586587
3 1 .816648 .022971 .590642
4 1 .212747 .009905 .467378
5 1 .009169 .612859 .406879
6 1 .469334 .463260 .986387
7 1 .535390 .446088 .007769
ITEM: TIMESTEP
250
ITEM: NUMBER OF ATOMS
7
ITEM: BOX BOUNDS ss ss ss
-2.9314 3.3934
-2.6043 3.3990
-1.8974 2.0518
ITEM: ATOMS id type xs ys zs
1 1 .491116 .993909 .487436
2 1 .991402 .628281 .580241
3 1 .814276 .021959 .580647
4 1 .209873 .012010 .460203
5 1 .008950 .613370 .405518
6 1 .469551 .462580 .978691
7 1 .540175 .452820 .006120
ITEM: TIMESTEP
300
ITEM: NUMBER OF ATOMS
7
ITEM: BOX BOUNDS ss ss ss
-2.9334 3.3920
-2.6045 3.4065
-1.8989 2.0447
ITEM: ATOMS id type xs ys zs
1 1 .492102 .996409 .491659
2 1 .992208 .626697 .581541
3 1 .813765 .020983 .582576
4 1 .211594 .010055 .464518
5 1 .007577 .611308 .405834
6 1 .464895 .463295 .984779
7 1 .538953 .454253 .009914
ITEM: TIMESTEP
350
ITEM: NUMBER OF ATOMS
7
ITEM: BOX BOUNDS ss ss ss
-2.9373 3.3866
-2.6134 3.4118
-1.8955 2.0545
ITEM: ATOMS id type xs ys zs
1 1 .494505 .989139 .491240
2 1 .991089 .625084 .572478
3 1 .813441 .021605 .585096
4 1 .215803 .011715 .466672
5 1 .013376 .606977 .398549
6 1 .471565 .457591 .988722
7 1 .538359 .446561 .008056
ITEM: TIMESTEP
400
ITEM: NUMBER OF ATOMS
7
ITEM: BOX BOUNDS ss ss ss
-2.9297 3.3823
-2.6097 3.4097
-1.8948 2.0637
ITEM: ATOMS id type xs ys zs
1 1 .491381 .994996 .483051
2 1 .992911 .624449 .570649
3 1 .814342 .023894 .578603
4 1 .210824 .009257 .465793
5 1 .007180 .609037 .401823
6 1 .469293 .466152 .983869
7 1 .538249 .444104 .011268
ITEM: TIMESTEP
1
ITEM: NUMBER OF ATOMS
7
ITEM: BOX BOUNDS ss ss ss
-2.8883 3.3526
-2.6027 3.3926
-1.8690 2.0485
ITEM: ATOMS id type xs ys zs
1 1 .487709 .990490 .480866
2 1 .998694 .627332 .580863
3 1 .818165 .023684 .585720
4 1 .208357 .006212 .460331
5 1 .003484 .615344 .398242
6 1 .472274 .457990 .983785
7 1 .533519 .450297 .003182
ITEM: TIMESTEP
50
ITEM: NUMBER OF ATOMS
7
ITEM: BOX BOUNDS ss ss ss
-2.8977 3.3753
-2.6027 3.3926
-1.8877 2.0485
ITEM: ATOMS id type xs ys zs
1 1 .486435 .990428 .484018
2 1 .996796 .626251 .580305
3 1 .817011 .025253 .590392
4 1 .207731 .006106 .463550
5 1 .006332 .615348 .403409
6 1 .470457 .456720 .986728
7 1 .532354 .451845 .010732
ITEM: TIMESTEP
100
ITEM: NUMBER OF ATOMS
7
ITEM: BOX BOUNDS ss ss ss
-2.9123 3.3838
-2.6027 3.3926
-1.8908 2.0485
ITEM: ATOMS id type xs ys zs
1 1 .488418 .993723 .480997
2 1 .989975 .623209 .585518
3 1 .814263 .019949 .585671
4 1 .206097 .008600 .461800
5 1 .003752 .614744 .398788
6 1 .469392 .460400 .985703
7 1 .533566 .451949 .012387
ITEM: TIMESTEP
150
ITEM: NUMBER OF ATOMS
7
ITEM: BOX BOUNDS ss ss ss
-2.9232 3.3837
-2.6108 3.3926
-1.8994 2.0485
ITEM: ATOMS id type xs ys zs
1 1 .491532 .991198 .483784
2 1 .990176 .628483 .589344
3 1 .813773 .020829 .590944
4 1 .212129 .004882 .463938
5 1 .005779 .617282 .411150
6 1 .470036 .453800 .983478
7 1 .532871 .449149 .009803
ITEM: TIMESTEP
200
ITEM: NUMBER OF ATOMS
7
ITEM: BOX BOUNDS ss ss ss
-2.9287 3.3761
-2.6047 3.3962
-1.9056 2.0485
ITEM: ATOMS id type xs ys zs
1 1 .492942 .990365 .492396
2 1 .994607 .629016 .583064
3 1 .818374 .020781 .578534
4 1 .216128 .010364 .464914
5 1 .006773 .610478 .400622
6 1 .471837 .460795 .982085
7 1 .535657 .448819 .008429
ITEM: TIMESTEP
250
ITEM: NUMBER OF ATOMS
7
ITEM: BOX BOUNDS ss ss ss
-2.9295 3.3705
-2.6074 3.4044
-1.8964 2.0485
ITEM: ATOMS id type xs ys zs
1 1 .491954 .994439 .483900
2 1 .994369 .629057 .579989
3 1 .814597 .021986 .590205
4 1 .211164 .006736 .460859
5 1 .009779 .609216 .400829
6 1 .472382 .456881 .989167
7 1 .534749 .451125 .008904
ITEM: TIMESTEP
300
ITEM: NUMBER OF ATOMS
7
ITEM: BOX BOUNDS ss ss ss
-2.9192 3.3714
-2.6153 3.4109
-1.8970 2.0485
ITEM: ATOMS id type xs ys zs
1 1 .491356 .993610 .482849
2 1 .994134 .626602 .582305
3 1 .814570 .021571 .584838
4 1 .210117 .014557 .460337
5 1 .009066 .616119 .402924
6 1 .468261 .461735 .988700
7 1 .539333 .449587 .018362
ITEM: TIMESTEP
350
ITEM: NUMBER OF ATOMS
7
ITEM: BOX BOUNDS ss ss ss
-2.9243 3.3726
-2.6108 3.4159
-1.8927 2.0485
ITEM: ATOMS id type xs ys zs
1 1 .490688 .993496 .484230
2 1 .995620 .626038 .581051
3 1 .813553 .022362 .583861
4 1 .210425 .014497 .459354
5 1 .008818 .616147 .398003
6 1 .468465 .460339 .986810
7 1 .539617 .448967 .020461
ITEM: TIMESTEP
400
ITEM: NUMBER OF ATOMS
7
ITEM: BOX BOUNDS ss ss ss
-2.9235 3.3779
-2.6125 3.4220
-1.8871 2.0485
ITEM: ATOMS id type xs ys zs
1 1 .488214 .989962 .482684
2 1 .989686 .629724 .576547
3 1 .812709 .020040 .588056
4 1 .211014 .009994 .456843
5 1 .004598 .611358 .399775
6 1 .466645 .460750 .991840
7 1 .534590 .447234 .009445
ITEM: TIMESTEP
1
ITEM: NUMBER OF ATOMS
7
ITEM: BOX BOUNDS ss ss ss
-2.8976 3.3527
-2.6027 3.4006
-1.8690 2.0485
ITEM: ATOMS id type xs ys zs
1 1 .488492 .989349 .480363
2 1 .998616 .626018 .580361
3 1 .818330 .023546 .585724
4 1 .209866 .006180 .460591
5 1 .004788 .614335 .398934
6 1 .472768 .457334 .983939
7 1 .534604 .449601 .003431
ITEM: TIMESTEP
50
ITEM: NUMBER OF ATOMS
7
ITEM: BOX BOUNDS ss ss ss
-2.8984 3.3777
-2.6027 3.4006
-1.8848 2.0485
ITEM: ATOMS id type xs ys zs
1 1 .483554 .989266 .482043
2 1 .992999 .623591 .579836
3 1 .815177 .024206 .589748
4 1 .209906 .007255 .464941
5 1 .004576 .616095 .401302
6 1 .473622 .458988 .983759
7 1 .531895 .450412 .009324
ITEM: TIMESTEP
100
ITEM: NUMBER OF ATOMS
7
ITEM: BOX BOUNDS ss ss ss
-2.9164 3.3845
-2.6114 3.4006
-1.8959 2.0485
ITEM: ATOMS id type xs ys zs
1 1 .487733 .991879 .486147
2 1 .997015 .627601 .585338
3 1 .816925 .023241 .589783
4 1 .207389 .010019 .467193
5 1 .004946 .616390 .403540
6 1 .469225 .458729 .989378
7 1 .532109 .447951 .006522
ITEM: TIMESTEP
150
ITEM: NUMBER OF ATOMS
7
ITEM: BOX BOUNDS ss ss ss
-2.9246 3.3914
-2.6027 3.4006
-1.9001 2.0485
ITEM: ATOMS id type xs ys zs
1 1 .487914 .990675 .481079
2 1 .996533 .626099 .580442
3 1 .816432 .025700 .589512
4 1 .217097 .004884 .461456
5 1 .006333 .610199 .404716
6 1 .473669 .456077 .989452
7 1 .536209 .444775 .014233
ITEM: TIMESTEP
200
ITEM: NUMBER OF ATOMS
7
ITEM: BOX BOUNDS ss ss ss
-2.9353 3.3972
-2.6027 3.4006
-1.8984 2.0485
ITEM: ATOMS id type xs ys zs
1 1 .488951 .991858 .485946
2 1 .993496 .628549 .577831
3 1 .818438 .023874 .591083
4 1 .214783 .003511 .469256
5 1 .009931 .615970 .408361
6 1 .470662 .456707 .985050
7 1 .534232 .446996 .009513
ITEM: TIMESTEP
250
ITEM: NUMBER OF ATOMS
7
ITEM: BOX BOUNDS ss ss ss
-2.9424 3.3963
-2.6166 3.4006
-1.8993 2.0498
ITEM: ATOMS id type xs ys zs
1 1 .490882 .990603 .485640
2 1 .992158 .628082 .576197
3 1 .818744 .023594 .590564
4 1 .215095 .005758 .469564
5 1 .006641 .614816 .404351
6 1 .466749 .462252 .985266
7 1 .530604 .448670 .015373
ITEM: TIMESTEP
300
ITEM: NUMBER OF ATOMS
7
ITEM: BOX BOUNDS ss ss ss
-2.9361 3.3920
-2.6193 3.4009
-1.9050 2.0492
ITEM: ATOMS id type xs ys zs
1 1 .495962 .991766 .490747
2 1 .993136 .626121 .580746
3 1 .816720 .029158 .590231
4 1 .215329 .011750 .457437
5 1 .009505 .611820 .405626
6 1 .470414 .460910 .988605
7 1 .534977 .450892 .006463
ITEM: TIMESTEP
350
ITEM: NUMBER OF ATOMS
7
ITEM: BOX BOUNDS ss ss ss
-2.9415 3.3819
-2.6129 3.4175
-1.9079 2.0485
ITEM: ATOMS id type xs ys zs
1 1 .495152 .988228 .484059
2 1 .996046 .627106 .578020
3 1 .816725 .023511 .586791
4 1 .209539 .007875 .458045
5 1 .011781 .611180 .402105
6 1 .472735 .457720 .991147
7 1 .539986 .445691 .012279
ITEM: TIMESTEP
400
ITEM: NUMBER OF ATOMS
7
ITEM: BOX BOUNDS ss ss ss
-2.9379 3.3840
-2.6027 3.4157
-1.8979 2.0462
ITEM: ATOMS id type xs ys zs
1 1 .493668 .990891 .481115
2 1 .992461 .623418 .572769
3 1 .815343 .016273 .587785
4 1 .213071 .010212 .456776
5 1 .011577 .610892 .402771
6 1 .468590 .459127 .985626
7 1 .542504 .444514 .006558
ITEM: TIMESTEP
1
ITEM: NUMBER OF ATOMS
7
ITEM: BOX BOUNDS ss ss ss
-2.8972 3.3709
-2.5736 3.4033
-1.8842 2.0283
ITEM: ATOMS id type xs ys zs
1 1 .486712 .988742 .485230
2 1 .995794 .624154 .584817
3 1 .816325 .018698 .590290
4 1 .209043 .001242 .464967
5 1 .004584 .612112 .403176
6 1 .471439 .454525 .988936
7 1 .532761 .446941 .007747
ITEM: TIMESTEP
50
ITEM: NUMBER OF ATOMS
7
ITEM: BOX BOUNDS ss ss ss
-2.9001 3.3743
-2.5906 3.4033
-1.8857 2.0283
ITEM: ATOMS id type xs ys zs
1 1 .485435 .988397 .485317
2 1 .996245 .624115 .584447
3 1 .815149 .021318 .589348
4 1 .208777 .004097 .466050
5 1 .004049 .614743 .400774
6 1 .471196 .455982 .987746
7 1 .533944 .448950 .007563
ITEM: TIMESTEP
100
ITEM: NUMBER OF ATOMS
7
ITEM: BOX BOUNDS ss ss ss
-2.9090 3.3851
-2.6050 3.4033
-1.8991 2.0290
ITEM: ATOMS id type xs ys zs
1 1 .486229 .989005 .485231
2 1 .995819 .628100 .586654
3 1 .811770 .020978 .590344
4 1 .207922 .008187 .467166
5 1 .001677 .612646 .401238
6 1 .470447 .458726 .990170
7 1 .532752 .447986 .010439
ITEM: TIMESTEP
150
ITEM: NUMBER OF ATOMS
7
ITEM: BOX BOUNDS ss ss ss
-2.9272 3.3919
-2.6075 3.4033
-1.8982 2.0344
ITEM: ATOMS id type xs ys zs
1 1 .488786 .989953 .487055
2 1 .996135 .621783 .584884
3 1 .817498 .019435 .583309
4 1 .212329 .006728 .468774
5 1 .006423 .613013 .409050
6 1 .472574 .458985 .987644
7 1 .531514 .447746 .012890
ITEM: TIMESTEP
200
ITEM: NUMBER OF ATOMS
7
ITEM: BOX BOUNDS ss ss ss
-2.9318 3.3891
-2.6044 3.4033
-1.8998 2.0388
ITEM: ATOMS id type xs ys zs
1 1 .490229 .991700 .485668
2 1 .995966 .630846 .582844
3 1 .815173 .020454 .585926
4 1 .207974 .006399 .465420
5 1 .008055 .613386 .413049
6 1 .474332 .458333 .981401
7 1 .533181 .446987 .012125
ITEM: TIMESTEP
250
ITEM: NUMBER OF ATOMS
7
ITEM: BOX BOUNDS ss ss ss
-2.9328 3.3863
-2.6126 3.4033
-1.9020 2.0480
ITEM: ATOMS id type xs ys zs
1 1 .488541 .988934 .489009
2 1 .992491 .626256 .574020
3 1 .818594 .023390 .584221
4 1 .217711 .009973 .469021
5 1 .007825 .613221 .406161
6 1 .472733 .457792 .989400
7 1 .536538 .448450 .008150
ITEM: TIMESTEP
300
ITEM: NUMBER OF ATOMS
7
ITEM: BOX BOUNDS ss ss ss
-2.9345 3.3883
-2.6059 3.4033
-1.9052 2.0568
ITEM: ATOMS id type xs ys zs
1 1 .496668 .991285 .492074
2 1 .991321 .625126 .577916
3 1 .815009 .024938 .586316
4 1 .215929 .007394 .466008
5 1 .010980 .612974 .402308
6 1 .469285 .461231 .986011
7 1 .535930 .450452 .007699
ITEM: TIMESTEP
350
ITEM: NUMBER OF ATOMS
7
ITEM: BOX BOUNDS ss ss ss
-2.9307 3.3828
-2.6045 3.4009
-1.9051 2.0489
ITEM: ATOMS id type xs ys zs
1 1 .497001 .994569 .485506
2 1 .990607 .625788 .575896
3 1 .815856 .021938 .590149
4 1 .212995 .010346 .466267
5 1 .008839 .614155 .403575
6 1 .468096 .465387 .990605
7 1 .535959 .448651 .013297
ITEM: TIMESTEP
400
ITEM: NUMBER OF ATOMS
7
ITEM: BOX BOUNDS ss ss ss
-2.9219 3.3822
-2.6120 3.4055
-1.9051 2.0515
ITEM: ATOMS id type xs ys zs
1 1 .498085 .992682 .488475
2 1 .992855 .623482 .574341
3 1 .817645 .022292 .592693
4 1 .211399 .011415 .464784
5 1 .007468 .612198 .401741
6 1 .466640 .466884 .988513
7 1 .533958 .447388 .013267
ITEM: TIMESTEP
1
ITEM: NUMBER OF ATOMS
7
ITEM: BOX BOUNDS ss ss ss
-2.8984 3.3495
-2.5883 3.4003
-1.8793 2.0356
ITEM: ATOMS id type xs ys zs
1 1 .488598 .989310 .483293
2 1 .999111 .625153 .582888
3 1 .819075 .021054 .588765
4 1 .210016 .004139 .463282
5 1 .005013 .613663 .401322
6 1 .472992 .456420 .987469
7 1 .534989 .448373 .006401
ITEM: TIMESTEP
50
ITEM: NUMBER OF ATOMS
7
ITEM: BOX BOUNDS ss ss ss
-2.9045 3.3765
-2.5917 3.4003
-1.8829 2.0356
ITEM: ATOMS id type xs ys zs
1 1 .487201 .989147 .482712
2 1 .994294 .624134 .582768
3 1 .814878 .020323 .588755
4 1 .210624 .003538 .465462
5 1 .005500 .613898 .401503
6 1 .473212 .455267 .986930
7 1 .533337 .451079 .005810
ITEM: TIMESTEP
100
ITEM: NUMBER OF ATOMS
7
ITEM: BOX BOUNDS ss ss ss
-2.9162 3.3838
-2.6058 3.4003
-1.8908 2.0356
ITEM: ATOMS id type xs ys zs
1 1 .486323 .988973 .482163
2 1 .994984 .626096 .586904
3 1 .813183 .023726 .588973
4 1 .211120 .007331 .467080
5 1 .005662 .616279 .403250
6 1 .472012 .458509 .986951
7 1 .533702 .451247 .009229
ITEM: TIMESTEP
150
ITEM: NUMBER OF ATOMS
7
ITEM: BOX BOUNDS ss ss ss
-2.9223 3.3920
-2.6094 3.4003
-1.8923 2.0356
ITEM: ATOMS id type xs ys zs
1 1 .490216 .995139 .487978
2 1 .993220 .623854 .577908
3 1 .815778 .021745 .594866
4 1 .209763 .006498 .460970
5 1 .003880 .615648 .411844
6 1 .471103 .460495 .987251
7 1 .530604 .447652 .007251
ITEM: TIMESTEP
200
ITEM: NUMBER OF ATOMS
7
ITEM: BOX BOUNDS ss ss ss
-2.9230 3.3911
-2.5980 3.4003
-1.8986 2.0356
ITEM: ATOMS id type xs ys zs
1 1 .486978 .993043 .488497
2 1 .994786 .621924 .583263
3 1 .816863 .021043 .585871
4 1 .213498 .007943 .469032
5 1 .007442 .611514 .407167
6 1 .472369 .462172 .992313
7 1 .530798 .448981 .013320
ITEM: TIMESTEP
250
ITEM: NUMBER OF ATOMS
7
ITEM: BOX BOUNDS ss ss ss
-2.9293 3.3900
-2.6032 3.4020
-1.9060 2.0398
ITEM: ATOMS id type xs ys zs
1 1 .490817 .991429 .490004
2 1 .992485 .619048 .581100
3 1 .818784 .021751 .590836
4 1 .215140 .008642 .465283
5 1 .008245 .617067 .408356
6 1 .469497 .462884 .990659
7 1 .537022 .446119 .015017
ITEM: TIMESTEP
300
ITEM: NUMBER OF ATOMS
7
ITEM: BOX BOUNDS ss ss ss
-2.9295 3.3892
-2.6023 3.4054
-1.9025 2.0375
ITEM: ATOMS id type xs ys zs
1 1 .487697 .990228 .488394
2 1 .993200 .621555 .570928
3 1 .817966 .020685 .594234
4 1 .214468 .006001 .467386
5 1 .010389 .613651 .411656
6 1 .470612 .460445 .992992
7 1 .531514 .442878 .012348
ITEM: TIMESTEP
350
ITEM: NUMBER OF ATOMS
7
ITEM: BOX BOUNDS ss ss ss
-2.9394 3.3894
-2.6072 3.4104
-1.9149 2.0421
ITEM: ATOMS id type xs ys zs
1 1 .489124 .991075 .480743
2 1 .993060 .621664 .574507
3 1 .816425 .017446 .592423
4 1 .215889 .008324 .465565
5 1 .006555 .608884 .416586
6 1 .473984 .457763 .989244
7 1 .535228 .442466 .020359
ITEM: TIMESTEP
400
ITEM: NUMBER OF ATOMS
7
ITEM: BOX BOUNDS ss ss ss
-2.9316 3.3933
-2.6143 3.4104
-1.8974 2.0627
ITEM: ATOMS id type xs ys zs
1 1 .488757 .987503 .483324
2 1 .994248 .622785 .570326
3 1 .816377 .022377 .582599
4 1 .214226 .007600 .468589
5 1 .009221 .615442 .398084
6 1 .467574 .460051 .983917
7 1 .538744 .441897 .010333
ITEM: TIMESTEP
1
ITEM: NUMBER OF ATOMS
7
ITEM: BOX BOUNDS ss ss ss
-2.9011 3.3746
-2.5883 3.4003
-1.8793 2.0358
ITEM: ATOMS id type xs ys zs
1 1 .486910 .989284 .483196
2 1 .995502 .625317 .583822
3 1 .815529 .020910 .588990
4 1 .209444 .004039 .463966
5 1 .005224 .613496 .402026
6 1 .471469 .455848 .987631
7 1 .532867 .448439 .005948
ITEM: TIMESTEP
50
ITEM: NUMBER OF ATOMS
7
ITEM: BOX BOUNDS ss ss ss
-2.9011 3.3746
-2.5943 3.4003
-1.8889 2.0358
ITEM: ATOMS id type xs ys zs
1 1 .488998 .989935 .483851
2 1 .997646 .624788 .584679
3 1 .815650 .021967 .590375
4 1 .210134 .004721 .462894
5 1 .003479 .614513 .401574
6 1 .470880 .458262 .986370
7 1 .534678 .450215 .011126
ITEM: TIMESTEP
100
ITEM: NUMBER OF ATOMS
7
ITEM: BOX BOUNDS ss ss ss
-2.9128 3.3927
-2.6025 3.4003
-1.8966 2.0358
ITEM: ATOMS id type xs ys zs
1 1 .486474 .990877 .489811
2 1 .993714 .624210 .574671
3 1 .814130 .024129 .590441
4 1 .211251 .007270 .461605
5 1 .005900 .614254 .401368
6 1 .468906 .459158 .990719
7 1 .532140 .447768 .011051
ITEM: TIMESTEP
150
ITEM: NUMBER OF ATOMS
7
ITEM: BOX BOUNDS ss ss ss
-2.9205 3.3904
-2.6041 3.4003
-1.8922 2.0358
ITEM: ATOMS id type xs ys zs
1 1 .487247 .990271 .492802
2 1 .995187 .621007 .571444
3 1 .816285 .024637 .593386
4 1 .215371 .007163 .463343
5 1 .005876 .614938 .403493
6 1 .471838 .460746 .988762
7 1 .531820 .447612 .009923
ITEM: TIMESTEP
200
ITEM: NUMBER OF ATOMS
7
ITEM: BOX BOUNDS ss ss ss
-2.9194 3.3895
-2.5998 3.4003
-1.9096 2.0358
ITEM: ATOMS id type xs ys zs
1 1 .487988 .989856 .482359
2 1 .994455 .628280 .578907
3 1 .817562 .024803 .594591
4 1 .209599 .005432 .470773
5 1 .005286 .614433 .401791
6 1 .467356 .458160 .988290
7 1 .536146 .445189 .010983
ITEM: TIMESTEP
250
ITEM: NUMBER OF ATOMS
7
ITEM: BOX BOUNDS ss ss ss
-2.9209 3.3886
-2.6021 3.4003
-1.8982 2.0362
ITEM: ATOMS id type xs ys zs
1 1 .492462 .994909 .489236
2 1 .991568 .623982 .572671
3 1 .815373 .023804 .595473
4 1 .211693 .005935 .465519
5 1 .007239 .614908 .398180
6 1 .469056 .458620 .993496
7 1 .534965 .446403 .016872
ITEM: TIMESTEP
300
ITEM: NUMBER OF ATOMS
7
ITEM: BOX BOUNDS ss ss ss
-2.9206 3.3966
-2.5955 3.4003
-1.8907 2.0452
ITEM: ATOMS id type xs ys zs
1 1 .494053 .989889 .491446
2 1 .995140 .625401 .567227
3 1 .813469 .024477 .587782
4 1 .210217 .006553 .461063
5 1 .009400 .607107 .406423
6 1 .466471 .458091 .990062
7 1 .536829 .443760 .016755
ITEM: TIMESTEP
350
ITEM: NUMBER OF ATOMS
7
ITEM: BOX BOUNDS ss ss ss
-2.9206 3.4136
-2.6030 3.4003
-1.8941 2.0469
ITEM: ATOMS id type xs ys zs
1 1 .488415 .992455 .482442
2 1 .985694 .625795 .570621
3 1 .809962 .022842 .592982
4 1 .208177 .009620 .459551
5 1 .010151 .611910 .401968
6 1 .464753 .459725 .989349
7 1 .533534 .448246 .010783
ITEM: TIMESTEP
400
ITEM: NUMBER OF ATOMS
7
ITEM: BOX BOUNDS ss ss ss
-2.9137 3.4034
-2.6149 3.4098
-1.8996 2.0500
ITEM: ATOMS id type xs ys zs
1 1 .486184 .989782 .485104
2 1 .990515 .624832 .569132
3 1 .811066 .023854 .592164
4 1 .208100 .009916 .459192
5 1 .008711 .611979 .402870
6 1 .465781 .458243 .990030
7 1 .534730 .450342 .010896
ITEM: TIMESTEP
1
ITEM: NUMBER OF ATOMS
7
ITEM: BOX BOUNDS ss ss ss
-2.9011 3.3754
-2.5904 3.4003
-1.8795 2.0364
ITEM: ATOMS id type xs ys zs
1 1 .486975 .989510 .483184
2 1 .994776 .625627 .583276
3 1 .815713 .021059 .588601
4 1 .209497 .004335 .463897
5 1 .005170 .613542 .401315
6 1 .471217 .456308 .987374
7 1 .532987 .448554 .006491
ITEM: TIMESTEP
50
ITEM: NUMBER OF ATOMS
7
ITEM: BOX BOUNDS ss ss ss
-2.9011 3.3754
-2.5939 3.4003
-1.8952 2.0364
ITEM: ATOMS id type xs ys zs
1 1 .487287 .991272 .489152
2 1 .994596 .624127 .584593
3 1 .815419 .020238 .593207
4 1 .210044 .007550 .465306
5 1 .005694 .615089 .399603
6 1 .469622 .456994 .983037
7 1 .532509 .449338 .008229
ITEM: TIMESTEP
100
ITEM: NUMBER OF ATOMS
7
ITEM: BOX BOUNDS ss ss ss
-2.9161 3.3870
-2.5975 3.4003
-1.8913 2.0364
ITEM: ATOMS id type xs ys zs
1 1 .488391 .994173 .484096
2 1 .996575 .626641 .587033
3 1 .815111 .021201 .589498
4 1 .210842 .005265 .466246
5 1 .004975 .615110 .403100
6 1 .471540 .457183 .990043
7 1 .529282 .449203 .008122
ITEM: TIMESTEP
150
ITEM: NUMBER OF ATOMS
7
ITEM: BOX BOUNDS ss ss ss
-2.9185 3.3967
-2.6051 3.4003
-1.9021 2.0364
ITEM: ATOMS id type xs ys zs
1 1 .488102 .992419 .486526
2 1 .993548 .622405 .582077
3 1 .817052 .020347 .596718
4 1 .210363 .006497 .462378
5 1 .006637 .615745 .406884
6 1 .471930 .457765 .986206
7 1 .532049 .448954 .013497
ITEM: TIMESTEP
200
ITEM: NUMBER OF ATOMS
7
ITEM: BOX BOUNDS ss ss ss
-2.9259 3.3885
-2.6056 3.4003
-1.9037 2.0364
ITEM: ATOMS id type xs ys zs
1 1 .488978 .991934 .488443
2 1 .994512 .626082 .586703
3 1 .816646 .022180 .593433
4 1 .209652 .003539 .463668
5 1 .006676 .613815 .405693
6 1 .470877 .460837 .991713
7 1 .532428 .446623 .017077
ITEM: TIMESTEP
250
ITEM: NUMBER OF ATOMS
7
ITEM: BOX BOUNDS ss ss ss
-2.9279 3.3875
-2.6035 3.4003
-1.8904 2.0364
ITEM: ATOMS id type xs ys zs
1 1 .493611 .993584 .487837
2 1 .991801 .624075 .586999
3 1 .812995 .022869 .586705
4 1 .215855 .009261 .457689
5 1 .008115 .610385 .409795
6 1 .465512 .461064 .986543
7 1 .535326 .444126 .011872
ITEM: TIMESTEP
300
ITEM: NUMBER OF ATOMS
7
ITEM: BOX BOUNDS ss ss ss
-2.9259 3.3844
-2.6033 3.4077
-1.8929 2.0467
ITEM: ATOMS id type xs ys zs
1 1 .491368 .994510 .491904
2 1 .988176 .624391 .588486
3 1 .818100 .020580 .579233
4 1 .214279 .009150 .459762
5 1 .006345 .611547 .405627
6 1 .465909 .460639 .983897
7 1 .531805 .447625 .008229
ITEM: TIMESTEP
350
ITEM: NUMBER OF ATOMS
7
ITEM: BOX BOUNDS ss ss ss
-2.9266 3.3808
-2.6304 3.4147
-1.9057 2.0442
ITEM: ATOMS id type xs ys zs
1 1 .490659 .992698 .493845