ITEM: TIMESTEP
1
ITEM: NUMBER OF ATOMS
7
ITEM: BOX BOUNDS ss ss ss
-8.8980 9.6689
-8.3346 9.4756
-6.0168 5.6262
ITEM: ATOMS id type xs ys zs
1 1 .504461 .666666 .495656
2 1 .666666 .536293 .524365
3 1 .598967 .333333 .501787
4 1 .390839 .340980 .481836
5 1 .333332 .548293 .500963
6 1 .493405 .480499 .666666
7 1 .504791 .485592 .333333
ITEM: TIMESTEP
50
ITEM: NUMBER OF ATOMS
7
ITEM: BOX BOUNDS ss ss ss
-8.8980 9.6689
-8.3346 9.4756
-6.0168 5.6262
ITEM: ATOMS id type xs ys zs
1 1 .504454 .666659 .495457
2 1 .666661 .536323 .524504
3 1 .599009 .333333 .501759
4 1 .390817 .340999 .481749
5 1 .333308 .548339 .501173
6 1 .493400 .480464 .666629
7 1 .504805 .485561 .333333
ITEM: TIMESTEP
100
ITEM: NUMBER OF ATOMS
7
ITEM: BOX BOUNDS ss ss ss
-8.8980 9.6689
-8.3346 9.4756
-6.0168 5.6262
ITEM: ATOMS id type xs ys zs
1 1 .504457 .666641 .495353
2 1 .666655 .536347 .524538
3 1 .598977 .333327 .501763
4 1 .390810 .340977 .481744
5 1 .333333 .548331 .501229
6 1 .493403 .480486 .666666
7 1 .504780 .485537 .333336
ITEM: TIMESTEP
150
ITEM: NUMBER OF ATOMS
7
ITEM: BOX BOUNDS ss ss ss
-8.8980 9.6689
-8.3346 9.4756
-6.0168 5.6262
ITEM: ATOMS id type xs ys zs
1 1 .504470 .666622 .495273
2 1 .666589 .536345 .524499
3 1 .598955 .333401 .501779
4 1 .390840 .340959 .481740
5 1 .333391 .548305 .501175
6 1 .493382 .480552 .666807
7 1 .504691 .485524 .333214
ITEM: TIMESTEP
200
ITEM: NUMBER OF ATOMS
7
ITEM: BOX BOUNDS ss ss ss
-8.8980 9.6689
-8.3346 9.4756
-6.0168 5.6262
ITEM: ATOMS id type xs ys zs
1 1 .504492 .666675 .495109
2 1 .666513 .536379 .524518
3 1 .598934 .333459 .501788
4 1 .390837 .341035 .481696
5 1 .333409 .548248 .501163
6 1 .493353 .480582 .666935
7 1 .504653 .485578 .333113
ITEM: TIMESTEP
250
ITEM: NUMBER OF ATOMS
7
ITEM: BOX BOUNDS ss ss ss
-8.8980 9.6689
-8.3346 9.4756
-6.0168 5.6262
ITEM: ATOMS id type xs ys zs
1 1 .504552 .666691 .495034
2 1 .666505 .536333 .524566
3 1 .598818 .333440 .501808
4 1 .390846 .341033 .481730
5 1 .333399 .548173 .501211
6 1 .493354 .480600 .666928
7 1 .504618 .485588 .333101
ITEM: TIMESTEP
300
ITEM: NUMBER OF ATOMS
7
ITEM: BOX BOUNDS ss ss ss
-8.8980 9.6689
-8.3346 9.4756
-6.0168 5.6262
ITEM: ATOMS id type xs ys zs
1 1 .504588 .666726 .494955
2 1 .666485 .536239 .524533
3 1 .598748 .333405 .501850
4 1 .390887 .341012 .481779
5 1 .333462 .548161 .501313
6 1 .493406 .480633 .666935
7 1 .504633 .485549 .333054
ITEM: TIMESTEP
350
ITEM: NUMBER OF ATOMS
7
ITEM: BOX BOUNDS ss ss ss
-8.8980 9.6689
-8.3346 9.4756
-6.0168 5.6262
ITEM: ATOMS id type xs ys zs
1 1 .504667 .666897 .494693
2 1 .666436 .536212 .524495
3 1 .598617 .333355 .501804
4 1 .391018 .340963 .481793
5 1 .333589 .548203 .501327
6 1 .493450 .480730 .667084
7 1 .504584 .485626 .333108
ITEM: TIMESTEP
400
ITEM: NUMBER OF ATOMS
7
ITEM: BOX BOUNDS ss ss ss
-8.8980 9.6689
-8.3346 9.4756
-6.0168 5.6262
ITEM: ATOMS id type xs ys zs
1 1 .504653 .667117 .494621
2 1 .666341 .536521 .524348
3 1 .598547 .333422 .501638
4 1 .391037 .340907 .481600
5 1 .333634 .548265 .501244
6 1 .493437 .480802 .667060
7 1 .504400 .485852 .333279
ITEM: TIMESTEP
450
ITEM: NUMBER OF ATOMS
7
ITEM: BOX BOUNDS ss ss ss
-8.8980 9.6689
-8.3346 9.4756
-6.0168 5.6262
ITEM: ATOMS id type xs ys zs
1 1 .504587 .667208 .494654
2 1 .666325 .536668 .524145
3 1 .598563 .333476 .501597
4 1 .390990 .340860 .481449
5 1 .333710 .548265 .501258
6 1 .493484 .480776 .666989
7 1 .504346 .485921 .333357
ITEM: TIMESTEP
500
ITEM: NUMBER OF ATOMS
7
ITEM: BOX BOUNDS ss ss ss
-8.8980 9.6689
-8.3346 9.4756
-6.0168 5.6262
ITEM: ATOMS id type xs ys zs
1 1 .504564 .667191 .494599
2 1 .666327 .536666 .523886
3 1 .598466 .333463 .501695
4 1 .390955 .340851 .481295
5 1 .333685 .548202 .501276
6 1 .493500 .480787 .666995
7 1 .504362 .485912 .333371
ITEM: TIMESTEP
550
ITEM: NUMBER OF ATOMS
7
ITEM: BOX BOUNDS ss ss ss
-8.8980 9.6689
-8.3346 9.4756
-6.0168 5.6262
ITEM: ATOMS id type xs ys zs
1 1 .504556 .667184 .494614
2 1 .666286 .536587 .523888
3 1 .598400 .333477 .501630
4 1 .390938 .340873 .481271
5 1 .333643 .548206 .501205
6 1 .493448 .480776 .666985
7 1 .504383 .485932 .333249
ITEM: TIMESTEP
600
ITEM: NUMBER OF ATOMS
7
ITEM: BOX BOUNDS ss ss ss
-8.8980 9.6689
-8.3346 9.4756
-6.0168 5.6262
ITEM: ATOMS id type xs ys zs
1 1 .504492 .667236 .494757
2 1 .666261 .536592 .523839
3 1 .598370 .333505 .501624
4 1 .390913 .340845 .481178
5 1 .333661 .548219 .501150
6 1 .493428 .480743 .666965
7 1 .504392 .485989 .333220
ITEM: TIMESTEP
650
ITEM: NUMBER OF ATOMS
7
ITEM: BOX BOUNDS ss ss ss
-8.8980 9.6689
-8.3346 9.4756
-6.0168 5.6262
ITEM: ATOMS id type xs ys zs
1 1 .504508 .667286 .494890
2 1 .666246 .536625 .523908
3 1 .598313 .333594 .501740
4 1 .390923 .340824 .481137
5 1 .333785 .548162 .501111
6 1 .493456 .480594 .667180
7 1 .504424 .486035 .333140
ITEM: TIMESTEP
700
ITEM: NUMBER OF ATOMS
7
ITEM: BOX BOUNDS ss ss ss
-8.8980 9.6689
-8.3346 9.4756
-6.0168 5.6262
ITEM: ATOMS id type xs ys zs
1 1 .504564 .667336 .494820
2 1 .666244 .536612 .523931
3 1 .598322 .333576 .501758
4 1 .390959 .340830 .481239
5 1 .333849 .548109 .501138
6 1 .493467 .480537 .667312
7 1 .504427 .486040 .333141
ITEM: TIMESTEP
1
ITEM: NUMBER OF ATOMS
7
ITEM: BOX BOUNDS ss ss ss
-8.8980 9.6689
-8.3346 9.4756
-6.0168 5.6262
ITEM: ATOMS id type xs ys zs
1 1 .504461 .666666 .495655
2 1 .666667 .536293 .524366
3 1 .598967 .333333 .501787
4 1 .390839 .340979 .481836
5 1 .333332 .548293 .500964
6 1 .493405 .480500 .666666
7 1 .504791 .485591 .333334
ITEM: TIMESTEP
50
ITEM: NUMBER OF ATOMS
7
ITEM: BOX BOUNDS ss ss ss
-8.8980 9.6689
-8.3346 9.4756
-6.0168 5.6262
ITEM: ATOMS id type xs ys zs
1 1 .504460 .666659 .495391
2 1 .666666 .536316 .524546
3 1 .599022 .333324 .501765
4 1 .390813 .341002 .481729
5 1 .333298 .548350 .501211
6 1 .493392 .480456 .666616
7 1 .504811 .485554 .333339
ITEM: TIMESTEP
100
ITEM: NUMBER OF ATOMS
7
ITEM: BOX BOUNDS ss ss ss
-8.8980 9.6689
-8.3346 9.4756
-6.0168 5.6262
ITEM: ATOMS id type xs ys zs
1 1 .504469 .666658 .495222
2 1 .666647 .536290 .524651
3 1 .599017 .333287 .501762
4 1 .390796 .341043 .481671
5 1 .333326 .548364 .501309
6 1 .493398 .480449 .666646
7 1 .504794 .485565 .333311
ITEM: TIMESTEP
150
ITEM: NUMBER OF ATOMS
7
ITEM: BOX BOUNDS ss ss ss
-8.8980 9.6689
-8.3346 9.4756
-6.0168 5.6262
ITEM: ATOMS id type xs ys zs
1 1 .504408 .666659 .495029
2 1 .666575 .536276 .524807
3 1 .598977 .333308 .501689
4 1 .390875 .341064 .481689
5 1 .333392 .548398 .501220
6 1 .493439 .480419 .666766
7 1 .504792 .485605 .333197
ITEM: TIMESTEP
200
ITEM: NUMBER OF ATOMS
7
ITEM: BOX BOUNDS ss ss ss
-8.8980 9.6689
-8.3346 9.4756
-6.0168 5.6262
ITEM: ATOMS id type xs ys zs
1 1 .504371 .666683 .494833
2 1 .666519 .536296 .524927
3 1 .598895 .333282 .501696
4 1 .390930 .341090 .481675
5 1 .333514 .548384 .501161
6 1 .493429 .480360 .666893
7 1 .504833 .485644 .333137
ITEM: TIMESTEP
250
ITEM: NUMBER OF ATOMS
7
ITEM: BOX BOUNDS ss ss ss
-8.8980 9.6689
-8.3346 9.4756
-6.0168 5.6262
ITEM: ATOMS id type xs ys zs
1 1 .504411 .666729 .494600
2 1 .666546 .536384 .525030
3 1 .598710 .333290 .501930
4 1 .390794 .341169 .481521
5 1 .333625 .548297 .501323
6 1 .493464 .480316 .667172
7 1 .504979 .485625 .333189
ITEM: TIMESTEP
300
ITEM: NUMBER OF ATOMS
7
ITEM: BOX BOUNDS ss ss ss
-8.8980 9.6689
-8.3346 9.4756
-6.0168 5.6262
ITEM: ATOMS id type xs ys zs
1 1 .504429 .666744 .494449
2 1 .666523 .536446 .525055
3 1 .598664 .333273 .501947
4 1 .390712 .341193 .481424
5 1 .333715 .548224 .501548
6 1 .493518 .480287 .667300
7 1 .504999 .485557 .333205
ITEM: TIMESTEP
350
ITEM: NUMBER OF ATOMS
7
ITEM: BOX BOUNDS ss ss ss
-8.8980 9.6689
-8.3346 9.4756
-6.0168 5.6262
ITEM: ATOMS id type xs ys zs
1 1 .504417 .666786 .494516
2 1 .666458 .536441 .525057
3 1 .598800 .333246 .501677
4 1 .390668 .341157 .481410
5 1 .333862 .548137 .501576
6 1 .493626 .480138 .667301
7 1 .504983 .485587 .333106
ITEM: TIMESTEP
400
ITEM: NUMBER OF ATOMS
7
ITEM: BOX BOUNDS ss ss ss
-8.8980 9.6689
-8.3346 9.4756
-6.0168 5.6262
ITEM: ATOMS id type xs ys zs
1 1 .504359 .666822 .494667
2 1 .666407 .536438 .524962
3 1 .598921 .333292 .501337
4 1 .390695 .341184 .481402
5 1 .334076 .548093 .501522
6 1 .493743 .479906 .667270
7 1 .504999 .485704 .333010
ITEM: TIMESTEP
450
ITEM: NUMBER OF ATOMS
7
ITEM: BOX BOUNDS ss ss ss
-8.8980 9.6689
-8.3346 9.4756
-6.0168 5.6262
ITEM: ATOMS id type xs ys zs
1 1 .504391 .666834 .494530
2 1 .666428 .536454 .525049
3 1 .598929 .333325 .501256
4 1 .390753 .341235 .481352
5 1 .334085 .548053 .501623
6 1 .493776 .479866 .667348
7 1 .505013 .485720 .333046
ITEM: TIMESTEP
500
ITEM: NUMBER OF ATOMS
7
ITEM: BOX BOUNDS ss ss ss
-8.8980 9.6689
-8.3346 9.4756
-6.0168 5.6262
ITEM: ATOMS id type xs ys zs
1 1 .504478 .666839 .494439
2 1 .666449 .536376 .525201
3 1 .598915 .333329 .501264
4 1 .390844 .341328 .481349
5 1 .334128 .548044 .501684
6 1 .493788 .479839 .667504
7 1 .505018 .485784 .333049
ITEM: TIMESTEP
550
ITEM: NUMBER OF ATOMS
7
ITEM: BOX BOUNDS ss ss ss
-8.8980 9.6689
-8.3346 9.4756
-6.0168 5.6262
ITEM: ATOMS id type xs ys zs
1 1 .504482 .666833 .494391
2 1 .666457 .536403 .525269
3 1 .598822 .333265 .501330
4 1 .390827 .341375 .481295
5 1 .334124 .548045 .501839
6 1 .493815 .479823 .667541
7 1 .505020 .485792 .332987
ITEM: TIMESTEP
600
ITEM: NUMBER OF ATOMS
7
ITEM: BOX BOUNDS ss ss ss
-8.8980 9.6689
-8.3346 9.4756
-6.0168 5.6262
ITEM: ATOMS id type xs ys zs
1 1 .504495 .666840 .494377
2 1 .666444 .536427 .525382
3 1 .598757 .333219 .501329
4 1 .390782 .341458 .481201
5 1 .334113 .548051 .501995
6 1 .493864 .479761 .667671
7 1 .504997 .485810 .332901
ITEM: TIMESTEP
650
ITEM: NUMBER OF ATOMS
7
ITEM: BOX BOUNDS ss ss ss
-8.8980 9.6689
-8.3346 9.4756
-6.0168 5.6262
ITEM: ATOMS id type xs ys zs
1 1 .504487 .666811 .494411
2 1 .666508 .536419 .525437
3 1 .598662 .333317 .501278
4 1 .390724 .341601 .480971
5 1 .333973 .548063 .502356
6 1 .493857 .479930 .667808
7 1 .504980 .485861 .332903
ITEM: TIMESTEP
700
ITEM: NUMBER OF ATOMS
7
ITEM: BOX BOUNDS ss ss ss
-8.8980 9.6689
-8.3346 9.4756
-6.0168 5.6262
ITEM: ATOMS id type xs ys zs
1 1 .504455 .666741 .494399
2 1 .666505 .536377 .525617
3 1 .598687 .333379 .501198
4 1 .390705 .341598 .480821
5 1 .333945 .548079 .502527
6 1 .493829 .479954 .667844
7 1 .504948 .485832 .332820
ITEM: TIMESTEP
750
ITEM: NUMBER OF ATOMS
7
ITEM: BOX BOUNDS ss ss ss
-8.8980 9.6689
-8.3346 9.4756
-6.0168 5.6262
ITEM: ATOMS id type xs ys zs
1 1 .504389 .666892 .494223
2 1 .666376 .536177 .526194
3 1 .598864 .333283 .501010
4 1 .390965 .341353 .481277
5 1 .334177 .547985 .502128
6 1 .493751 .479846 .667890
7 1 .505051 .485754 .332840
ITEM: TIMESTEP
800
ITEM: NUMBER OF ATOMS
7
ITEM: BOX BOUNDS ss ss ss
-8.8980 9.6689
-8.3346 9.4756
-6.0168 5.6262
ITEM: ATOMS id type xs ys zs
1 1 .504396 .666930 .494013
2 1 .666322 .536146 .526525
3 1 .598937 .333196 .500917
4 1 .391083 .341238 .481453
5 1 .334279 .547958 .501995
6 1 .493753 .479816 .667971
7 1 .505158 .485692 .332946
ITEM: TIMESTEP
850
ITEM: NUMBER OF ATOMS
7
ITEM: BOX BOUNDS ss ss ss
-8.8980 9.6689
-8.3346 9.4756
-6.0168 5.6262
ITEM: ATOMS id type xs ys zs
1 1 .504444 .666935 .493812
2 1 .666307 .536156 .526703
3 1 .598904 .333197 .500832
4 1 .391092 .341267 .481321
5 1 .334280 .547973 .502047
6 1 .493746 .479849 .668026
7 1 .505171 .485700 .332929
ITEM: TIMESTEP
900
ITEM: NUMBER OF ATOMS
7
ITEM: BOX BOUNDS ss ss ss
-8.8980 9.6689
-8.3346 9.4756
-6.0168 5.6262
ITEM: ATOMS id type xs ys zs
1 1 .504535 .666945 .493651
2 1 .666329 .536210 .526774
3 1 .598886 .333209 .500754
4 1 .391078 .341285 .481302
5 1 .334273 .547946 .502209
6 1 .493774 .479768 .668000
7 1 .505170 .485713 .332976
ITEM: TIMESTEP
950
ITEM: NUMBER OF ATOMS
7
ITEM: BOX BOUNDS ss ss ss
-8.8980 9.6689
-8.3346 9.4756
-6.0168 5.6262
ITEM: ATOMS id type xs ys zs
1 1 .504537 .666892 .493512
2 1 .666465 .536193 .526753
3 1 .598848 .333201 .500678
4 1 .391086 .341324 .481298
5 1 .334265 .547957 .502407
6 1 .493820 .479758 .667939
7 1 .505212 .485761 .332978
ITEM: TIMESTEP
1000
ITEM: NUMBER OF ATOMS
7
ITEM: BOX BOUNDS ss ss ss
-8.8980 9.6689
-8.3346 9.4756
-6.0168 5.6262
ITEM: ATOMS id type xs ys zs
1 1 .504502 .666992 .493231
2 1 .666616 .536154 .526625
3 1 .598864 .333279 .500402
4 1 .391194 .341358 .481343
5 1 .334192 .547985 .502450
6 1 .493898 .479837 .667901
7 1 .505120 .485912 .332967
ITEM: TIMESTEP
1050
ITEM: NUMBER OF ATOMS
7
ITEM: BOX BOUNDS ss ss ss
-8.8980 9.6689
-8.3346 9.4756
-6.0168 5.6262
ITEM: ATOMS id type xs ys zs
1 1 .504507 .667026 .493092
2 1 .666733 .536171 .526711
3 1 .598867 .333337 .500236
4 1 .391192 .341380 .481407
5 1 .334159 .547997 .502606
6 1 .493970 .479960 .667841
7 1 .505116 .485933 .333047
ITEM: TIMESTEP
1100
ITEM: NUMBER OF ATOMS
7
ITEM: BOX BOUNDS ss ss ss
-8.8980 9.6689
-8.3346 9.4756
-6.0168 5.6262
ITEM: ATOMS id type xs ys zs
1 1 .504616 .666998 .493095
2 1 .666878 .536214 .526879
3 1 .598954 .333310 .500196
4 1 .391183 .341235 .481404
5 1 .334125 .547940 .502664
6 1 .493993 .479958 .667635
7 1 .505114 .485893 .333222
ITEM: TIMESTEP
1150
ITEM: NUMBER OF ATOMS
7
ITEM: BOX BOUNDS ss ss ss
-8.8980 9.6689
-8.3346 9.4756
-6.0168 5.6262
ITEM: ATOMS id type xs ys zs
1 1 .504624 .667041 .492999
2 1 .666915 .536326 .527029
3 1 .598954 .333268 .500196
4 1 .391187 .341119 .481345
5 1 .334134 .547954 .502557
6 1 .494057 .479938 .667507
7 1 .505064 .485924 .333197
ITEM: TIMESTEP
1200
ITEM: NUMBER OF ATOMS
7
ITEM: BOX BOUNDS ss ss ss
-8.8980 9.6689
-8.3346 9.4756
-6.0168 5.6262
ITEM: ATOMS id type xs ys zs
1 1 .504529 .667163 .492842
2 1 .666861 .536513 .527114
3 1 .598843 .333283 .500161
4 1 .391182 .341150 .481314
5 1 .334211 .548045 .502469
6 1 .494072 .479972 .667529
7 1 .505063 .485972 .333161
ITEM: TIMESTEP
1250
ITEM: NUMBER OF ATOMS
7
ITEM: BOX BOUNDS ss ss ss
-8.8980 9.6689
-8.3346 9.4756
-6.0168 5.6262
ITEM: ATOMS id type xs ys zs
1 1 .504489 .667267 .492638
2 1 .666788 .536591 .527101
3 1 .598767 .333335 .500050
4 1 .391140 .341182 .481347
5 1 .334235 .548098 .502643
6 1 .493998 .479997 .667661
7 1 .505095 .485936 .333303
ITEM: TIMESTEP
1300
ITEM: NUMBER OF ATOMS
7
ITEM: BOX BOUNDS ss ss ss
-8.8980 9.6689
-8.3346 9.4756
-6.0168 5.6262
ITEM: ATOMS id type xs ys zs
1 1 .504407 .667335 .492535
2 1 .666666 .536586 .526970
3 1 .598725 .333306 .499910
4 1 .391030 .341265 .481556
5 1 .334233 .548101 .502743
6 1 .493991 .479998 .667899
7 1 .505148 .485943 .333519
ITEM: TIMESTEP
1350
ITEM: NUMBER OF ATOMS
7
ITEM: BOX BOUNDS ss ss ss
-8.8980 9.6689
-8.3346 9.4756
-6.0168 5.6262
ITEM: ATOMS id type xs ys zs
1 1 .504284 .667352 .492482
2 1 .666560 .536588 .526847
3 1 .598777 .333252 .499773
4 1 .390949 .341255 .481771
5 1 .334205 .548051 .502818
6 1 .494018 .479906 .668192
7 1 .505114 .485933 .333723
ITEM: TIMESTEP
1400
ITEM: NUMBER OF ATOMS
7
ITEM: BOX BOUNDS ss ss ss
-8.8980 9.6689
-8.3346 9.4756
-6.0168 5.6262
ITEM: ATOMS id type xs ys zs
1 1 .504320 .667358 .492322
2 1 .666519 .536604 .526965
3 1 .598764 .333228 .499889
4 1 .390938 .341241 .481690
5 1 .334246 .547981 .502975
6 1 .494035 .479836 .668226
7 1 .505095 .485854 .333670
ITEM: TIMESTEP
1450
ITEM: NUMBER OF ATOMS
7
ITEM: BOX BOUNDS ss ss ss
-8.8980 9.6689
-8.3346 9.4756
-6.0168 5.6262
ITEM: ATOMS id type xs ys zs
1 1 .504298 .667320 .492292
2 1 .666469 .536592 .527070
3 1 .598733 .333184 .499963
4 1 .390917 .341252 .481567
5 1 .334295 .547935 .503092
6 1 .494053 .479681 .668316
7 1 .505138 .485818 .333645
ITEM: TIMESTEP
1500
ITEM: NUMBER OF ATOMS
7
ITEM: BOX BOUNDS ss ss ss
-8.8980 9.6689
-8.3346 9.4756
-6.0168 5.6262
ITEM: ATOMS id type xs ys zs
1 1 .504332 .667369 .492455
2 1 .666416 .536510 .527273
3 1 .598675 .333144 .499828
4 1 .390916 .341201 .481405
5 1 .334241 .547889 .503310
6 1 .494062 .479472 .668335
7 1 .505008 .485972 .333624
ITEM: TIMESTEP
1550
ITEM: NUMBER OF ATOMS
7
ITEM: BOX BOUNDS ss ss ss
-8.8980 9.6689
-8.3346 9.4756
-6.0168 5.6262
ITEM: ATOMS id type xs ys zs
1 1 .504312 .667341 .492507
2 1 .666350 .536562 .527390
3 1 .598669 .333098 .499719
4 1 .390949 .341225 .481263
5 1 .334341 .547841 .503487
6 1 .494145 .479338 .668394
7 1 .505026 .486008 .333530
ITEM: TIMESTEP
1600
ITEM: NUMBER OF ATOMS
7
ITEM: BOX BOUNDS ss ss ss
-8.8980 9.6689
-8.3346 9.4756
-6.0168 5.6262
ITEM: ATOMS id type xs ys zs
1 1 .504306 .667330 .492428
2 1 .666317 .536598 .527560
3 1 .598670 .333094 .499676
4 1 .390983 .341236 .481233
5 1 .334410 .547859 .503685
6 1 .494166 .479293 .668455
7 1 .504996 .485941 .333435
ITEM: TIMESTEP
1650
ITEM: NUMBER OF ATOMS
7
ITEM: BOX BOUNDS ss ss ss
-8.8980 9.6689
-8.3346 9.4756
-6.0168 5.6262
ITEM: ATOMS id type xs ys zs
1 1 .504349 .667406 .492420
2 1 .666329 .536537 .527787
3 1 .598670 .333137 .499591
4 1 .391050 .341188 .481190
5 1 .334352 .547882 .503882
6 1 .494137 .479336 .668390
7 1 .504793 .486049 .333529
ITEM: TIMESTEP
1700
ITEM: NUMBER OF ATOMS
7
ITEM: BOX BOUNDS ss ss ss
-8.8980 9.6689
-8.3346 9.4756
-6.0168 5.6262
ITEM: ATOMS id type xs ys zs
1 1 .504721 .667490 .491950
2 1 .666598 .536311 .527620
3 1 .598873 .333302 .499880
4 1 .391229 .341048 .481258
5 1 .334708 .547898 .503585
6 1 .494238 .479498 .668363
7 1 .504932 .485954 .333568
ITEM: TIMESTEP
1750
ITEM: NUMBER OF ATOMS
7
ITEM: BOX BOUNDS ss ss ss
-8.8980 9.6689
-8.3346 9.4756
-6.0168 5.6262
ITEM: ATOMS id type xs ys zs
1 1 .504851 .667516 .491781
2 1 .666642 .536286 .527628
3 1 .598979 .333313 .499946
4 1 .391260 .340996 .481221
5 1 .334794 .547921 .503627
6 1 .494262 .479441 .668466
7 1 .505009 .485934 .333575
ITEM: TIMESTEP
1800
ITEM: NUMBER OF ATOMS
7
ITEM: BOX BOUNDS ss ss ss
-8.8980 9.6689
-8.3346 9.4756
-6.0168 5.6262
ITEM: ATOMS id type xs ys zs
1 1 .504896 .667540 .491709
2 1 .666545 .536333 .527598
3 1 .599026 .333275 .499890
4 1 .391214 .340936 .481226
5 1 .334831 .547935 .503791
6 1 .494253 .479320 .668495
7 1 .504974 .485910 .333560
ITEM: TIMESTEP
1850
ITEM: NUMBER OF ATOMS
7
ITEM: BOX BOUNDS ss ss ss
-8.8980 9.6689
-8.3346 9.4756
-6.0168 5.6262
ITEM: ATOMS id type xs ys zs
1 1 .504899 .667524 .491709
2 1 .666462 .536422 .527714
3 1 .599033 .333270 .499749
4 1 .391227 .340911 .481251
5 1 .334866 .547907 .504008
6 1 .494274 .479264 .668566
7 1 .505014 .485865 .333478
ITEM: TIMESTEP
1900
ITEM: NUMBER OF ATOMS
7
ITEM: BOX BOUNDS ss ss ss
-8.8980 9.6689
-8.3346 9.4756
-6.0168 5.6262
ITEM: ATOMS id type xs ys zs
1 1 .504903 .667493 .491622
2 1 .666395 .536488 .527819
3 1 .599069 .333263 .499512
4 1 .391278 .340909 .481173
5 1 .334895 .547859 .504129
6 1 .494278 .479242 .668729
7 1 .505108 .485796 .333416
ITEM: TIMESTEP
1950
ITEM: NUMBER OF ATOMS
7
ITEM: BOX BOUNDS ss ss ss
-8.8980 9.6689
-8.3346 9.4756
-6.0168 5.6262
ITEM: ATOMS id type xs ys zs
1 1 .504910 .667495 .491403
2 1 .666310 .536577 .527897
3 1 .599121 .333266 .499414
4 1 .391351 .340950 .481141
5 1 .334939 .547809 .504270
6 1 .494256 .479186 .668884
7 1 .505205 .485753 .333353
ITEM: TIMESTEP
2000
ITEM: NUMBER OF ATOMS
7
ITEM: BOX BOUNDS ss ss ss
-8.8980 9.6689
-8.3346 9.4756
-6.0168 5.6262
ITEM: ATOMS id type xs ys zs
1 1 .504899 .667460 .491285
2 1 .666217 .536707 .527891
3 1 .599263 .333382 .499306
4 1 .391458 .340915 .481155
5 1 .334989 .547712 .504413
6 1 .494255 .479102 .669023
7 1 .505275 .485774 .333205
ITEM: TIMESTEP
2050
ITEM: NUMBER OF ATOMS
7
ITEM: BOX BOUNDS ss ss ss
-8.8980 9.6689
-8.3346 9.4756
-6.0168 5.6262
ITEM: ATOMS id type xs ys zs
1 1 .504862 .667487 .491247
2 1 .666200 .536884 .527901
3 1 .599312 .333499 .499179
4 1 .391478 .340908 .481189
5 1 .334956 .547667 .504462
6 1 .494211 .479174 .668943
7 1 .505362 .485765 .333238
ITEM: TIMESTEP
2100
ITEM: NUMBER OF ATOMS
7
ITEM: BOX BOUNDS ss ss ss
-8.8980 9.6689
-8.3346 9.4756
-6.0168 5.6262
ITEM: ATOMS id type xs ys zs
1 1 .504709 .667456 .491403
2 1 .666192 .536911 .528166
3 1 .599378 .333519 .499191
4 1 .391463 .340943 .481071
5 1 .334887 .547722 .504415
6 1 .494112 .479158 .668866
7 1 .505319 .485847 .333208
ITEM: TIMESTEP
2150
ITEM: NUMBER OF ATOMS
7
ITEM: BOX BOUNDS ss ss ss
-8.8980 9.6689
-8.3346 9.4756
-6.0168 5.6262
ITEM: ATOMS id type xs ys zs
1 1 .504651 .667440 .491399
2 1 .666131 .536917 .528390
3 1 .599436 .333534 .499171
4 1 .391450 .340977 .480863
5 1 .334848 .547770 .504468
6 1 .494084 .479077 .668884
7 1 .505269 .485888 .333225
ITEM: TIMESTEP
2200
ITEM: NUMBER OF ATOMS
7
ITEM: BOX BOUNDS ss ss ss
-8.8980 9.6689
-8.3346 9.4756
-6.0168 5.6262
ITEM: ATOMS id type xs ys zs
1 1 .504637 .667467 .491423
2 1 .666058 .536957 .528534
3 1 .599502 .333552 .499111
4 1 .391462 .340988 .480640
5 1 .334755 .547801 .504553
6 1 .494057 .479069 .668698
7 1 .505241 .485937 .333173
ITEM: TIMESTEP
2250
ITEM: NUMBER OF ATOMS
7
ITEM: BOX BOUNDS ss ss ss
-8.8980 9.6689
-8.3346 9.4756
-6.0168 5.6262
ITEM: ATOMS id type xs ys zs
1 1 .504637 .667569 .491368
2 1 .665974 .537078 .528653
3 1 .599513 .333664 .498933
4 1 .391427 .341039 .480534
5 1 .334674 .548003 .504568
6 1 .493990 .479145 .668556
7 1 .505125 .486024 .333105
ITEM: TIMESTEP
2300
ITEM: NUMBER OF ATOMS
7
ITEM: BOX BOUNDS ss ss ss
-8.8980 9.6689
-8.3346 9.4756
-6.0168 5.6262
ITEM: ATOMS id type xs ys zs
1 1 .504689 .667668 .491193
2 1 .665894 .537204 .528750
3 1 .599448 .333709 .498719
4 1 .391356 .341053 .480500
5 1 .334592 .548141 .504547
6 1 .493947 .479157 .668398
7 1 .505019 .486061 .333014
ITEM: TIMESTEP
2350
ITEM: NUMBER OF ATOMS
7
ITEM: BOX BOUNDS ss ss ss
-8.8980 9.6689
-8.3346 9.4756
-6.0168 5.6262
ITEM: ATOMS id type xs ys zs
1 1 .504711 .667670 .490991
2 1 .665926 .537279 .528963
3 1 .599460 .333626 .498611
4 1 .391347 .341018 .480393
5 1 .334634 .548119 .504608
6 1 .493936 .478954 .668432
7 1 .505099 .486034 .332948
ITEM: TIMESTEP
2400
ITEM: NUMBER OF ATOMS
7
ITEM: BOX BOUNDS ss ss ss
-8.8980 9.6689
-8.3346 9.4756
-6.0168 5.6262
ITEM: ATOMS id type xs ys zs
1 1 .504779 .667687 .490725
2 1 .665925 .537328 .529100
3 1 .599463 .333594 .498515
4 1 .391334 .341021 .480317
5 1 .334762 .548080 .504716
6 1 .493947 .478733 .668551
7 1 .505210 .486000 .332966
ITEM: TIMESTEP
2450
ITEM: NUMBER OF ATOMS
7
ITEM: BOX BOUNDS ss ss ss
-8.8980 9.6689
-8.3346 9.4756
-6.0168 5.6262
ITEM: ATOMS id type xs ys zs
1 1 .504821 .667715 .490559
2 1 .665858 .537306 .529202
3 1 .599436 .333566 .498347
4 1 .391305 .341053 .480252
5 1 .334883 .548097 .504827
6 1 .493931 .478545 .668740
7 1 .505274 .485973 .332921
ITEM: TIMESTEP
2500
ITEM: NUMBER OF ATOMS
7
ITEM: BOX BOUNDS ss ss ss
-8.8980 9.6689
-8.3346 9.4756
-6.0168 5.6262
ITEM: ATOMS id type xs ys zs
1 1 .504810 .667629 .490617
2 1 .665759 .537132 .529352
3 1 .599403 .333408 .498250
4 1 .391284 .341085 .479926
5 1 .334960 .548173 .504872
6 1 .493859 .478415 .668943
7 1 .505309 .485904 .332836
ITEM: TIMESTEP
2550
ITEM: NUMBER OF ATOMS
7
ITEM: BOX BOUNDS ss ss ss
-8.8980 9.6689
-8.3346 9.4756
-6.0168 5.6262
ITEM: ATOMS id type xs ys zs
1 1 .504852 .667674 .490453
2 1 .665721 .537031 .529504
3 1 .599382 .333366 .498220
4 1 .391254 .341005 .479811
5 1 .335064 .548175 .505011
6 1 .493900 .478273 .669062
7 1 .505256 .485884 .332990
ITEM: TIMESTEP
2600
ITEM: NUMBER OF ATOMS
7
ITEM: BOX BOUNDS ss ss ss
-8.8980 9.6689
-8.3346 9.4756
-6.0168 5.6262
ITEM: ATOMS id type xs ys zs
1 1 .505002 .667703 .490322
2 1 .665698 .537023 .529450
3 1 .599390 .333439 .498353
4 1 .391357 .340899 .479783
5 1 .335149 .548137 .505359
6 1 .493933 .478072 .669168
7 1 .505141 .485912 .333064
ITEM: TIMESTEP
2650
ITEM: NUMBER OF ATOMS
7
ITEM: BOX BOUNDS ss ss ss
-8.8980 9.6689
-8.3346 9.4756
-6.0168 5.6262
ITEM: ATOMS id type xs ys zs
1 1 .504928 .667694 .490147
2 1 .665633 .537056 .529381
3 1 .599404 .333532 .498426
4 1 .391402 .340921 .479729
5 1 .335167 .548112 .505660
6 1 .493955 .477975 .669262
7 1 .505114 .485927 .332861
ITEM: TIMESTEP
2700
ITEM: NUMBER OF ATOMS
7
ITEM: BOX BOUNDS ss ss ss
-8.8980 9.6689
-8.3346 9.4756
-6.0168 5.6262
ITEM: ATOMS id type xs ys zs
1 1 .504795 .667756 .489941
2 1 .665603 .537159 .529400
3 1 .599422 .333521 .498256
4 1 .391373 .340900 .479574
5 1 .335049 .548013 .505763
6 1 .493951 .477901 .669046
7 1 .505162 .485986 .332654
ITEM: TIMESTEP
2750
ITEM: NUMBER OF ATOMS
7
ITEM: BOX BOUNDS ss ss ss
-8.8980 9.6689
-8.3346 9.4756
-6.0168 5.6262
ITEM: ATOMS id type xs ys zs
1 1 .504764 .667790 .489788
2 1 .665627 .537120 .529503
3 1 .599495 .333506 .498160
4 1 .391292 .340836 .479543
5 1 .335048 .547972 .505875
6 1 .493964 .477794 .669005
7 1 .505139 .485969 .332682
ITEM: TIMESTEP
2800
ITEM: NUMBER OF ATOMS
7
ITEM: BOX BOUNDS ss ss ss
-8.8980 9.6689
-8.3346 9.4756
-6.0168 5.6262
ITEM: ATOMS id type xs ys zs
1 1 .504793 .667809 .489656
2 1 .665671 .537018 .529653
3 1 .599555 .333432 .498120
4 1 .391210 .340739 .479491
5 1 .335111 .547932 .506089
6 1 .493976 .477683 .669142
7 1 .505132 .485890 .332903
ITEM: TIMESTEP
2850
ITEM: NUMBER OF ATOMS
7
ITEM: BOX BOUNDS ss ss ss
-8.8980 9.6689
-8.3346 9.4756
-6.0168 5.6262
ITEM: ATOMS id type xs ys zs
1 1 .504813 .667823 .489543
2 1 .665649 .537053 .529774
3 1 .599596 .333424 .498096
4 1 .391106 .340633 .479281
5 1 .335251 .547912 .506256
6 1 .494045 .477458 .669096
7 1 .505090 .485862 .333018
ITEM: TIMESTEP
2900
ITEM: NUMBER OF ATOMS
7
ITEM: BOX BOUNDS ss ss ss
-8.8980 9.6689
-8.3346 9.4756
-6.0168 5.6262
ITEM: ATOMS id type xs ys zs
1 1 .504862 .667863 .489341
2 1 .665650 .537116 .529957
3 1 .599569 .333398 .498038
4 1 .391020 .340603 .479109
5 1 .335314 .547931 .506437
6 1 .494076 .477352 .669156
7 1 .505053 .485810 .333107
ITEM: TIMESTEP
2950
ITEM: NUMBER OF ATOMS
7
ITEM: BOX BOUNDS ss ss ss
-8.8980 9.6689
-8.3346 9.4756
-6.0168 5.6262
ITEM: ATOMS id type xs ys zs
1 1 .504823 .668056 .489238
2 1 .665547 .537273 .530067
3 1 .599554 .333220 .498042
4 1 .390985 .340608 .478795
5 1 .335365 .547819 .506496
6 1 .494093 .477267 .669189
7 1 .505047 .485745 .333388
ITEM: TIMESTEP
3000
ITEM: NUMBER OF ATOMS
7
ITEM: BOX BOUNDS ss ss ss
-8.8980 9.6689
-8.3346 9.4756
-6.0168 5.6262
ITEM: ATOMS id type xs ys zs
1 1 .504826 .668220 .489097
2 1 .665472 .537395 .530135
3 1 .599636 .333169 .498068
4 1 .390988 .340524 .478586
5 1 .335496 .547885 .506597
6 1 .494095 .477141 .669248
7 1 .505161 .485743 .333589
ITEM: TIMESTEP
3050
ITEM: NUMBER OF ATOMS
7
ITEM: BOX BOUNDS ss ss ss
-8.8980 9.6689
-8.3346 9.4756
-6.0168 5.6262
ITEM: ATOMS id type xs ys zs
1 1 .504837 .668259 .488775
2 1 .665414 .537452 .530257
3 1 .599667 .333196 .498004
4 1 .390955 .340525 .478542
5 1 .335548 .547956 .506699
6 1 .494064 .476997 .669311
7 1 .505183 .485745 .333641
ITEM: TIMESTEP
3100
ITEM: NUMBER OF ATOMS
7
ITEM: BOX BOUNDS ss ss ss
-8.8980 9.6689
-8.3346 9.4756
-6.0168 5.6262
ITEM: ATOMS id type xs ys zs
1 1 .504779 .668427 .488386
2 1 .665327 .537568 .530384
3 1 .599798 .333172 .498053
4 1 .390956 .340545 .478543
5 1 .335570 .548077 .506621
6 1 .494038 .476931 .669245
7 1 .505198 .485762 .333651
ITEM: TIMESTEP
3150
ITEM: NUMBER OF ATOMS
7
ITEM: BOX BOUNDS ss ss ss
-8.8980 9.6689
-8.3346 9.4756
-6.0168 5.6262
ITEM: ATOMS id type xs ys zs
1 1 .504736 .668597 .488078
2 1 .665283 .537750 .530533
3 1 .599989 .333123 .498160
4 1 .391008 .340533 .478631
5 1 .335584 .548191 .506540
6 1 .494060 .477012 .669091
7 1 .505240 .485775 .333684
ITEM: TIMESTEP
3200
ITEM: NUMBER OF ATOMS
7
ITEM: BOX BOUNDS ss ss ss
-8.8980 9.6689
-8.3346 9.4756
-6.0168 5.6262
ITEM: ATOMS id type xs ys zs
1 1 .504780 .668720 .487862
2 1 .665329 .537901 .530628
3 1 .600050 .333193 .498102
4 1 .390926 .340527 .478670
5 1 .335725 .548276 .506511
6 1 .494056 .476974 .669068
7 1 .505293 .485791 .333724
ITEM: TIMESTEP
3201
ITEM: NUMBER OF ATOMS
7
ITEM: BOX BOUNDS ss ss ss
-8.8980 9.6689
-8.3346 9.4756
-6.0168 5.6262
ITEM: ATOMS id type xs ys zs
1 1 .504780 .668715 .487905
2 1 .665332 .537896 .530599
3 1 .600044 .333194 .498109
4 1 .390932 .340526 .478684
5 1 .335723 .548270 .506476
6 1 .494057 .476985 .669067
7 1 .505291 .485795 .333725
ITEM: TIMESTEP
3250
ITEM: NUMBER OF ATOMS
7
ITEM: BOX BOUNDS ss ss ss
-8.8980 9.6689
-8.3346 9.4756
-6.0168 5.6262
ITEM: ATOMS id type xs ys zs
1 1 .504776 .668594 .488993
2 1 .665414 .537756 .529861
3 1 .599890 .333234 .498296
4 1 .391066 .340502 .479034
5 1 .335683 .548124 .505584
6 1 .494084 .477267 .669043
7 1 .505253 .485904 .333751
ITEM: TIMESTEP
3300
ITEM: NUMBER OF ATOMS
7
ITEM: BOX BOUNDS ss ss ss
-8.8980 9.6689
-8.3346 9.4756
-6.0168 5.6262
ITEM: ATOMS id type xs ys zs
1 1 .504794 .668635 .488702
2 1 .665361 .537800 .530010
3 1 .599891 .333214 .498222
4 1 .391052 .340501 .478956
5 1 .335710 .548178 .505773
6 1 .494094 .477141 .669165
7 1 .505256 .485896 .333805
ITEM: TIMESTEP
3350
ITEM: NUMBER OF ATOMS
7
ITEM: BOX BOUNDS ss ss ss
-8.8980 9.6689
-8.3346 9.4756
-6.0168 5.6262
ITEM: ATOMS id type xs ys zs
1 1 .504878 .668760 .488488
2 1 .665344 .537771 .530013
3 1 .599843 .333150 .498183
4 1 .391018 .340491 .478944
5 1 .335680 .548255 .505842
6 1 .494057 .477105 .669270
7 1 .505199 .485941 .333901
ITEM: TIMESTEP
3400
ITEM: NUMBER OF ATOMS
7
ITEM: BOX BOUNDS ss ss ss
-8.8980 9.6689
-8.3346 9.4756
-6.0168 5.6262
ITEM: ATOMS id type xs ys zs
1 1 .504954 .668963 .488046
2 1 .665301 .537654 .529982
3 1 .599734 .333131 .498189
4 1 .390914 .340526 .478950
5 1 .335573 .548341 .505794
6 1 .493930 .477249 .669170
7 1 .505094 .485998 .333967
ITEM: TIMESTEP
3450
ITEM: NUMBER OF ATOMS
7
ITEM: BOX BOUNDS ss ss ss
-8.8980 9.6689
-8.3346 9.4756
-6.0168 5.6262
ITEM: ATOMS id type xs ys zs
1 1 .504944 .668987 .487781
2 1 .665197 .537617 .530031
3 1 .599695 .333116 .498150
4 1 .390823 .340559 .478867
5 1 .335588 .548417 .505954
6 1 .493886 .477204 .669150
7 1 .505055 .485969 .334017
ITEM: TIMESTEP
3500
ITEM: NUMBER OF ATOMS
7
ITEM: BOX BOUNDS ss ss ss
-8.8980 9.6689
-8.3346 9.4756
-6.0168 5.6262
ITEM: ATOMS id type xs ys zs
1 1 .504962 .668976 .487528
2 1 .665136 .537633 .530162
3 1 .599686 .333130 .498147
4 1 .390768 .340558 .478847
5 1 .335635 .548487 .506055
6 1 .493861 .477073 .669180
7 1 .505022 .485896 .334024
ITEM: TIMESTEP
3550
ITEM: NUMBER OF ATOMS
7
ITEM: BOX BOUNDS ss ss ss
-8.8980 9.6689
-8.3346 9.4756
-6.0168 5.6262
ITEM: ATOMS id type xs ys zs
1 1 .504961 .668987 .487269
2 1 .665084 .537693 .530300
3 1 .599693 .333143 .498174
4 1 .390732 .340518 .478843
5 1 .335670 .548521 .506215
6 1 .493818 .476928 .669230
7 1 .505020 .485816 .334061
ITEM: TIMESTEP
3600
ITEM: NUMBER OF ATOMS
7
ITEM: BOX BOUNDS ss ss ss
-8.8980 9.6689
-8.3346 9.4756
-6.0168 5.6262