ITEM: TIMESTEP
1
ITEM: NUMBER OF ATOMS
7
ITEM: BOX BOUNDS ss ss ss
-2.9330 3.2344
-2.6327 3.4311
-2.0272 1.8315
ITEM: ATOMS id type xs ys zs
1 1 .487890 .999322 .515990
2 1 .999177 .655097 .558695
3 1 .845135 .045986 .545105
4 1 .230067 .000617 .444947
5 1 .000610 .613024 .462298
6 1 .482581 .452397 .999045
7 1 .526852 .463415 .001017
ITEM: TIMESTEP
50
ITEM: NUMBER OF ATOMS
7
ITEM: BOX BOUNDS ss ss ss
-2.9614 3.2564
-2.6568 3.4558
-2.0486 1.8553
ITEM: ATOMS id type xs ys zs
1 1 .488635 .995372 .515417
2 1 .995598 .653759 .557542
3 1 .843038 .049595 .544505
4 1 .232860 .004218 .444983
5 1 .005094 .612391 .462600
6 1 .483113 .452666 .992877
7 1 .527001 .463651 .006566
ITEM: TIMESTEP
100
ITEM: NUMBER OF ATOMS
7
ITEM: BOX BOUNDS ss ss ss
-2.9714 3.2633
-2.6687 3.4611
-2.0564 1.8659
ITEM: ATOMS id type xs ys zs
1 1 .488994 .994741 .514739
2 1 .994441 .653462 .556588
3 1 .842825 .051343 .543832
4 1 .233652 .006222 .444770
5 1 .006607 .612441 .462076
6 1 .483368 .453292 .990682
7 1 .527118 .464539 .009019
ITEM: TIMESTEP
150
ITEM: NUMBER OF ATOMS
7
ITEM: BOX BOUNDS ss ss ss
-2.9776 3.2706
-2.6765 3.4666
-2.0633 1.8741
ITEM: ATOMS id type xs ys zs
1 1 .488960 .993936 .514340
2 1 .993384 .652831 .555942
3 1 .842331 .052473 .543145
4 1 .233838 .008016 .444987
5 1 .007409 .611902 .461537
6 1 .483321 .453643 .989316
7 1 .526944 .465222 .011461
ITEM: TIMESTEP
200
ITEM: NUMBER OF ATOMS
7
ITEM: BOX BOUNDS ss ss ss
-2.9735 3.2800
-2.6856 3.4763
-2.0587 1.8840
ITEM: ATOMS id type xs ys zs
1 1 .487933 .992412 .511967
2 1 .991933 .651936 .553916
3 1 .841008 .053644 .540312
4 1 .232495 .010276 .443855
5 1 .006633 .610760 .459395
6 1 .482538 .453849 .987536
7 1 .525784 .465498 .010633
ITEM: TIMESTEP
250
ITEM: NUMBER OF ATOMS
7
ITEM: BOX BOUNDS ss ss ss
-2.9725 3.2724
-2.6663 3.4765
-2.0627 1.8839
ITEM: ATOMS id type xs ys zs
1 1 .488267 .992007 .511727
2 1 .993133 .650629 .554081
3 1 .841802 .050680 .539468
4 1 .232108 .008054 .445242
5 1 .006802 .608478 .459278
6 1 .483727 .452424 .988585
7 1 .526397 .463586 .011245
ITEM: TIMESTEP
300
ITEM: NUMBER OF ATOMS
7
ITEM: BOX BOUNDS ss ss ss
-2.9771 3.2753
-2.6603 3.4733
-2.0628 1.8817
ITEM: ATOMS id type xs ys zs
1 1 .488166 .992304 .511697
2 1 .992725 .650586 .553925
3 1 .841323 .049920 .538674
4 1 .231886 .008295 .445662
5 1 .007954 .607268 .458547
6 1 .484476 .452463 .989878
7 1 .526793 .463293 .010495
ITEM: TIMESTEP
350
ITEM: NUMBER OF ATOMS
7
ITEM: BOX BOUNDS ss ss ss
-2.9765 3.2731
-2.6558 3.4785
-2.0756 1.8929
ITEM: ATOMS id type xs ys zs
1 1 .487848 .991177 .511818
2 1 .993372 .649128 .553679
3 1 .840940 .049194 .538353
4 1 .230830 .009486 .445150
5 1 .008284 .605223 .459084
6 1 .485190 .452115 .987832
7 1 .527588 .463255 .012673
ITEM: TIMESTEP
400
ITEM: NUMBER OF ATOMS
7
ITEM: BOX BOUNDS ss ss ss
-2.9835 3.2825
-2.6473 3.4692
-2.0672 1.8857
ITEM: ATOMS id type xs ys zs
1 1 .487774 .992380 .510474
2 1 .993007 .649307 .553331
3 1 .838597 .047784 .537425
4 1 .230138 .010836 .442711
5 1 .009529 .604876 .461486
6 1 .486173 .452621 .990246
7 1 .528325 .464734 .010052
ITEM: TIMESTEP
1
ITEM: NUMBER OF ATOMS
7
ITEM: BOX BOUNDS ss ss ss
-2.9436 3.2748
-2.6327 3.4468
-2.0628 1.8770
ITEM: ATOMS id type xs ys zs
1 1 .485591 .996752 .514391
2 1 .992681 .653409 .556218
3 1 .839901 .045867 .542911
4 1 .229885 .000611 .444811
5 1 .002304 .611448 .461810
6 1 .480327 .451228 .987494
7 1 .524231 .462222 .010032
ITEM: TIMESTEP
50
ITEM: NUMBER OF ATOMS
7
ITEM: BOX BOUNDS ss ss ss
-2.9551 3.2748
-2.6589 3.4552
-2.0628 1.8770
ITEM: ATOMS id type xs ys zs
1 1 .486684 .995493 .514335
2 1 .992619 .653981 .556065
3 1 .840386 .049928 .543280
4 1 .231460 .004481 .444511
5 1 .004069 .612742 .462042
6 1 .481133 .452924 .987341
7 1 .524932 .463852 .010095
ITEM: TIMESTEP
100
ITEM: NUMBER OF ATOMS
7
ITEM: BOX BOUNDS ss ss ss
-2.9644 3.2748
-2.6740 3.4668
-2.0628 1.8770
ITEM: ATOMS id type xs ys zs
1 1 .487523 .993808 .514047
2 1 .992460 .653268 .555755
3 1 .841150 .052172 .543354
4 1 .232461 .006886 .444269
5 1 .005442 .612500 .461902
6 1 .481821 .453406 .987786
7 1 .525558 .464542 .010583
ITEM: TIMESTEP
150
ITEM: NUMBER OF ATOMS
7
ITEM: BOX BOUNDS ss ss ss
-2.9755 3.2761
-2.6782 3.4838
-2.0647 1.8770
ITEM: ATOMS id type xs ys zs
1 1 .488379 .991379 .513922
2 1 .992287 .651253 .555582
3 1 .841869 .052600 .543551
4 1 .233676 .007872 .444400
5 1 .007081 .610668 .461796
6 1 .482584 .452586 .988312
7 1 .526392 .464013 .011616
ITEM: TIMESTEP
200
ITEM: NUMBER OF ATOMS
7
ITEM: BOX BOUNDS ss ss ss
-2.9836 3.2748
-2.6840 3.4708
-2.0628 1.8770
ITEM: ATOMS id type xs ys zs
1 1 .489301 .993637 .513382
2 1 .992750 .652593 .555117
3 1 .842612 .053638 .543596
4 1 .234613 .009587 .444299
5 1 .008422 .611533 .461243
6 1 .483487 .454354 .988854
7 1 .527238 .466004 .011549
ITEM: TIMESTEP
250
ITEM: NUMBER OF ATOMS
7
ITEM: BOX BOUNDS ss ss ss
-2.9731 3.2783
-2.6736 3.4812
-2.0630 1.8823
ITEM: ATOMS id type xs ys zs
1 1 .488191 .991801 .512417
2 1 .992241 .650865 .554515
3 1 .842076 .052145 .543113
4 1 .232934 .008694 .444154
5 1 .006783 .608677 .460173
6 1 .482590 .452875 .988018
7 1 .526319 .464489 .011779
ITEM: TIMESTEP
300
ITEM: NUMBER OF ATOMS
7
ITEM: BOX BOUNDS ss ss ss
-2.9794 3.2798
-2.6694 3.4849
-2.0728 1.8949
ITEM: ATOMS id type xs ys zs
1 1 .488334 .990768 .511268
2 1 .991814 .650448 .553875
3 1 .841836 .051752 .542218
4 1 .233200 .009235 .444462
5 1 .007840 .606571 .459247
6 1 .483236 .452554 .985377
7 1 .527192 .463765 .013423
ITEM: TIMESTEP
350
ITEM: NUMBER OF ATOMS
7
ITEM: BOX BOUNDS ss ss ss
-2.9751 3.2765
-2.6784 3.4738
-2.0707 1.8850
ITEM: ATOMS id type xs ys zs
1 1 .488230 .992098 .511198
2 1 .992503 .652184 .555718
3 1 .841325 .053190 .542661
4 1 .231994 .011884 .445564
5 1 .007439 .606967 .459452
6 1 .483568 .454510 .988635
7 1 .527637 .465168 .012348
ITEM: TIMESTEP
400
ITEM: NUMBER OF ATOMS
7
ITEM: BOX BOUNDS ss ss ss
-2.9840 3.2753
-2.6539 3.4749
-2.0765 1.8901
ITEM: ATOMS id type xs ys zs
1 1 .488611 .991312 .509732
2 1 .992684 .650197 .556759
3 1 .841105 .048983 .542180
4 1 .232499 .008439 .447172
5 1 .009078 .604056 .459252
6 1 .484641 .452214 .988454
7 1 .528696 .462732 .013625
ITEM: TIMESTEP
1
ITEM: NUMBER OF ATOMS
7
ITEM: BOX BOUNDS ss ss ss
-2.9541 3.2617
-2.6325 3.4440
-2.0508 1.8774
ITEM: ATOMS id type xs ys zs
1 1 .487491 .997212 .512856
2 1 .994795 .653704 .554804
3 1 .841950 .045872 .541458
4 1 .231680 .000595 .443068
5 1 .004000 .611725 .460115
6 1 .482223 .451427 .987356
7 1 .526146 .462425 .007000
ITEM: TIMESTEP
50
ITEM: NUMBER OF ATOMS
7
ITEM: BOX BOUNDS ss ss ss
-2.9572 3.2617
-2.6633 3.4542
-2.0520 1.8774
ITEM: ATOMS id type xs ys zs
1 1 .487936 .995646 .512992
2 1 .994725 .654395 .554802
3 1 .842194 .050644 .541987
4 1 .232267 .005099 .442945
5 1 .004417 .613204 .460567
6 1 .482294 .453355 .987110
7 1 .526174 .464236 .007357
ITEM: TIMESTEP
100
ITEM: NUMBER OF ATOMS
7
ITEM: BOX BOUNDS ss ss ss
-2.9667 3.2672
-2.6714 3.4666
-2.0689 1.8774
ITEM: ATOMS id type xs ys zs
1 1 .488387 .993790 .514896
2 1 .993838 .653254 .556518
3 1 .842204 .051773 .544025
4 1 .233152 .006268 .445105
5 1 .005872 .612598 .462645
6 1 .482538 .453045 .987472
7 1 .526314 .464190 .011979
ITEM: TIMESTEP
150
ITEM: NUMBER OF ATOMS
7
ITEM: BOX BOUNDS ss ss ss
-2.9753 3.2692
-2.6769 3.4724
-2.0592 1.8774
ITEM: ATOMS id type xs ys zs
1 1 .489022 .992931 .513421
2 1 .993473 .652595 .555413
3 1 .842848 .052650 .542602
4 1 .234092 .007377 .443537
5 1 .007234 .611990 .460801
6 1 .483081 .452914 .988068
7 1 .526760 .464562 .010126
ITEM: TIMESTEP
200
ITEM: NUMBER OF ATOMS
7
ITEM: BOX BOUNDS ss ss ss
-2.9769 3.2727
-2.6807 3.4770
-2.0601 1.8774
ITEM: ATOMS id type xs ys zs
1 1 .488887 .992019 .513388
2 1 .992894 .651910 .555632
3 1 .843262 .053425 .542129
4 1 .234345 .008400 .443777
5 1 .007542 .611227 .460322
6 1 .483051 .452721 .988776
7 1 .526639 .464868 .010729
ITEM: TIMESTEP
250
ITEM: NUMBER OF ATOMS
7
ITEM: BOX BOUNDS ss ss ss
-2.9731 3.2732
-2.6801 3.4833
-2.0576 1.8827
ITEM: ATOMS id type xs ys zs
1 1 .488335 .990877 .512755
2 1 .992744 .650887 .554799
3 1 .843481 .053283 .540797
4 1 .233898 .008863 .442880
5 1 .006967 .609763 .458611
6 1 .482667 .452209 .987881
7 1 .526581 .464626 .010140
ITEM: TIMESTEP
300
ITEM: NUMBER OF ATOMS
7
ITEM: BOX BOUNDS ss ss ss
-2.9709 3.2794
-2.6763 3.4854
-2.0650 1.8834
ITEM: ATOMS id type xs ys zs
1 1 .487398 .990336 .514851
2 1 .991848 .650194 .556387
3 1 .842274 .052534 .541719
4 1 .232633 .009450 .443484
5 1 .006890 .607480 .458077
6 1 .482154 .451674 .988207
7 1 .526500 .464530 .011557
ITEM: TIMESTEP
350
ITEM: NUMBER OF ATOMS
7
ITEM: BOX BOUNDS ss ss ss
-2.9747 3.2754
-2.6739 3.4721
-2.0737 1.8849
ITEM: ATOMS id type xs ys zs
1 1 .487747 .992382 .517532
2 1 .992599 .651273 .557764
3 1 .841947 .051838 .542708
4 1 .232312 .010164 .444477
5 1 .007587 .606986 .457578
6 1 .482938 .452228 .988209
7 1 .527805 .465857 .013315
ITEM: TIMESTEP
400
ITEM: NUMBER OF ATOMS
7
ITEM: BOX BOUNDS ss ss ss
-2.9714 3.2786
-2.6721 3.4664
-2.0664 1.8821
ITEM: ATOMS id type xs ys zs
1 1 .486884 .993343 .519321
2 1 .992476 .651696 .557835
3 1 .840235 .051230 .542150
4 1 .230944 .010554 .443463
5 1 .007019 .606574 .455369
6 1 .482330 .452499 .989102
7 1 .527985 .466726 .011650
ITEM: TIMESTEP
1
ITEM: NUMBER OF ATOMS
7
ITEM: BOX BOUNDS ss ss ss
-2.9621 3.2607
-2.6330 3.4512
-2.0504 1.8694
ITEM: ATOMS id type xs ys zs
1 1 .488233 .996035 .513858
2 1 .994963 .652962 .555907
3 1 .842290 .045897 .542526
4 1 .232705 .000675 .443923
5 1 .005285 .611040 .461010
6 1 .482965 .450941 .989385
7 1 .526839 .461923 .006910
ITEM: TIMESTEP
50
ITEM: NUMBER OF ATOMS
7
ITEM: BOX BOUNDS ss ss ss
-2.9621 3.2607
-2.6609 3.4529
-2.0558 1.8694
ITEM: ATOMS id type xs ys zs
1 1 .488425 .995882 .514576
2 1 .994900 .654417 .556371
3 1 .842479 .050282 .543646
4 1 .232941 .004612 .444330
5 1 .005193 .613291 .462141
6 1 .482760 .453209 .989091
7 1 .526592 .464122 .008336
ITEM: TIMESTEP
100
ITEM: NUMBER OF ATOMS
7
ITEM: BOX BOUNDS ss ss ss
-2.9662 3.2607
-2.6743 3.4701
-2.0564 1.8694
ITEM: ATOMS id type xs ys zs
1 1 .488848 .993385 .514543
2 1 .994761 .653003 .556097
3 1 .843075 .052219 .543863
4 1 .233432 .006503 .444116
5 1 .005775 .612595 .462047
6 1 .482938 .453052 .989467
7 1 .526720 .464236 .008933
ITEM: TIMESTEP
150
ITEM: NUMBER OF ATOMS
7
ITEM: BOX BOUNDS ss ss ss
-2.9758 3.2702
-2.6777 3.4751
-2.0611 1.8746
ITEM: ATOMS id type xs ys zs
1 1 .488746 .993008 .514645
2 1 .992908 .651959 .555646
3 1 .842396 .052565 .543540
4 1 .234235 .007415 .443950
5 1 .007208 .611953 .461460
6 1 .482828 .452909 .988938
7 1 .526541 .464760 .010832
ITEM: TIMESTEP
200
ITEM: NUMBER OF ATOMS
7
ITEM: BOX BOUNDS ss ss ss
-2.9789 3.2746
-2.6817 3.4771
-2.0587 1.8820
ITEM: ATOMS id type xs ys zs
1 1 .488676 .993077 .513487
2 1 .991995 .651200 .554225
3 1 .842081 .052893 .542019
4 1 .234528 .008598 .442693
5 1 .007579 .611514 .459690
6 1 .482565 .453216 .987298
7 1 .526307 .465758 .010573
ITEM: TIMESTEP
250
ITEM: NUMBER OF ATOMS
7
ITEM: BOX BOUNDS ss ss ss
-2.9844 3.2869
-2.6811 3.4861
-2.0623 1.8831
ITEM: ATOMS id type xs ys zs
1 1 .488121 .991926 .513683
2 1 .989920 .649830 .554525
3 1 .840473 .052447 .541879
4 1 .234628 .009194 .443067
5 1 .008251 .610201 .459606
6 1 .482130 .452629 .987075
7 1 .525554 .465640 .011297
ITEM: TIMESTEP
300
ITEM: NUMBER OF ATOMS
7
ITEM: BOX BOUNDS ss ss ss
-2.9828 3.2736
-2.6726 3.4911
-2.0646 1.8863
ITEM: ATOMS id type xs ys zs
1 1 .488226 .991191 .513553
2 1 .991659 .649199 .553699
3 1 .841676 .050587 .542080
4 1 .234064 .008592 .442659
5 1 .007894 .607996 .459127
6 1 .483185 .451254 .986317
7 1 .526584 .464697 .011561
ITEM: TIMESTEP
350
ITEM: NUMBER OF ATOMS
7
ITEM: BOX BOUNDS ss ss ss
-2.9737 3.2672
-2.6654 3.4846
-2.0754 1.8830
ITEM: ATOMS id type xs ys zs
1 1 .487063 .991722 .515188
2 1 .992540 .649826 .554079
3 1 .841553 .049100 .544479
4 1 .231859 .007965 .443617
5 1 .006323 .606463 .460818
6 1 .483000 .450626 .987429
7 1 .526573 .464388 .014300
ITEM: TIMESTEP
400
ITEM: NUMBER OF ATOMS
7
ITEM: BOX BOUNDS ss ss ss
-2.9845 3.2684
-2.6640 3.4908
-2.0783 1.8837
ITEM: ATOMS id type xs ys zs
1 1 .487383 .990303 .514608
2 1 .992635 .649132 .554287
3 1 .840972 .048689 .544507
4 1 .231996 .008223 .443181
5 1 .007842 .604407 .461188
6 1 .484017 .450066 .987507
7 1 .527504 .463681 .015073
ITEM: TIMESTEP
1
ITEM: NUMBER OF ATOMS
7
ITEM: BOX BOUNDS ss ss ss
-2.9693 3.2607
-2.6353 3.4583
-2.0514 1.8694
ITEM: ATOMS id type xs ys zs
1 1 .488820 .994870 .513982
2 1 .994967 .652323 .556015
3 1 .842472 .046188 .542647
4 1 .233588 .001035 .444060
5 1 .006429 .610462 .461147
6 1 .483558 .450611 .989388
7 1 .527386 .461576 .007168
ITEM: TIMESTEP
50
ITEM: NUMBER OF ATOMS
7
ITEM: BOX BOUNDS ss ss ss
-2.9693 3.2607
-2.6663 3.4583
-2.0527 1.8694
ITEM: ATOMS id type xs ys zs
1 1 .489027 .995019 .514177
2 1 .994874 .654197 .555977
3 1 .842667 .051068 .543311
4 1 .233867 .005446 .443810
5 1 .006335 .613166 .461776
6 1 .483325 .453269 .988996
7 1 .527139 .464139 .007520
ITEM: TIMESTEP
100
ITEM: NUMBER OF ATOMS
7
ITEM: BOX BOUNDS ss ss ss
-2.9723 3.2630
-2.6747 3.4678
-2.0608 1.8694
ITEM: ATOMS id type xs ys zs
1 1 .489196 .993756 .514960
2 1 .994400 .653468 .556630
3 1 .842967 .052340 .544493
4 1 .234140 .006515 .444570
5 1 .006719 .612948 .463005
6 1 .483227 .453207 .989371
7 1 .526987 .464284 .009958
ITEM: TIMESTEP
150
ITEM: NUMBER OF ATOMS
7
ITEM: BOX BOUNDS ss ss ss
-2.9747 3.2718
-2.6815 3.4725
-2.0616 1.8801
ITEM: ATOMS id type xs ys zs
1 1 .488659 .993221 .513353
2 1 .992660 .652976 .555123
3 1 .842595 .053320 .543439
4 1 .234094 .007778 .443027
5 1 .007146 .612534 .461947
6 1 .482720 .453452 .987690
7 1 .526333 .464687 .011003
ITEM: TIMESTEP
200
ITEM: NUMBER OF ATOMS
7
ITEM: BOX BOUNDS ss ss ss
-2.9731 3.2742
-2.6847 3.4798
-2.0639 1.8895
ITEM: ATOMS id type xs ys zs
1 1 .488284 .992230 .512356
2 1 .991894 .652051 .554090
3 1 .842787 .053620 .543059
4 1 .234035 .008587 .442248
5 1 .007069 .611648 .461150
6 1 .482467 .453153 .986416
7 1 .526015 .464558 .012390
ITEM: TIMESTEP
250
ITEM: NUMBER OF ATOMS
7
ITEM: BOX BOUNDS ss ss ss
-2.9731 3.2723
-2.6788 3.4798
-2.0606 1.8915
ITEM: ATOMS id type xs ys zs
1 1 .488362 .992406 .511919
2 1 .992109 .651479 .553447
3 1 .843456 .052632 .542297
4 1 .234324 .007722 .441443
5 1 .007100 .610879 .460365
6 1 .482740 .452639 .986617
7 1 .526170 .464175 .012228
ITEM: TIMESTEP
300
ITEM: NUMBER OF ATOMS
7
ITEM: BOX BOUNDS ss ss ss
-2.9748 3.2765
-2.6826 3.4851
-2.0600 1.8938
ITEM: ATOMS id type xs ys zs
1 1 .488138 .991712 .511199
2 1 .991425 .651130 .553439
3 1 .843281 .053059 .541637
4 1 .234462 .008446 .440999
5 1 .007319 .610177 .459988
6 1 .482675 .452593 .986439
7 1 .526069 .464143 .012391
ITEM: TIMESTEP
350
ITEM: NUMBER OF ATOMS
7
ITEM: BOX BOUNDS ss ss ss
-2.9848 3.2768
-2.6823 3.4813
-2.0645 1.8970
ITEM: ATOMS id type xs ys zs
1 1 .488681 .992318 .510900
2 1 .991381 .651552 .554104
3 1 .843745 .053003 .541258
4 1 .235928 .008632 .441049
5 1 .008826 .609917 .460012
6 1 .483804 .452803 .985799
7 1 .526976 .464782 .013750
ITEM: TIMESTEP
400
ITEM: NUMBER OF ATOMS
7
ITEM: BOX BOUNDS ss ss ss
-2.9759 3.2831
-2.6853 3.4909
-2.0656 1.8997
ITEM: ATOMS id type xs ys zs
1 1 .487126 .990881 .511237
2 1 .990210 .650575 .554362
3 1 .843111 .053101 .540686
4 1 .234859 .009397 .440500
5 1 .007623 .608538 .459917
6 1 .482775 .452062 .985303
7 1 .525990 .464919 .014052
ITEM: TIMESTEP
1
ITEM: NUMBER OF ATOMS
7
ITEM: BOX BOUNDS ss ss ss
-2.9693 3.2717
-2.6636 3.4620
-2.0514 1.8929
ITEM: ATOMS id type xs ys zs
1 1 .487956 .994287 .510925
2 1 .993211 .653530 .552704
3 1 .840986 .050575 .539411
4 1 .233177 .005656 .441418
5 1 .006418 .611895 .458400
6 1 .482704 .452878 .983488
7 1 .526449 .463783 .007123
ITEM: TIMESTEP
50
ITEM: NUMBER OF ATOMS
7
ITEM: BOX BOUNDS ss ss ss
-2.9693 3.2717
-2.6636 3.4620
-2.0514 1.8929
ITEM: ATOMS id type xs ys zs
1 1 .488210 .994421 .510907
2 1 .993108 .653633 .552501
3 1 .841159 .050653 .540015
4 1 .233475 .004891 .440964
5 1 .006309 .612700 .458899
6 1 .482443 .452746 .983015
7 1 .526165 .463587 .007113
ITEM: TIMESTEP
100
ITEM: NUMBER OF ATOMS
7
ITEM: BOX BOUNDS ss ss ss
-2.9693 3.2719
-2.6756 3.4679
-2.0626 1.8929
ITEM: ATOMS id type xs ys zs
1 1 .488417 .993739 .512130
2 1 .992968 .653356 .553428
3 1 .841694 .052531 .541598
4 1 .233520 .006500 .442143
5 1 .006219 .613185 .460524
6 1 .482222 .453201 .983242
7 1 .525924 .464336 .010242
ITEM: TIMESTEP
150
ITEM: NUMBER OF ATOMS
7
ITEM: BOX BOUNDS ss ss ss
-2.9745 3.2791
-2.6832 3.4724
-2.0654 1.8929
ITEM: ATOMS id type xs ys zs
1 1 .488535 .993358 .512310
2 1 .991723 .652892 .553272
3 1 .841435 .053898 .541521
4 1 .233707 .007997 .441842
5 1 .007106 .613012 .460667
6 1 .482011 .453541 .983826
7 1 .525370 .465107 .011253
ITEM: TIMESTEP
200
ITEM: NUMBER OF ATOMS
7
ITEM: BOX BOUNDS ss ss ss
-2.9695 3.2717
-2.6833 3.4775
-2.0666 1.8929
ITEM: ATOMS id type xs ys zs
1 1 .489095 .992913 .512326
2 1 .992928 .651987 .552788
3 1 .842308 .054354 .540644
4 1 .232850 .008468 .441636
5 1 .006339 .612173 .460598
6 1 .482298 .453393 .984310
7 1 .524938 .465440 .011734
ITEM: TIMESTEP
250
ITEM: NUMBER OF ATOMS
7
ITEM: BOX BOUNDS ss ss ss
-2.9827 3.2717
-2.6907 3.4817
-2.0685 1.8929
ITEM: ATOMS id type xs ys zs
1 1 .490891 .992722 .512307
2 1 .993431 .651747 .552041
3 1 .842092 .055843 .539495
4 1 .233987 .010342 .442029
5 1 .008198 .611768 .460566
6 1 .483470 .454357 .984384
7 1 .525279 .466925 .012452
ITEM: TIMESTEP
300
ITEM: NUMBER OF ATOMS
7
ITEM: BOX BOUNDS ss ss ss
-2.9819 3.2838
-2.6893 3.4902
-2.0706 1.8929
ITEM: ATOMS id type xs ys zs
1 1 .490377 .991746 .512238
2 1 .991981 .650515 .551897
3 1 .840177 .055876 .539045
4 1 .233281 .010696 .442630
5 1 .007907 .610508 .460818
6 1 .482483 .454210 .984492
7 1 .524076 .466854 .013257
ITEM: TIMESTEP
350
ITEM: NUMBER OF ATOMS
7
ITEM: BOX BOUNDS ss ss ss
-2.9830 3.2816
-2.6792 3.4896
-2.0716 1.8929
ITEM: ATOMS id type xs ys zs
1 1 .490935 .991918 .512290
2 1 .992363 .649949 .552166
3 1 .840742 .054612 .539009
4 1 .233478 .009856 .442864
5 1 .007889 .609531 .460546
6 1 .482550 .453551 .984803
7 1 .524658 .466342 .013346
ITEM: TIMESTEP
400
ITEM: NUMBER OF ATOMS
7
ITEM: BOX BOUNDS ss ss ss
-2.9854 3.2834
-2.6722 3.4911
-2.0691 1.8908
ITEM: ATOMS id type xs ys zs
1 1 .490869 .991717 .512034
2 1 .992241 .649498 .551117
3 1 .840612 .053633 .538823
4 1 .232775 .009875 .442912
5 1 .008304 .608294 .460673
6 1 .482968 .452921 .986172
7 1 .525027 .465931 .013013
ITEM: TIMESTEP
1
ITEM: NUMBER OF ATOMS
7
ITEM: BOX BOUNDS ss ss ss
-2.9621 3.2651
-2.6330 3.4704
-2.0504 1.8712
ITEM: ATOMS id type xs ys zs
1 1 .487887 .992899 .513628
2 1 .994257 .650903 .555649
3 1 .841692 .045747 .542281
4 1 .232546 .000662 .443712
5 1 .005281 .609114 .460804
6 1 .482624 .449517 .988932
7 1 .526462 .460461 .006908
ITEM: TIMESTEP
50
ITEM: NUMBER OF ATOMS
7
ITEM: BOX BOUNDS ss ss ss
-2.9621 3.2651
-2.6611 3.4704
-2.0535 1.8712
ITEM: ATOMS id type xs ys zs
1 1 .488135 .993037 .514062
2 1 .994136 .652606 .555856
3 1 .841886 .050164 .543250
4 1 .232913 .004445 .443625
5 1 .005166 .611760 .461776
6 1 .482327 .451877 .988442
7 1 .526188 .462743 .007729
ITEM: TIMESTEP
100
ITEM: NUMBER OF ATOMS
7
ITEM: BOX BOUNDS ss ss ss
-2.9737 3.2667
-2.6758 3.4729
-2.0623 1.8712
ITEM: ATOMS id type xs ys zs
1 1 .489138 .992901 .514975
2 1 .993752 .652882 .556612
3 1 .842567 .052404 .544703
4 1 .234290 .006452 .444457
5 1 .006838 .612928 .463045
6 1 .482943 .452918 .988656
7 1 .526677 .463977 .010356
ITEM: TIMESTEP
150
ITEM: NUMBER OF ATOMS
7
ITEM: BOX BOUNDS ss ss ss
-2.9713 3.2768
-2.6840 3.4740
-2.0745 1.8712
ITEM: ATOMS id type xs ys zs
1 1 .488265 .992791 .516446
2 1 .992050 .652449 .557962
3 1 .841659 .053527 .546303
4 1 .233271 .007932 .445937
5 1 .006300 .613212 .464062
6 1 .481725 .453317 .989241
7 1 .525360 .464769 .014057
ITEM: TIMESTEP
200
ITEM: NUMBER OF ATOMS
7
ITEM: BOX BOUNDS ss ss ss
-2.9911 3.2801
-2.6850 3.4803
-2.0641 1.8798
ITEM: ATOMS id type xs ys zs
1 1 .490297 .991189 .513409
2 1 .991998 .651621 .555808
3 1 .841172 .053411 .543537
4 1 .234572 .008548 .443218
5 1 .010033 .610908 .459791
6 1 .482916 .451817 .988294
7 1 .527331 .464429 .012091
ITEM: TIMESTEP
250
ITEM: NUMBER OF ATOMS
7
ITEM: BOX BOUNDS ss ss ss
-2.9801 3.2802
-2.6769 3.4712
-2.0671 1.8850
ITEM: ATOMS id type xs ys zs
1 1 .489639 .991621 .512000
2 1 .992846 .652280 .555645
3 1 .840234 .051819 .542818
4 1 .232169 .007767 .443156
5 1 .009127 .609194 .458119
6 1 .482206 .451189 .988398
7 1 .528014 .464085 .013318
ITEM: TIMESTEP
300
ITEM: NUMBER OF ATOMS
7
ITEM: BOX BOUNDS ss ss ss
-2.9761 3.2859
-2.6779 3.4704
-2.0598 1.8829
ITEM: ATOMS id type xs ys zs
1 1 .488688 .991915 .511580
2 1 .992267 .652189 .555189
3 1 .839674 .051439 .541978
4 1 .231192 .008368 .442594
5 1 .009096 .608951 .456332
6 1 .482003 .451688 .989543
7 1 .528145 .464062 .012238
ITEM: TIMESTEP
350
ITEM: NUMBER OF ATOMS
7
ITEM: BOX BOUNDS ss ss ss
-2.9804 3.2919
-2.6830 3.4718
-2.0648 1.8932
ITEM: ATOMS id type xs ys zs
1 1 .488412 .992167 .511460
2 1 .991446 .651874 .554067
3 1 .839300 .051778 .541123
4 1 .231724 .009589 .441930
5 1 .010063 .609456 .455045
6 1 .482332 .452539 .987169
7 1 .528465 .464416 .013823
ITEM: TIMESTEP
400
ITEM: NUMBER OF ATOMS
7
ITEM: BOX BOUNDS ss ss ss
-2.9744 3.2872
-2.6754 3.4739
-2.0692 1.8879
ITEM: ATOMS id type xs ys zs
1 1 .488083 .992147 .512680
2 1 .992196 .651148 .555330
3 1 .839997 .050570 .543026
4 1 .231431 .009009 .442985
5 1 .009098 .608787 .456102
6 1 .482378 .452146 .988304
7 1 .528699 .463896 .015082
ITEM: TIMESTEP
1
ITEM: NUMBER OF ATOMS
7
ITEM: BOX BOUNDS ss ss ss
-2.9621 3.2740
-2.6506 3.4636
-2.0556 1.8694
ITEM: ATOMS id type xs ys zs
1 1 .487188 .994024 .514514
2 1 .992835 .652640 .556501
3 1 .840488 .048548 .543143
4 1 .232210 .003541 .444664
5 1 .005271 .610923 .461734
6 1 .481930 .451601 .989399
7 1 .525707 .462532 .008235
ITEM: TIMESTEP
50
ITEM: NUMBER OF ATOMS
7
ITEM: BOX BOUNDS ss ss ss
-2.9621 3.2740
-2.6601 3.4636
-2.0556 1.8694
ITEM: ATOMS id type xs ys zs
1 1 .487459 .994157 .514586
2 1 .992732 .653310 .556276
3 1 .840682 .050095 .543807
4 1 .232606 .004225 .444112
5 1 .005139 .612438 .462329
6 1 .481633 .452240 .988859
7 1 .525405 .463127 .008235
ITEM: TIMESTEP
100
ITEM: NUMBER OF ATOMS
7
ITEM: BOX BOUNDS ss ss ss
-2.9720 3.2740
-2.6753 3.4649
-2.0577 1.8694
ITEM: ATOMS id type xs ys zs
1 1 .488464 .994144 .514641
2 1 .992627 .653819 .556058
3 1 .841515 .052412 .544477
4 1 .233943 .006142 .443940
5 1 .006493 .613806 .462865
6 1 .482224 .453396 .989029
7 1 .525866 .464485 .009355
ITEM: TIMESTEP
150
ITEM: NUMBER OF ATOMS
7
ITEM: BOX BOUNDS ss ss ss
-2.9843 3.2740
-2.6918 3.4845
-2.0612 1.8726
ITEM: ATOMS id type xs ys zs
1 1 .489612 .991252 .514285
2 1 .992595 .652337 .555585
3 1 .842457 .054799 .544711
4 1 .235401 .008571 .443654
5 1 .008307 .613126 .462710
6 1 .482966 .453240 .988502
7 1 .526459 .464708 .010939
ITEM: TIMESTEP
200
ITEM: NUMBER OF ATOMS
7
ITEM: BOX BOUNDS ss ss ss
-2.9774 3.2740
-2.6892 3.4794
-2.0607 1.8825
ITEM: ATOMS id type xs ys zs
1 1 .489113 .992151 .512450
2 1 .992618 .652732 .553948
3 1 .842786 .054580 .543320
4 1 .234482 .008072 .442344
5 1 .007038 .613685 .461060
6 1 .482126 .453308 .986232
7 1 .525707 .465016 .011263
ITEM: TIMESTEP
250
ITEM: NUMBER OF ATOMS
7
ITEM: BOX BOUNDS ss ss ss
-2.9866 3.2741
-2.6918 3.4784
-2.0664 1.8902
ITEM: ATOMS id type xs ys zs
1 1 .489980 .992252 .511860
2 1 .992775 .653158 .553118
3 1 .843536 .055166 .542437
4 1 .234981 .008626 .442102
5 1 .008106 .614215 .460282
6 1 .482717 .453439 .984377
7 1 .526292 .465285 .013420
ITEM: TIMESTEP
300
ITEM: NUMBER OF ATOMS
7
ITEM: BOX BOUNDS ss ss ss
-2.9938 3.2794
-2.6936 3.4879
-2.0619 1.8785
ITEM: ATOMS id type xs ys zs
1 1 .490503 .991120 .512382
2 1 .992333 .652131 .553526
3 1 .843734 .055410 .542362
4 1 .235517 .009170 .442718
5 1 .009382 .613270 .460843
6 1 .483089 .452686 .986927
7 1 .526813 .464789 .012925
ITEM: TIMESTEP
350
ITEM: NUMBER OF ATOMS
7
ITEM: BOX BOUNDS ss ss ss
-2.9910 3.2776
-2.6921 3.4874
-2.0626 1.8851
ITEM: ATOMS id type xs ys zs
1 1 .490822 .991555 .508832
2 1 .993471 .651919 .551633
3 1 .845149 .055258 .539914
4 1 .236585 .008975 .441682
5 1 .009748 .612244 .460179
6 1 .483874 .452710 .984638
7 1 .528332 .464688 .012707
ITEM: TIMESTEP
400
ITEM: NUMBER OF ATOMS
7
ITEM: BOX BOUNDS ss ss ss
-3.0029 3.2905
-2.6876 3.4854
-2.0573 1.8894
ITEM: ATOMS id type xs ys zs
1 1 .491108 .991853 .505338
2 1 .991965 .651789 .549701
3 1 .844556 .054571 .537508
4 1 .238524 .008234 .439897
5 1 .012098 .611520 .459056
6 1 .484684 .452579 .983270
7 1 .528794 .464361 .011018
ITEM: TIMESTEP
450
ITEM: NUMBER OF ATOMS
7
ITEM: BOX BOUNDS ss ss ss
-2.9740 3.2886
-2.6853 3.4786
-2.0602 1.8802
ITEM: ATOMS id type xs ys zs
1 1 .489136 .993044 .505877
2 1 .992210 .652207 .551271
3 1 .844604 .054238 .539091
4 1 .235520 .007709 .441234
5 1 .007481 .611930 .460663
6 1 .482863 .452860 .985523
7 1 .526306 .464842 .011503
ITEM: TIMESTEP
500
ITEM: NUMBER OF ATOMS
7
ITEM: BOX BOUNDS ss ss ss
-2.9878 3.2920
-2.6921 3.4802
-2.0662 1.8921
ITEM: ATOMS id type xs ys zs
1 1 .490199 .992746 .504477
2 1 .991507 .652285 .550422
3 1 .844853 .055182 .538190
4 1 .237436 .008759 .440589
5 1 .009653 .611987 .460333
6 1 .484068 .453369 .982458
7 1 .526527 .465454 .012618
ITEM: TIMESTEP
550
ITEM: NUMBER OF ATOMS
7
ITEM: BOX BOUNDS ss ss ss
-2.9891 3.3009
-2.6936 3.4856
-2.0767 1.8821
ITEM: ATOMS id type xs ys zs
1 1 .489286 .992054 .505906
2 1 .989349 .652130 .553440
3 1 .844064 .055193 .540617
4 1 .237318 .009451 .443181
5 1 .009972 .610908 .463731
6 1 .483887 .453239 .984856
7 1 .525751 .464994 .014564
ITEM: TIMESTEP
600
ITEM: NUMBER OF ATOMS
7
ITEM: BOX BOUNDS ss ss ss
-2.9860 3.2948
-2.6983 3.4862
-2.0738 1.8682
ITEM: ATOMS id type xs ys zs
1 1 .488850 .992328 .506154
2 1 .989691 .652720 .555626
3 1 .845351 .055762 .541577
4 1 .237201 .010852 .444844
5 1 .009612 .611042 .466563
6 1 .484736 .453647 .988391
7 1 .526082 .465355 .013534
ITEM: TIMESTEP
650
ITEM: NUMBER OF ATOMS
7
ITEM: BOX BOUNDS ss ss ss
-2.9917 3.2833
-2.6997 3.4887
-2.0717 1.8716
ITEM: ATOMS id type xs ys zs
1 1 .490195 .992038 .504970
2 1 .991655 .652705 .555012
3 1 .846992 .055902 .539825
4 1 .238544 .011284 .445032
5 1 .010309 .611465 .467486
6 1 .486502 .453562 .988138
7 1 .527215 .465455 .013516
ITEM: TIMESTEP
700
ITEM: NUMBER OF ATOMS
7
ITEM: BOX BOUNDS ss ss ss
-2.9827 3.2906
-2.6871 3.4886
-2.0729 1.8766
ITEM: ATOMS id type xs ys zs
1 1 .489012 .991905 .504362
2 1 .990696 .651886 .554590
3 1 .845713 .054123 .538780
4 1 .237421 .009079 .445140
5 1 .008594 .611046 .467848
6 1 .485215 .452511 .987413
7 1 .525436 .464421 .014475
ITEM: TIMESTEP
750
ITEM: NUMBER OF ATOMS
7
ITEM: BOX BOUNDS ss ss ss
-2.9918 3.2977
-2.6994 3.4957
-2.0767 1.8827
ITEM: ATOMS id type xs ys zs
1 1 .489275 .990614 .503627
2 1 .989923 .651657 .554252
3 1 .844996 .055959 .538761
4 1 .238873 .010622 .445366
5 1 .010015 .611212 .468138
6 1 .485520 .453369 .986265
7 1 .525251 .465027 .015766
ITEM: TIMESTEP
800
ITEM: NUMBER OF ATOMS
7
ITEM: BOX BOUNDS ss ss ss
-2.9992 3.3031
-2.6999 3.5023
-2.0797 1.8837
ITEM: ATOMS id type xs ys zs
1 1 .489423 .989769 .503242
2 1 .988932 .650827 .554340
3 1 .844290 .055691 .539079
4 1 .240416 .010505 .445853
5 1 .011727 .610401 .468552
6 1 .486109 .453317 .986172
7 1 .525476 .464821 .015990
ITEM: TIMESTEP
850
ITEM: NUMBER OF ATOMS
7
ITEM: BOX BOUNDS ss ss ss
-2.9814 3.3008
-2.7032 3.5044
-2.0713 1.8805
ITEM: ATOMS id type xs ys zs
1 1 .487853 .990311 .500506
2 1 .988207 .650564 .553871
3 1 .843870 .055461 .537343
4 1 .239091 .011512 .445421
5 1 .009915 .610171 .467765
6 1 .485421 .454018 .986918
7 1 .524583 .465166 .012510
ITEM: TIMESTEP
900
ITEM: NUMBER OF ATOMS
7
ITEM: BOX BOUNDS ss ss ss
-2.9838 3.3012
-2.6987 3.5048
-2.0780 1.8799
ITEM: ATOMS id type xs ys zs
1 1 .487737 .991078 .498168
2 1 .987184 .650216 .554342
3 1 .843742 .054727 .536823
4 1 .239408 .011549 .446989
5 1 .011314 .609558 .468759
6 1 .486006 .454286 .987198
7 1 .525213 .464407 .012547
ITEM: TIMESTEP
950
ITEM: NUMBER OF ATOMS
7
ITEM: BOX BOUNDS ss ss ss
-2.9872 3.2828
-2.6979 3.5164
-2.0784 1.8763
ITEM: ATOMS id type xs ys zs
1 1 .489381 .989278 .496924
2 1 .989917 .649068 .554100
3 1 .845997 .054742 .537063
4 1 .240039 .011416 .447924
5 1 .012161 .608224 .469559
6 1 .487736 .453371 .988123
7 1 .527144 .462986 .012063
ITEM: TIMESTEP
1000
ITEM: NUMBER OF ATOMS
7
ITEM: BOX BOUNDS ss ss ss
-2.9771 3.2713
-2.6851 3.5002
-2.0819 1.8905
ITEM: ATOMS id type xs ys zs
1 1 .489185 .990943 .494338
2 1 .992141 .650390 .551382
3 1 .846409 .053923 .536214
4 1 .238840 .009491 .447628
5 1 .010462 .607989 .468843
6 1 .487795 .453935 .985948
7 1 .527334 .462833 .012572
ITEM: TIMESTEP
1
ITEM: NUMBER OF ATOMS
7
ITEM: BOX BOUNDS ss ss ss
-2.9422 3.2547
-2.6431 3.4642
-2.0701 1.8748
ITEM: ATOMS id type xs ys zs
1 1 .487057 .993908 .515596
2 1 .995907 .652136 .557364
3 1 .842594 .047374 .544083
4 1 .230463 .002318 .446098
5 1 .002092 .610378 .463087
6 1 .481766 .450876 .988080
7 1 .525824 .461820 .011876
ITEM: TIMESTEP
50
ITEM: NUMBER OF ATOMS
7
ITEM: BOX BOUNDS ss ss ss
-2.9584 3.2553
-2.6643 3.4642
-2.0701 1.8748
ITEM: ATOMS id type xs ys zs
1 1 .488658 .994033 .515621
2 1 .995729 .653499 .557200
3 1 .843128 .050725 .544814
4 1 .232858 .004865 .445563
5 1 .004578 .612685 .463683
6 1 .482740 .452588 .987497
7 1 .526667 .463461 .011830
ITEM: TIMESTEP
100
ITEM: NUMBER OF ATOMS
7
ITEM: BOX BOUNDS ss ss ss
-2.9717 3.2709
-2.6743 3.4656
-2.0701 1.8748
ITEM: ATOMS id type xs ys zs
1 1 .488702 .994089 .515512
2 1 .993084 .653754 .556911
3 1 .841988 .052255 .545228
4 1 .233994 .005951 .444976
5 1 .006510 .613783 .463860
6 1 .482469 .453275 .987469
7 1 .526052 .464295 .012237
ITEM: TIMESTEP
150
ITEM: NUMBER OF ATOMS
7
ITEM: BOX BOUNDS ss ss ss
-2.9765 3.2698
-2.6836 3.4752
-2.0715 1.8748
ITEM: ATOMS id type xs ys zs
1 1 .489181 .992928 .515378
2 1 .993096 .652859 .556717
3 1 .843018 .053610 .545487
4 1 .234537 .007342 .444680
5 1 .007033 .613705 .464050
6 1 .482951 .453434 .987861
7 1 .526256 .464579 .013353
ITEM: TIMESTEP
200
ITEM: NUMBER OF ATOMS
7
ITEM: BOX BOUNDS ss ss ss
-2.9805 3.2847
-2.6913 3.4793
-2.0701 1.8748
ITEM: ATOMS id type xs ys zs
1 1 .488383 .992682 .515077