ITEM: TIMESTEP
1
ITEM: NUMBER OF ATOMS
7
ITEM: BOX BOUNDS ss ss ss
-2.9330 3.2344
-2.6327 3.4311
-2.0272 1.8315
ITEM: ATOMS id type xs ys zs
1 1 .487689 .999663 .516089
2 1 .999400 .654686 .558526
3 1 .845093 .045948 .545080
4 1 .229829 .000412 .444641
5 1 .000533 .613016 .461834
6 1 .482769 .452443 .999093
7 1 .526836 .463352 .001031
ITEM: TIMESTEP
50
ITEM: NUMBER OF ATOMS
7
ITEM: BOX BOUNDS ss ss ss
-2.9614 3.2564
-2.6568 3.4558
-2.0486 1.8553
ITEM: ATOMS id type xs ys zs
1 1 .487816 .994526 .515966
2 1 .994152 .653130 .560386
3 1 .842105 .048775 .544468
4 1 .232531 .003553 .441098
5 1 .003929 .610882 .462963
6 1 .483674 .453635 .991438
7 1 .526246 .462895 .008153
ITEM: TIMESTEP
100
ITEM: NUMBER OF ATOMS
7
ITEM: BOX BOUNDS ss ss ss
-2.9714 3.2633
-2.6687 3.4611
-2.0564 1.8659
ITEM: ATOMS id type xs ys zs
1 1 .489194 .995553 .516378
2 1 .994334 .653524 .558560
3 1 .843478 .052295 .541781
4 1 .234850 .004559 .447224
5 1 .008966 .613013 .459901
6 1 .483710 .452787 .994130
7 1 .526734 .465944 .008201
ITEM: TIMESTEP
150
ITEM: NUMBER OF ATOMS
7
ITEM: BOX BOUNDS ss ss ss
-2.9776 3.2706
-2.6765 3.4666
-2.0633 1.8741
ITEM: ATOMS id type xs ys zs
1 1 .490950 .994113 .515066
2 1 .992540 .653567 .556318
3 1 .844173 .052230 .541403
4 1 .236661 .005117 .449072
5 1 .008959 .615232 .459182
6 1 .484132 .451722 .992133
7 1 .527155 .464526 .010122
ITEM: TIMESTEP
200
ITEM: NUMBER OF ATOMS
7
ITEM: BOX BOUNDS ss ss ss
-2.9735 3.2800
-2.6856 3.4763
-2.0587 1.8840
ITEM: ATOMS id type xs ys zs
1 1 .485337 .991205 .510313
2 1 .989750 .653212 .555991
3 1 .839341 .056098 .534496
4 1 .236008 .011605 .443938
5 1 .009765 .613098 .460821
6 1 .483937 .454940 .991095
7 1 .529283 .463435 .006358
ITEM: TIMESTEP
250
ITEM: NUMBER OF ATOMS
7
ITEM: BOX BOUNDS ss ss ss
-2.9725 3.2724
-2.6663 3.4765
-2.0627 1.8839
ITEM: ATOMS id type xs ys zs
1 1 .486405 .990844 .512994
2 1 .991702 .650299 .548907
3 1 .841876 .050578 .542136
4 1 .236595 .006767 .440296
5 1 .007154 .607814 .462059
6 1 .484548 .452790 .986774
7 1 .528985 .463322 .009100
ITEM: TIMESTEP
300
ITEM: NUMBER OF ATOMS
7
ITEM: BOX BOUNDS ss ss ss
-2.9771 3.2753
-2.6603 3.4733
-2.0628 1.8817
ITEM: ATOMS id type xs ys zs
1 1 .487820 .991807 .513642
2 1 .989948 .651377 .549879
3 1 .837616 .049794 .544314
4 1 .230869 .009605 .443684
5 1 .006132 .604690 .460542
6 1 .483205 .453963 .987957
7 1 .525451 .462708 .008805
ITEM: TIMESTEP
350
ITEM: NUMBER OF ATOMS
7
ITEM: BOX BOUNDS ss ss ss
-2.9765 3.2731
-2.6558 3.4785
-2.0756 1.8929
ITEM: ATOMS id type xs ys zs
1 1 .488026 .990607 .510341
2 1 .990199 .649121 .548998
3 1 .837832 .048449 .545809
4 1 .229533 .008608 .445818
5 1 .004882 .606207 .459216
6 1 .481496 .454242 .981113
7 1 .525431 .462737 .012115
ITEM: TIMESTEP
400
ITEM: NUMBER OF ATOMS
7
ITEM: BOX BOUNDS ss ss ss
-2.9835 3.2825
-2.6473 3.4692
-2.0672 1.8857
ITEM: ATOMS id type xs ys zs
1 1 .486168 .989413 .507870
2 1 .994145 .650201 .551221
3 1 .839197 .046580 .541095
4 1 .229536 .013956 .439805
5 1 .008867 .604590 .464121
6 1 .485815 .453349 .992894
7 1 .529868 .465890 .007448
ITEM: TIMESTEP
1
ITEM: NUMBER OF ATOMS
7
ITEM: BOX BOUNDS ss ss ss
-2.9436 3.2748
-2.6327 3.4468
-2.0628 1.8770
ITEM: ATOMS id type xs ys zs
1 1 .485498 .996555 .514292
2 1 .992862 .653411 .556206
3 1 .840285 .045816 .542739
4 1 .229694 .000852 .444732
5 1 .002285 .611520 .462079
6 1 .480591 .450982 .987479
7 1 .524217 .462304 .010328
ITEM: TIMESTEP
50
ITEM: NUMBER OF ATOMS
7
ITEM: BOX BOUNDS ss ss ss
-2.9551 3.2748
-2.6589 3.4552
-2.0628 1.8770
ITEM: ATOMS id type xs ys zs
1 1 .487518 .994346 .512903
2 1 .991806 .655134 .556729
3 1 .841386 .049725 .543391
4 1 .230680 .007098 .443373
5 1 .005689 .610968 .462917
6 1 .483487 .453144 .985479
7 1 .523083 .462344 .009614
ITEM: TIMESTEP
100
ITEM: NUMBER OF ATOMS
7
ITEM: BOX BOUNDS ss ss ss
-2.9644 3.2748
-2.6740 3.4668
-2.0628 1.8770
ITEM: ATOMS id type xs ys zs
1 1 .489278 .994897 .513072
2 1 .994423 .653076 .555601
3 1 .841738 .051932 .549187
4 1 .230192 .010124 .442663
5 1 .006169 .612575 .461323
6 1 .480550 .455317 .984876
7 1 .528041 .465652 .011046
ITEM: TIMESTEP
150
ITEM: NUMBER OF ATOMS
7
ITEM: BOX BOUNDS ss ss ss
-2.9755 3.2761
-2.6782 3.4838
-2.0647 1.8770
ITEM: ATOMS id type xs ys zs
1 1 .491849 .993874 .512768
2 1 .995016 .651636 .552473
3 1 .844146 .053094 .551825
4 1 .231879 .009395 .443831
5 1 .006286 .610276 .461724
6 1 .481550 .453056 .986807
7 1 .529992 .464980 .014424
ITEM: TIMESTEP
200
ITEM: NUMBER OF ATOMS
7
ITEM: BOX BOUNDS ss ss ss
-2.9836 3.2748
-2.6840 3.4708
-2.0628 1.8770
ITEM: ATOMS id type xs ys zs
1 1 .493856 .994510 .514656
2 1 .994929 .653144 .554142
3 1 .844615 .053753 .550258
4 1 .232730 .009720 .442945
5 1 .007739 .611288 .460202
6 1 .482449 .456108 .991517
7 1 .532434 .467367 .015221
ITEM: TIMESTEP
250
ITEM: NUMBER OF ATOMS
7
ITEM: BOX BOUNDS ss ss ss
-2.9731 3.2783
-2.6736 3.4812
-2.0630 1.8823
ITEM: ATOMS id type xs ys zs
1 1 .488397 .994017 .511397
2 1 .991483 .648635 .550702
3 1 .843205 .054583 .543074
4 1 .235399 .009250 .450903
5 1 .003943 .610939 .459133
6 1 .479257 .454063 .982116
7 1 .526019 .466272 .012227
ITEM: TIMESTEP
300
ITEM: NUMBER OF ATOMS
7
ITEM: BOX BOUNDS ss ss ss
-2.9794 3.2798
-2.6694 3.4849
-2.0728 1.8949
ITEM: ATOMS id type xs ys zs
1 1 .485127 .995828 .509099
2 1 .989278 .652542 .548605
3 1 .839581 .049892 .543053
4 1 .235123 .011616 .440783
5 1 .007276 .607475 .446527
6 1 .482869 .454034 .982975
7 1 .528866 .464808 .014562
ITEM: TIMESTEP
350
ITEM: NUMBER OF ATOMS
7
ITEM: BOX BOUNDS ss ss ss
-2.9751 3.2765
-2.6784 3.4738
-2.0707 1.8850
ITEM: ATOMS id type xs ys zs
1 1 .487498 .999718 .510135
2 1 .989081 .655134 .551947
3 1 .840617 .052328 .542578
4 1 .235219 .015133 .438997
5 1 .006919 .607912 .444570
6 1 .482622 .457825 .985387
7 1 .529305 .466058 .012321
ITEM: TIMESTEP
400
ITEM: NUMBER OF ATOMS
7
ITEM: BOX BOUNDS ss ss ss
-2.9840 3.2753
-2.6539 3.4749
-2.0765 1.8901
ITEM: ATOMS id type xs ys zs
1 1 .489053 .991612 .508487
2 1 .994337 .651521 .560404
3 1 .842347 .050542 .543601
4 1 .232416 .008195 .446336
5 1 .008088 .601851 .459792
6 1 .484938 .452236 .986031
7 1 .528216 .464107 .015759
ITEM: TIMESTEP
1
ITEM: NUMBER OF ATOMS
7
ITEM: BOX BOUNDS ss ss ss
-2.9541 3.2617
-2.6325 3.4440
-2.0508 1.8774
ITEM: ATOMS id type xs ys zs
1 1 .487652 .997337 .512960
2 1 .994670 .653834 .554662
3 1 .841918 .046032 .541515
4 1 .231664 .000695 .443086
5 1 .004047 .611945 .460085
6 1 .482237 .451224 .987466
7 1 .526084 .462783 .007173
ITEM: TIMESTEP
50
ITEM: NUMBER OF ATOMS
7
ITEM: BOX BOUNDS ss ss ss
-2.9572 3.2617
-2.6633 3.4542
-2.0520 1.8774
ITEM: ATOMS id type xs ys zs
1 1 .488445 .994942 .512344
2 1 .994644 .654813 .555494
3 1 .840591 .050751 .542254
4 1 .232994 .005306 .438762
5 1 .006761 .614871 .462035
6 1 .481383 .453773 .984759
7 1 .525830 .465624 .009960
ITEM: TIMESTEP
100
ITEM: NUMBER OF ATOMS
7
ITEM: BOX BOUNDS ss ss ss
-2.9667 3.2672
-2.6714 3.4666
-2.0689 1.8774
ITEM: ATOMS id type xs ys zs
1 1 .489376 .994933 .513888
2 1 .994751 .653060 .560562
3 1 .843347 .050724 .544988
4 1 .233988 .004075 .444990
5 1 .008830 .612430 .463480
6 1 .483172 .454150 .985337
7 1 .524589 .467040 .005665
ITEM: TIMESTEP
150
ITEM: NUMBER OF ATOMS
7
ITEM: BOX BOUNDS ss ss ss
-2.9753 3.2692
-2.6769 3.4724
-2.0592 1.8774
ITEM: ATOMS id type xs ys zs
1 1 .489899 .991232 .512555
2 1 .994769 .653947 .554446
3 1 .842868 .052278 .543470
4 1 .236645 .008202 .439599
5 1 .009009 .610277 .460528
6 1 .486585 .450134 .980499
7 1 .529123 .463243 .011244
ITEM: TIMESTEP
200
ITEM: NUMBER OF ATOMS
7
ITEM: BOX BOUNDS ss ss ss
-2.9769 3.2727
-2.6807 3.4770
-2.0601 1.8774
ITEM: ATOMS id type xs ys zs
1 1 .486723 .997696 .516201
2 1 .990589 .651382 .559747
3 1 .841447 .052403 .541785
4 1 .233497 .009194 .447335
5 1 .005677 .609308 .463107
6 1 .484296 .451640 .987270
7 1 .525616 .465122 .005642
ITEM: TIMESTEP
250
ITEM: NUMBER OF ATOMS
7
ITEM: BOX BOUNDS ss ss ss
-2.9731 3.2732
-2.6801 3.4833
-2.0576 1.8827
ITEM: ATOMS id type xs ys zs
1 1 .487856 .991094 .516827
2 1 .993434 .648907 .548976
3 1 .844636 .048424 .542930
4 1 .231565 .009992 .438792
5 1 .007927 .613077 .458892
6 1 .481828 .450220 .984600
7 1 .529256 .462357 .009733
ITEM: TIMESTEP
300
ITEM: NUMBER OF ATOMS
7
ITEM: BOX BOUNDS ss ss ss
-2.9709 3.2794
-2.6763 3.4854
-2.0650 1.8834
ITEM: ATOMS id type xs ys zs
1 1 .488125 .990161 .518832
2 1 .990705 .650262 .559154
3 1 .838609 .052089 .543817
4 1 .229500 .010094 .442451
5 1 .007321 .605592 .452485
6 1 .481124 .450429 .991074
7 1 .528296 .469801 .010219
ITEM: TIMESTEP
350
ITEM: NUMBER OF ATOMS
7
ITEM: BOX BOUNDS ss ss ss
-2.9747 3.2754
-2.6739 3.4721
-2.0737 1.8849
ITEM: ATOMS id type xs ys zs
1 1 .482987 .994235 .510198
2 1 .986965 .650841 .561272
3 1 .841503 .053150 .547660
4 1 .233259 .009355 .444289
5 1 .007734 .605808 .460607
6 1 .478989 .453841 .990871
7 1 .529442 .465123 .014026
ITEM: TIMESTEP
400
ITEM: NUMBER OF ATOMS
7
ITEM: BOX BOUNDS ss ss ss
-2.9714 3.2786
-2.6721 3.4664
-2.0664 1.8821
ITEM: ATOMS id type xs ys zs
1 1 .489406 .991113 .519479
2 1 .992407 .651045 .558234
3 1 .841597 .051519 .536649
4 1 .227247 .012897 .443890
5 1 .007898 .605951 .453926
6 1 .482287 .449795 .986607
7 1 .527960 .467796 .014959
ITEM: TIMESTEP
1
ITEM: NUMBER OF ATOMS
7
ITEM: BOX BOUNDS ss ss ss
-2.9621 3.2607
-2.6330 3.4512
-2.0504 1.8694
ITEM: ATOMS id type xs ys zs
1 1 .488426 .996043 .513774
2 1 .994767 .652943 .556329
3 1 .842141 .045715 .542056
4 1 .232614 .000865 .444034
5 1 .005144 .611058 .461361
6 1 .482820 .450888 .989272
7 1 .527143 .462228 .007194
ITEM: TIMESTEP
50
ITEM: NUMBER OF ATOMS
7
ITEM: BOX BOUNDS ss ss ss
-2.9621 3.2607
-2.6609 3.4529
-2.0558 1.8694
ITEM: ATOMS id type xs ys zs
1 1 .487866 .996906 .515564
2 1 .996217 .653759 .555627
3 1 .842113 .051301 .543111
4 1 .235005 .004448 .443273
5 1 .006106 .612961 .464486
6 1 .483769 .453324 .987157
7 1 .527589 .464533 .012865
ITEM: TIMESTEP
100
ITEM: NUMBER OF ATOMS
7
ITEM: BOX BOUNDS ss ss ss
-2.9662 3.2607
-2.6743 3.4701
-2.0564 1.8694
ITEM: ATOMS id type xs ys zs
1 1 .488894 .994373 .513246
2 1 .994882 .655103 .559533
3 1 .843736 .052311 .546220
4 1 .235259 .003826 .446268
5 1 .004589 .613141 .463482
6 1 .481570 .451767 .988708
7 1 .527113 .460577 .007763
ITEM: TIMESTEP
150
ITEM: NUMBER OF ATOMS
7
ITEM: BOX BOUNDS ss ss ss
-2.9758 3.2702
-2.6777 3.4751
-2.0611 1.8746
ITEM: ATOMS id type xs ys zs
1 1 .489481 .994030 .515763
2 1 .993292 .655931 .555301
3 1 .846585 .054131 .541536
4 1 .237323 .006718 .444651
5 1 .006577 .613465 .461069
6 1 .481334 .452996 .990437
7 1 .525330 .463363 .009969
ITEM: TIMESTEP
200
ITEM: NUMBER OF ATOMS
7
ITEM: BOX BOUNDS ss ss ss
-2.9789 3.2746
-2.6817 3.4771
-2.0587 1.8820
ITEM: ATOMS id type xs ys zs
1 1 .486176 .993906 .508174
2 1 .993720 .649514 .557473
3 1 .841409 .049250 .537482
4 1 .233727 .007046 .440175
5 1 .005445 .609640 .463137
6 1 .484157 .455173 .987858
7 1 .526041 .467122 .010527
ITEM: TIMESTEP
250
ITEM: NUMBER OF ATOMS
7
ITEM: BOX BOUNDS ss ss ss
-2.9844 3.2869
-2.6811 3.4861
-2.0623 1.8831
ITEM: ATOMS id type xs ys zs
1 1 .486426 .993423 .515890
2 1 .991822 .649972 .556198
3 1 .837077 .053352 .544666
4 1 .234471 .008353 .443714
5 1 .006899 .610671 .469310
6 1 .482842 .452606 .991835
7 1 .527707 .469765 .015493
ITEM: TIMESTEP
300
ITEM: NUMBER OF ATOMS
7
ITEM: BOX BOUNDS ss ss ss
-2.9828 3.2736
-2.6726 3.4911
-2.0646 1.8863
ITEM: ATOMS id type xs ys zs
1 1 .488592 .994762 .509733
2 1 .990547 .651803 .562435
3 1 .843791 .048617 .546698
4 1 .235636 .008269 .445674
5 1 .008086 .612852 .457211
6 1 .483106 .453220 .987444
7 1 .526624 .465092 .016022
ITEM: TIMESTEP
350
ITEM: NUMBER OF ATOMS
7
ITEM: BOX BOUNDS ss ss ss
-2.9737 3.2672
-2.6654 3.4846
-2.0754 1.8830
ITEM: ATOMS id type xs ys zs
1 1 .486376 .993419 .515911
2 1 .993032 .650804 .553166
3 1 .842462 .048554 .546967
4 1 .231552 .009188 .440229
5 1 .004413 .606703 .452670
6 1 .485035 .451267 .984505
7 1 .526916 .466175 .011035
ITEM: TIMESTEP
400
ITEM: NUMBER OF ATOMS
7
ITEM: BOX BOUNDS ss ss ss
-2.9845 3.2684
-2.6640 3.4908
-2.0783 1.8837
ITEM: ATOMS id type xs ys zs
1 1 .486795 .993375 .515822
2 1 .992483 .650812 .554161
3 1 .842858 .047264 .547170
4 1 .234740 .008216 .440961
5 1 .006272 .607149 .452152
6 1 .487173 .451774 .984906
7 1 .528519 .465774 .011058
ITEM: TIMESTEP
1
ITEM: NUMBER OF ATOMS
7
ITEM: BOX BOUNDS ss ss ss
-2.9693 3.2607
-2.6353 3.4583
-2.0514 1.8694
ITEM: ATOMS id type xs ys zs
1 1 .488799 .994746 .514092
2 1 .995106 .652175 .556145
3 1 .842701 .046151 .542930
4 1 .233450 .001111 .444319
5 1 .006269 .610220 .461555
6 1 .483609 .450569 .989654
7 1 .527328 .461249 .006998
ITEM: TIMESTEP
50
ITEM: NUMBER OF ATOMS
7
ITEM: BOX BOUNDS ss ss ss
-2.9693 3.2607
-2.6663 3.4583
-2.0527 1.8694
ITEM: ATOMS id type xs ys zs
1 1 .489149 .995125 .512837
2 1 .994240 .654221 .556703
3 1 .842439 .049479 .545197
4 1 .234984 .005073 .443923
5 1 .004985 .613761 .464368
6 1 .485600 .453552 .987264
7 1 .527114 .462303 .009547
ITEM: TIMESTEP
100
ITEM: NUMBER OF ATOMS
7
ITEM: BOX BOUNDS ss ss ss
-2.9723 3.2630
-2.6747 3.4678
-2.0608 1.8694
ITEM: ATOMS id type xs ys zs
1 1 .487847 .993738 .510031
2 1 .995004 .653079 .555915
3 1 .841360 .051646 .543866
4 1 .233845 .006993 .447379
5 1 .008483 .611276 .462746
6 1 .483585 .452004 .990867
7 1 .524937 .462736 .011275
ITEM: TIMESTEP
150
ITEM: NUMBER OF ATOMS
7
ITEM: BOX BOUNDS ss ss ss
-2.9747 3.2718
-2.6815 3.4725
-2.0616 1.8801
ITEM: ATOMS id type xs ys zs
1 1 .486411 .995197 .512327
2 1 .988755 .654769 .560065
3 1 .844241 .054500 .543700
4 1 .233912 .008753 .440479
5 1 .004386 .608049 .463690
6 1 .482184 .452329 .989643
7 1 .526105 .466177 .012859
ITEM: TIMESTEP
200
ITEM: NUMBER OF ATOMS
7
ITEM: BOX BOUNDS ss ss ss
-2.9731 3.2742
-2.6847 3.4798
-2.0639 1.8895
ITEM: ATOMS id type xs ys zs
1 1 .487698 .994568 .508757
2 1 .988195 .654976 .558433
3 1 .844566 .054986 .542166
4 1 .231068 .006290 .437883
5 1 .003633 .606785 .465298
6 1 .482561 .451321 .987495
7 1 .524401 .464021 .014848
ITEM: TIMESTEP
250
ITEM: NUMBER OF ATOMS
7
ITEM: BOX BOUNDS ss ss ss
-2.9731 3.2723
-2.6788 3.4798
-2.0606 1.8915
ITEM: ATOMS id type xs ys zs
1 1 .487930 .991826 .511242
2 1 .994175 .650607 .559051
3 1 .845265 .054088 .537866
4 1 .231195 .005552 .439234
5 1 .006278 .608822 .461758
6 1 .483315 .452106 .983790
7 1 .528521 .463070 .015594
ITEM: TIMESTEP
300
ITEM: NUMBER OF ATOMS
7
ITEM: BOX BOUNDS ss ss ss
-2.9748 3.2765
-2.6826 3.4851
-2.0600 1.8938
ITEM: ATOMS id type xs ys zs
1 1 .486876 .991736 .512268
2 1 .994427 .651076 .561577
3 1 .845978 .054344 .539780
4 1 .231819 .004858 .437729
5 1 .006472 .608708 .461381
6 1 .484047 .450996 .983494
7 1 .529031 .460504 .015639
ITEM: TIMESTEP
350
ITEM: NUMBER OF ATOMS
7
ITEM: BOX BOUNDS ss ss ss
-2.9848 3.2768
-2.6823 3.4813
-2.0645 1.8970
ITEM: ATOMS id type xs ys zs
1 1 .488749 .991352 .504611
2 1 .990599 .649355 .553679
3 1 .841690 .054214 .534782
4 1 .234499 .008150 .434214
5 1 .009756 .608851 .465706
6 1 .483973 .451801 .981248
7 1 .526442 .465398 .009662
ITEM: TIMESTEP
400
ITEM: NUMBER OF ATOMS
7
ITEM: BOX BOUNDS ss ss ss
-2.9759 3.2831
-2.6853 3.4909
-2.0656 1.8997
ITEM: ATOMS id type xs ys zs
1 1 .485637 .993021 .512961
2 1 .989366 .651338 .551613
3 1 .844571 .056526 .540974
4 1 .236655 .006982 .435606
5 1 .005198 .605698 .451981
6 1 .481917 .452249 .979875
7 1 .524235 .462391 .010466
ITEM: TIMESTEP
1
ITEM: NUMBER OF ATOMS
7
ITEM: BOX BOUNDS ss ss ss
-2.9693 3.2717
-2.6636 3.4620
-2.0514 1.8929
ITEM: ATOMS id type xs ys zs
1 1 .487855 .994279 .510738
2 1 .993086 .653683 .552429
3 1 .840850 .050705 .539481
4 1 .233490 .005653 .441487
5 1 .006255 .611884 .458887
6 1 .482599 .452632 .984025
7 1 .526428 .463762 .007440
ITEM: TIMESTEP
50
ITEM: NUMBER OF ATOMS
7
ITEM: BOX BOUNDS ss ss ss
-2.9693 3.2717
-2.6636 3.4620
-2.0514 1.8929
ITEM: ATOMS id type xs ys zs
1 1 .488109 .997178 .510992
2 1 .991125 .652185 .552799
3 1 .839707 .051107 .539203
4 1 .234245 .003997 .440851
5 1 .004336 .614352 .459242
6 1 .482829 .451364 .982015
7 1 .526584 .462730 .010075
ITEM: TIMESTEP
100
ITEM: NUMBER OF ATOMS
7
ITEM: BOX BOUNDS ss ss ss
-2.9693 3.2719
-2.6756 3.4679
-2.0626 1.8929
ITEM: ATOMS id type xs ys zs
1 1 .488588 .992763 .518453
2 1 .995199 .651363 .552907
3 1 .843465 .052217 .540210
4 1 .233717 .007638 .443414
5 1 .007552 .610668 .462139
6 1 .481134 .453191 .983182
7 1 .526283 .465027 .009153
ITEM: TIMESTEP
150
ITEM: NUMBER OF ATOMS
7
ITEM: BOX BOUNDS ss ss ss
-2.9745 3.2791
-2.6832 3.4724
-2.0654 1.8929
ITEM: ATOMS id type xs ys zs
1 1 .488824 .994877 .521460
2 1 .992792 .653165 .552406
3 1 .841522 .053830 .544309
4 1 .234408 .007678 .441908
5 1 .009147 .612292 .461812
6 1 .480877 .451161 .980226
7 1 .524429 .465029 .006066
ITEM: TIMESTEP
200
ITEM: NUMBER OF ATOMS
7
ITEM: BOX BOUNDS ss ss ss
-2.9695 3.2717
-2.6833 3.4775
-2.0666 1.8929
ITEM: ATOMS id type xs ys zs
1 1 .488124 .993136 .514032
2 1 .992218 .653151 .558795
3 1 .845216 .052709 .540636
4 1 .233255 .007941 .437966
5 1 .008559 .612529 .460162
6 1 .481368 .452763 .981334
7 1 .525445 .462538 .011059
ITEM: TIMESTEP
250
ITEM: NUMBER OF ATOMS
7
ITEM: BOX BOUNDS ss ss ss
-2.9827 3.2717
-2.6907 3.4817
-2.0685 1.8929
ITEM: ATOMS id type xs ys zs
1 1 .492795 .992107 .514136
2 1 .995913 .652553 .551232
3 1 .839114 .055442 .538715
4 1 .230532 .011600 .443974
5 1 .007925 .609547 .464408
6 1 .482782 .452215 .986239
7 1 .524572 .468615 .014038
ITEM: TIMESTEP
300
ITEM: NUMBER OF ATOMS
7
ITEM: BOX BOUNDS ss ss ss
-2.9819 3.2838
-2.6893 3.4902
-2.0706 1.8929
ITEM: ATOMS id type xs ys zs
1 1 .495222 .992642 .512977
2 1 .994879 .648731 .553341
3 1 .839585 .056156 .535636
4 1 .231617 .009937 .441344
5 1 .010794 .613301 .465296
6 1 .484633 .455323 .987412
7 1 .524884 .466669 .015177
ITEM: TIMESTEP
350
ITEM: NUMBER OF ATOMS
7
ITEM: BOX BOUNDS ss ss ss
-2.9830 3.2816
-2.6792 3.4896
-2.0716 1.8929
ITEM: ATOMS id type xs ys zs
1 1 .495900 .993573 .514476
2 1 .993606 .648474 .551448
3 1 .840269 .056386 .533381
4 1 .234584 .006587 .438034
5 1 .010605 .613831 .469110
6 1 .483166 .453283 .984958
7 1 .524796 .466425 .013124
ITEM: TIMESTEP
400
ITEM: NUMBER OF ATOMS
7
ITEM: BOX BOUNDS ss ss ss
-2.9854 3.2834
-2.6722 3.4911
-2.0691 1.8908
ITEM: ATOMS id type xs ys zs
1 1 .493941 .991247 .512749
2 1 .995287 .647522 .555076
3 1 .840783 .053798 .539546
4 1 .235033 .012980 .441715
5 1 .010681 .606321 .463367
6 1 .483226 .454520 .987071
7 1 .527494 .467408 .013099
ITEM: TIMESTEP
1
ITEM: NUMBER OF ATOMS
7
ITEM: BOX BOUNDS ss ss ss
-2.9621 3.2651
-2.6330 3.4704
-2.0504 1.8712
ITEM: ATOMS id type xs ys zs
1 1 .487636 .993033 .513775
2 1 .994096 .650885 .555785
3 1 .841618 .045969 .542472
4 1 .232686 .000804 .443652
5 1 .005236 .609161 .460622
6 1 .482634 .449703 .988884
7 1 .526551 .460580 .007120
ITEM: TIMESTEP
50
ITEM: NUMBER OF ATOMS
7
ITEM: BOX BOUNDS ss ss ss
-2.9621 3.2651
-2.6611 3.4704
-2.0535 1.8712
ITEM: ATOMS id type xs ys zs
1 1 .488730 .991512 .511573
2 1 .995214 .653234 .554308
3 1 .840212 .051281 .542982
4 1 .234735 .003294 .440843
5 1 .004958 .612227 .461764
6 1 .481784 .452639 .988909
7 1 .526871 .461268 .008334
ITEM: TIMESTEP
100
ITEM: NUMBER OF ATOMS
7
ITEM: BOX BOUNDS ss ss ss
-2.9737 3.2667
-2.6758 3.4729
-2.0623 1.8712
ITEM: ATOMS id type xs ys zs
1 1 .490724 .990208 .511487
2 1 .994284 .653394 .554611
3 1 .843039 .052994 .545231
4 1 .232134 .006658 .441376
5 1 .005633 .611929 .458803
6 1 .483041 .450686 .990644
7 1 .528727 .462671 .008605
ITEM: TIMESTEP
150
ITEM: NUMBER OF ATOMS
7
ITEM: BOX BOUNDS ss ss ss
-2.9713 3.2768
-2.6840 3.4740
-2.0745 1.8712
ITEM: ATOMS id type xs ys zs
1 1 .490905 .989515 .514122
2 1 .991316 .655838 .557701
3 1 .843295 .054610 .546552
4 1 .231016 .007383 .440872
5 1 .004904 .612171 .463302
6 1 .481758 .451432 .988701
7 1 .527554 .461371 .012480
ITEM: TIMESTEP
200
ITEM: NUMBER OF ATOMS
7
ITEM: BOX BOUNDS ss ss ss
-2.9911 3.2801
-2.6850 3.4803
-2.0641 1.8798
ITEM: ATOMS id type xs ys zs
1 1 .488334 .989868 .516121
2 1 .990928 .650641 .552258
3 1 .841573 .055265 .539854
4 1 .235153 .007212 .439347
5 1 .007877 .616624 .462670
6 1 .481602 .453505 .986400
7 1 .526936 .465778 .012698
ITEM: TIMESTEP
250
ITEM: NUMBER OF ATOMS
7
ITEM: BOX BOUNDS ss ss ss
-2.9801 3.2802
-2.6769 3.4712
-2.0671 1.8850
ITEM: ATOMS id type xs ys zs
1 1 .488470 .991709 .508114
2 1 .993148 .650297 .558586
3 1 .839858 .050221 .539316
4 1 .232780 .006394 .441235
5 1 .008440 .606308 .460967
6 1 .481613 .451637 .983470
7 1 .530705 .461971 .010378
ITEM: TIMESTEP
300
ITEM: NUMBER OF ATOMS
7
ITEM: BOX BOUNDS ss ss ss
-2.9761 3.2859
-2.6779 3.4704
-2.0598 1.8829
ITEM: ATOMS id type xs ys zs
1 1 .488489 .990645 .509167
2 1 .991122 .651295 .559288
3 1 .840665 .049592 .536249
4 1 .234573 .005689 .437551
5 1 .007195 .606416 .464991
6 1 .480804 .450931 .981797
7 1 .528366 .460583 .007298
ITEM: TIMESTEP
350
ITEM: NUMBER OF ATOMS
7
ITEM: BOX BOUNDS ss ss ss
-2.9804 3.2919
-2.6830 3.4718
-2.0648 1.8932
ITEM: ATOMS id type xs ys zs
1 1 .486339 .991432 .515408
2 1 .987844 .651819 .550375
3 1 .838037 .048529 .537464
4 1 .231332 .011549 .442926
5 1 .012045 .607075 .449665
6 1 .481889 .450554 .988794
7 1 .525790 .461130 .011314
ITEM: TIMESTEP
400
ITEM: NUMBER OF ATOMS
7
ITEM: BOX BOUNDS ss ss ss
-2.9744 3.2872
-2.6754 3.4739
-2.0692 1.8879
ITEM: ATOMS id type xs ys zs
1 1 .486733 .991421 .515970
2 1 .988589 .651662 .551244
3 1 .839126 .045275 .542565
4 1 .229823 .009574 .442706
5 1 .010826 .607154 .450667
6 1 .482664 .450885 .987738
7 1 .526035 .459848 .012627
ITEM: TIMESTEP
1
ITEM: NUMBER OF ATOMS
7
ITEM: BOX BOUNDS ss ss ss
-2.9621 3.2740
-2.6506 3.4636
-2.0556 1.8694
ITEM: ATOMS id type xs ys zs
1 1 .487232 .994090 .514808
2 1 .992939 .652486 .556375
3 1 .840432 .048433 .542876
4 1 .232303 .003261 .444608
5 1 .005436 .611038 .461835
6 1 .482105 .451374 .988919
7 1 .525288 .462762 .008298
ITEM: TIMESTEP
50
ITEM: NUMBER OF ATOMS
7
ITEM: BOX BOUNDS ss ss ss
-2.9621 3.2740
-2.6601 3.4636
-2.0556 1.8694
ITEM: ATOMS id type xs ys zs
1 1 .487077 .992855 .518882
2 1 .993288 .653688 .559076
3 1 .839837 .051187 .544482
4 1 .233838 .005746 .446770
5 1 .004581 .611472 .463087
6 1 .482245 .451507 .988734
7 1 .525589 .464028 .004674
ITEM: TIMESTEP
100
ITEM: NUMBER OF ATOMS
7
ITEM: BOX BOUNDS ss ss ss
-2.9720 3.2740
-2.6753 3.4649
-2.0577 1.8694
ITEM: ATOMS id type xs ys zs
1 1 .490271 .995390 .513552
2 1 .990525 .652553 .554075
3 1 .841517 .054974 .543903
4 1 .230491 .006137 .441719
5 1 .005218 .615013 .459867
6 1 .485279 .452383 .988921
7 1 .523762 .463325 .007950
ITEM: TIMESTEP
150
ITEM: NUMBER OF ATOMS
7
ITEM: BOX BOUNDS ss ss ss
-2.9843 3.2740
-2.6918 3.4845
-2.0612 1.8726
ITEM: ATOMS id type xs ys zs
1 1 .489802 .991460 .514047
2 1 .994255 .648349 .557642
3 1 .842603 .054361 .547879
4 1 .232943 .005512 .441670
5 1 .007984 .611349 .458997
6 1 .483045 .450297 .989755
7 1 .526027 .461957 .012311
ITEM: TIMESTEP
200
ITEM: NUMBER OF ATOMS
7
ITEM: BOX BOUNDS ss ss ss
-2.9774 3.2740
-2.6892 3.4794
-2.0607 1.8825
ITEM: ATOMS id type xs ys zs
1 1 .492945 .991139 .508095
2 1 .993527 .652277 .549173
3 1 .842497 .053729 .546979
4 1 .232914 .009074 .437367
5 1 .007657 .614370 .454574
6 1 .481225 .451001 .987146
7 1 .525453 .464710 .014294
ITEM: TIMESTEP
250
ITEM: NUMBER OF ATOMS
7
ITEM: BOX BOUNDS ss ss ss
-2.9866 3.2741
-2.6918 3.4784
-2.0664 1.8902
ITEM: ATOMS id type xs ys zs
1 1 .489882 .995978 .509908
2 1 .991560 .652495 .552105
3 1 .843341 .059062 .545851
4 1 .239997 .009663 .439121
5 1 .006422 .609912 .466334
6 1 .481610 .456299 .984301
7 1 .523357 .467661 .017617
ITEM: TIMESTEP
300
ITEM: NUMBER OF ATOMS
7
ITEM: BOX BOUNDS ss ss ss
-2.9938 3.2794
-2.6936 3.4879
-2.0619 1.8785
ITEM: ATOMS id type xs ys zs
1 1 .491426 .993247 .503875
2 1 .990066 .657778 .557259
3 1 .846485 .056499 .546196
4 1 .240699 .010700 .443526
5 1 .011174 .610169 .462970
6 1 .485546 .452899 .985013
7 1 .529092 .464660 .012600
ITEM: TIMESTEP
350
ITEM: NUMBER OF ATOMS
7
ITEM: BOX BOUNDS ss ss ss
-2.9910 3.2776
-2.6921 3.4874
-2.0626 1.8851
ITEM: ATOMS id type xs ys zs
1 1 .491377 .991656 .507380
2 1 .994519 .649615 .552659
3 1 .845422 .055068 .538781
4 1 .235426 .010364 .442975
5 1 .009371 .611581 .460168
6 1 .487245 .452165 .982992
7 1 .528865 .464209 .005547
ITEM: TIMESTEP
400
ITEM: NUMBER OF ATOMS
7
ITEM: BOX BOUNDS ss ss ss
-3.0029 3.2905
-2.6876 3.4854
-2.0573 1.8894
ITEM: ATOMS id type xs ys zs
1 1 .494608 .992695 .498548
2 1 .991152 .651185 .543669
3 1 .845294 .054529 .537728
4 1 .237574 .009232 .441440
5 1 .011212 .611007 .460340
6 1 .486422 .453937 .982278
7 1 .526506 .465449 .008492
ITEM: TIMESTEP
450
ITEM: NUMBER OF ATOMS
7
ITEM: BOX BOUNDS ss ss ss
-2.9740 3.2886
-2.6853 3.4786
-2.0602 1.8802
ITEM: ATOMS id type xs ys zs
1 1 .494084 .994072 .499329
2 1 .992772 .651114 .545143
3 1 .845207 .052138 .542592
4 1 .233212 .006095 .445309
5 1 .007179 .612007 .460788
6 1 .483862 .453130 .982699
7 1 .523711 .465179 .008979
ITEM: TIMESTEP
500
ITEM: NUMBER OF ATOMS
7
ITEM: BOX BOUNDS ss ss ss
-2.9878 3.2920
-2.6921 3.4802
-2.0662 1.8921
ITEM: ATOMS id type xs ys zs
1 1 .488802 .991846 .496380
2 1 .993283 .653380 .552015
3 1 .845142 .057228 .535571
4 1 .235176 .008949 .440436
5 1 .006749 .607954 .457850
6 1 .482777 .455592 .979646
7 1 .523163 .465865 .009400
ITEM: TIMESTEP
550
ITEM: NUMBER OF ATOMS
7
ITEM: BOX BOUNDS ss ss ss
-2.9891 3.3009
-2.6936 3.4856
-2.0767 1.8821
ITEM: ATOMS id type xs ys zs
1 1 .489273 .991960 .498184
2 1 .988086 .652865 .553991
3 1 .842207 .055091 .544552
4 1 .237313 .010312 .451669
5 1 .007553 .609452 .467897
6 1 .482987 .455316 .979814
7 1 .525508 .463427 .011317
ITEM: TIMESTEP
600
ITEM: NUMBER OF ATOMS
7
ITEM: BOX BOUNDS ss ss ss
-2.9860 3.2948
-2.6983 3.4862
-2.0738 1.8682
ITEM: ATOMS id type xs ys zs
1 1 .493182 .987424 .510802
2 1 .995543 .645603 .546565
3 1 .844308 .050409 .541220
4 1 .236524 .008996 .444377
5 1 .004663 .611087 .458891
6 1 .484293 .457687 .989926
7 1 .526484 .465041 .020128
ITEM: TIMESTEP
650
ITEM: NUMBER OF ATOMS
7
ITEM: BOX BOUNDS ss ss ss
-2.9917 3.2833
-2.6997 3.4887
-2.0717 1.8716
ITEM: ATOMS id type xs ys zs
1 1 .489106 .988140 .505896
2 1 .990791 .654217 .555890
3 1 .848131 .055125 .537559
4 1 .241360 .014161 .447677
5 1 .007140 .609075 .471767
6 1 .487155 .456235 .989362
7 1 .529010 .460965 .011659
ITEM: TIMESTEP
700
ITEM: NUMBER OF ATOMS
7
ITEM: BOX BOUNDS ss ss ss
-2.9827 3.2906
-2.6871 3.4886
-2.0729 1.8766
ITEM: ATOMS id type xs ys zs
1 1 .490709 .992878 .499532
2 1 .991681 .655811 .553257
3 1 .842921 .055377 .540200
4 1 .236365 .010722 .445146
5 1 .008693 .612382 .467832
6 1 .488442 .452035 .988493
7 1 .528855 .462049 .015870
ITEM: TIMESTEP
750
ITEM: NUMBER OF ATOMS
7
ITEM: BOX BOUNDS ss ss ss
-2.9918 3.2977
-2.6994 3.4957
-2.0767 1.8827
ITEM: ATOMS id type xs ys zs
1 1 .492872 .989031 .495993
2 1 .991683 .646424 .561479
3 1 .848687 .056386 .537553
4 1 .239903 .008962 .445895
5 1 .010434 .608376 .465909
6 1 .484373 .449278 .988427
7 1 .527201 .462885 .011674
ITEM: TIMESTEP
800
ITEM: NUMBER OF ATOMS
7
ITEM: BOX BOUNDS ss ss ss
-2.9992 3.3031
-2.6999 3.5023
-2.0797 1.8837
ITEM: ATOMS id type xs ys zs
1 1 .489067 .990279 .496795
2 1 .983744 .652377 .555029
3 1 .843105 .054513 .535259
4 1 .243389 .013661 .446777
5 1 .014927 .608304 .466072
6 1 .489174 .455665 .985718
7 1 .525819 .465071 .012079
ITEM: TIMESTEP
850
ITEM: NUMBER OF ATOMS
7
ITEM: BOX BOUNDS ss ss ss
-2.9814 3.3008
-2.7032 3.5044
-2.0713 1.8805
ITEM: ATOMS id type xs ys zs
1 1 .485709 .992009 .499271
2 1 .984742 .650553 .558283
3 1 .840375 .052394 .532557
4 1 .238071 .009216 .444429
5 1 .011824 .608329 .467977
6 1 .486572 .454275 .986849
7 1 .524992 .464039 .014857
ITEM: TIMESTEP
900
ITEM: NUMBER OF ATOMS
7
ITEM: BOX BOUNDS ss ss ss
-2.9838 3.3012
-2.6987 3.5048
-2.0780 1.8799
ITEM: ATOMS id type xs ys zs
1 1 .487846 .991175 .497235
2 1 .983004 .649627 .550491
3 1 .841461 .052717 .535595
4 1 .236529 .011249 .448755
5 1 .011237 .610103 .467679
6 1 .488576 .454901 .984212
7 1 .524469 .462279 .009216
ITEM: TIMESTEP
950
ITEM: NUMBER OF ATOMS
7
ITEM: BOX BOUNDS ss ss ss
-2.9872 3.2828
-2.6979 3.5164
-2.0784 1.8763
ITEM: ATOMS id type xs ys zs
1 1 .491967 .989067 .492581
2 1 .991055 .648723 .552716
3 1 .845137 .058206 .539944
4 1 .240413 .011070 .450676
5 1 .011565 .603872 .469539
6 1 .487279 .454859 .981199
7 1 .527513 .466256 .011667
ITEM: TIMESTEP
1000
ITEM: NUMBER OF ATOMS
7
ITEM: BOX BOUNDS ss ss ss
-2.9771 3.2713
-2.6851 3.5002
-2.0819 1.8905
ITEM: ATOMS id type xs ys zs
1 1 .487827 .986051 .494325
2 1 .993829 .649055 .554767
3 1 .843980 .055951 .535408
4 1 .239151 .011825 .451929
5 1 .009259 .606592 .469204
6 1 .490043 .454360 .986498
7 1 .526908 .462352 .007908
ITEM: TIMESTEP
1
ITEM: NUMBER OF ATOMS
7
ITEM: BOX BOUNDS ss ss ss
-2.9422 3.2547
-2.6431 3.4642
-2.0701 1.8748
ITEM: ATOMS id type xs ys zs
1 1 .487181 .993771 .515310
2 1 .995793 .652007 .557772
3 1 .842207 .047540 .544122
4 1 .230842 .002596 .446108
5 1 .002122 .610428 .463350
6 1 .481598 .450797 .988060
7 1 .525630 .461830 .011824
ITEM: TIMESTEP
50
ITEM: NUMBER OF ATOMS
7
ITEM: BOX BOUNDS ss ss ss
-2.9584 3.2553
-2.6643 3.4642
-2.0701 1.8748
ITEM: ATOMS id type xs ys zs
1 1 .486767 .993272 .518690
2 1 .994868 .652198 .557676
3 1 .841028 .048779 .542029
4 1 .231345 .006068 .444916
5 1 .003663 .611876 .463884
6 1 .481863 .452309 .986358
7 1 .526002 .463092 .009543
ITEM: TIMESTEP
100
ITEM: NUMBER OF ATOMS
7
ITEM: BOX BOUNDS ss ss ss
-2.9717 3.2709
-2.6743 3.4656
-2.0701 1.8748
ITEM: ATOMS id type xs ys zs
1 1 .487445 .993981 .517966
2 1 .993038 .653465 .556880
3 1 .836189 .050876 .542509
4 1 .232410 .007514 .442649
5 1 .005738 .611106 .460213
6 1 .479922 .453832 .986734
7 1 .526030 .463666 .009651
ITEM: TIMESTEP
150
ITEM: NUMBER OF ATOMS
7
ITEM: BOX BOUNDS ss ss ss
-2.9765 3.2698
-2.6836 3.4752
-2.0715 1.8748
ITEM: ATOMS id type xs ys zs
1 1 .489857 .988523 .516410
2 1 .992952 .648800 .559396
3 1 .845695 .054269 .544865
4 1 .235139 .009688 .438597
5 1 .005492 .612803 .459294
6 1 .481891 .453049 .991159
7 1 .526713 .460174 .010980
ITEM: TIMESTEP
200
ITEM: NUMBER OF ATOMS
7
ITEM: BOX BOUNDS ss ss ss
-2.9805 3.2847
-2.6913 3.4793
-2.0701 1.8748
ITEM: ATOMS id type xs ys zs
1 1 .489490 .991443 .518281