ITEM: TIMESTEP
1
ITEM: NUMBER OF ATOMS
7
ITEM: BOX BOUNDS ss ss ss
-2.9330 3.2344
-2.6327 3.4311
-2.0272 1.8315
ITEM: ATOMS id type xs ys zs
1 1 .487843 .999306 .515969
2 1 .999185 .655058 .558710
3 1 .845139 .045967 .545007
4 1 .229992 .000737 .445022
5 1 .000627 .612880 .462193
6 1 .482621 .452433 .999163
7 1 .526898 .463466 .001034
ITEM: TIMESTEP
50
ITEM: NUMBER OF ATOMS
7
ITEM: BOX BOUNDS ss ss ss
-2.9614 3.2564
-2.6568 3.4558
-2.0486 1.8553
ITEM: ATOMS id type xs ys zs
1 1 .488666 .993760 .513497
2 1 .996093 .653522 .557651
3 1 .841022 .049429 .541580
4 1 .231616 .006628 .447569
5 1 .003920 .610098 .461846
6 1 .485270 .453959 .992828
7 1 .525617 .464955 .005144
ITEM: TIMESTEP
100
ITEM: NUMBER OF ATOMS
7
ITEM: BOX BOUNDS ss ss ss
-2.9714 3.2633
-2.6687 3.4611
-2.0564 1.8659
ITEM: ATOMS id type xs ys zs
1 1 .486485 .995495 .515397
2 1 .993258 .654900 .558952
3 1 .842577 .050114 .541204
4 1 .232769 .009041 .448339
5 1 .005878 .609692 .462772
6 1 .485163 .454071 .991467
7 1 .528149 .466619 .008281
ITEM: TIMESTEP
150
ITEM: NUMBER OF ATOMS
7
ITEM: BOX BOUNDS ss ss ss
-2.9776 3.2706
-2.6765 3.4666
-2.0633 1.8741
ITEM: ATOMS id type xs ys zs
1 1 .489934 .992737 .510700
2 1 .993637 .651760 .555270
3 1 .840267 .052579 .537888
4 1 .231690 .011442 .446685
5 1 .007835 .608801 .459010
6 1 .486321 .454625 .991889
7 1 .526311 .463935 .009527
ITEM: TIMESTEP
200
ITEM: NUMBER OF ATOMS
7
ITEM: BOX BOUNDS ss ss ss
-2.9735 3.2800
-2.6856 3.4763
-2.0587 1.8840
ITEM: ATOMS id type xs ys zs
1 1 .487048 .992063 .512321
2 1 .992584 .651734 .554032
3 1 .839213 .053899 .539640
4 1 .230452 .013891 .442551
5 1 .007807 .607182 .456287
6 1 .485214 .456045 .991640
7 1 .527780 .464787 .008790
ITEM: TIMESTEP
250
ITEM: NUMBER OF ATOMS
7
ITEM: BOX BOUNDS ss ss ss
-2.9725 3.2724
-2.6663 3.4765
-2.0627 1.8839
ITEM: ATOMS id type xs ys zs
1 1 .486136 .991806 .514652
2 1 .993023 .649159 .553509
3 1 .838506 .050625 .539043
4 1 .230860 .011720 .447513
5 1 .007914 .605553 .456472
6 1 .485124 .453340 .992199
7 1 .528599 .462753 .010055
ITEM: TIMESTEP
300
ITEM: NUMBER OF ATOMS
7
ITEM: BOX BOUNDS ss ss ss
-2.9771 3.2753
-2.6603 3.4733
-2.0628 1.8817
ITEM: ATOMS id type xs ys zs
1 1 .484040 .992916 .515180
2 1 .991569 .649238 .556891
3 1 .837155 .049017 .538499
4 1 .230719 .010632 .452242
5 1 .010135 .603198 .457741
6 1 .484955 .453100 .992599
7 1 .527010 .463117 .010893
ITEM: TIMESTEP
350
ITEM: NUMBER OF ATOMS
7
ITEM: BOX BOUNDS ss ss ss
-2.9765 3.2731
-2.6558 3.4785
-2.0756 1.8929
ITEM: ATOMS id type xs ys zs
1 1 .488942 .989754 .507780
2 1 .996975 .649677 .553992
3 1 .837662 .047747 .534073
4 1 .226096 .016149 .444776
5 1 .009020 .604999 .462657
6 1 .488916 .454025 .988461
7 1 .529571 .466655 .009705
ITEM: TIMESTEP
400
ITEM: NUMBER OF ATOMS
7
ITEM: BOX BOUNDS ss ss ss
-2.9835 3.2825
-2.6473 3.4692
-2.0672 1.8857
ITEM: ATOMS id type xs ys zs
1 1 .487068 .990941 .509249
2 1 .995296 .649256 .551936
3 1 .835409 .047204 .535176
4 1 .226226 .016196 .444905
5 1 .010219 .604490 .461173
6 1 .489010 .453896 .991204
7 1 .529982 .466648 .006065
ITEM: TIMESTEP
1
ITEM: NUMBER OF ATOMS
7
ITEM: BOX BOUNDS ss ss ss
-2.9436 3.2748
-2.6327 3.4468
-2.0628 1.8770
ITEM: ATOMS id type xs ys zs
1 1 .485547 .996736 .514369
2 1 .992693 .653365 .556230
3 1 .839904 .045856 .542817
4 1 .229819 .000743 .444872
5 1 .002321 .611310 .461702
6 1 .480369 .451256 .987611
7 1 .524272 .462271 .010059
ITEM: TIMESTEP
50
ITEM: NUMBER OF ATOMS
7
ITEM: BOX BOUNDS ss ss ss
-2.9551 3.2748
-2.6589 3.4552
-2.0628 1.8770
ITEM: ATOMS id type xs ys zs
1 1 .487505 .995071 .516144
2 1 .992478 .654924 .553982
3 1 .839614 .049674 .539901
4 1 .228248 .007808 .444113
5 1 .005428 .608722 .460441
6 1 .480525 .453411 .988123
7 1 .526849 .463445 .008317
ITEM: TIMESTEP
100
ITEM: NUMBER OF ATOMS
7
ITEM: BOX BOUNDS ss ss ss
-2.9644 3.2748
-2.6740 3.4668
-2.0628 1.8770
ITEM: ATOMS id type xs ys zs
1 1 .489809 .992961 .517046
2 1 .994228 .652365 .554749
3 1 .841443 .052246 .537649
4 1 .229747 .010772 .443703
5 1 .008794 .608450 .459987
6 1 .483042 .454045 .987115
7 1 .526411 .463095 .008945
ITEM: TIMESTEP
150
ITEM: NUMBER OF ATOMS
7
ITEM: BOX BOUNDS ss ss ss
-2.9755 3.2761
-2.6782 3.4838
-2.0647 1.8770
ITEM: ATOMS id type xs ys zs
1 1 .488501 .989267 .510769
2 1 .991272 .652679 .553005
3 1 .841168 .052952 .542337
4 1 .232212 .012540 .449305
5 1 .008082 .606004 .464704
6 1 .484409 .454024 .989183
7 1 .527898 .462833 .009255
ITEM: TIMESTEP
200
ITEM: NUMBER OF ATOMS
7
ITEM: BOX BOUNDS ss ss ss
-2.9836 3.2748
-2.6840 3.4708
-2.0628 1.8770
ITEM: ATOMS id type xs ys zs
1 1 .488737 .991579 .511958
2 1 .991707 .654344 .555151
3 1 .841687 .054539 .542883
4 1 .233813 .014638 .446627
5 1 .008861 .607219 .460769
6 1 .484821 .455815 .989664
7 1 .529983 .465731 .007462
ITEM: TIMESTEP
250
ITEM: NUMBER OF ATOMS
7
ITEM: BOX BOUNDS ss ss ss
-2.9731 3.2783
-2.6736 3.4812
-2.0630 1.8823
ITEM: ATOMS id type xs ys zs
1 1 .486977 .990790 .511714
2 1 .992124 .652133 .556862
3 1 .840472 .054524 .540173
4 1 .233577 .013126 .443230
5 1 .006126 .604624 .458369
6 1 .484609 .454866 .988317
7 1 .530495 .466589 .007777
ITEM: TIMESTEP
300
ITEM: NUMBER OF ATOMS
7
ITEM: BOX BOUNDS ss ss ss
-2.9794 3.2798
-2.6694 3.4849
-2.0728 1.8949
ITEM: ATOMS id type xs ys zs
1 1 .485727 .988047 .505185
2 1 .991370 .649489 .556002
3 1 .839923 .051186 .542266
4 1 .230643 .010976 .449478
5 1 .008352 .601119 .457208
6 1 .485618 .451126 .986165
7 1 .528112 .461239 .011329
ITEM: TIMESTEP
350
ITEM: NUMBER OF ATOMS
7
ITEM: BOX BOUNDS ss ss ss
-2.9751 3.2765
-2.6784 3.4738
-2.0707 1.8850
ITEM: ATOMS id type xs ys zs
1 1 .486418 .989896 .506026
2 1 .991998 .650387 .558866
3 1 .840431 .051601 .542317
4 1 .229925 .012286 .454865
5 1 .007428 .602440 .456102
6 1 .483449 .453272 .992873
7 1 .528592 .462900 .010983
ITEM: TIMESTEP
400
ITEM: NUMBER OF ATOMS
7
ITEM: BOX BOUNDS ss ss ss
-2.9840 3.2753
-2.6539 3.4749
-2.0765 1.8901
ITEM: ATOMS id type xs ys zs
1 1 .486768 .989417 .506759
2 1 .992262 .650567 .557381
3 1 .841303 .048549 .542152
4 1 .231502 .009582 .455414
5 1 .009936 .600266 .456757
6 1 .485502 .452221 .991308
7 1 .529165 .460429 .012986
ITEM: TIMESTEP
1
ITEM: NUMBER OF ATOMS
7
ITEM: BOX BOUNDS ss ss ss
-2.9541 3.2617
-2.6325 3.4440
-2.0508 1.8774
ITEM: ATOMS id type xs ys zs
1 1 .487447 .997202 .512844
2 1 .994803 .653663 .554826
3 1 .841950 .045864 .541362
4 1 .231601 .000725 .443130
5 1 .004012 .611588 .460012
6 1 .482271 .451458 .987468
7 1 .526200 .462482 .007025
ITEM: TIMESTEP
50
ITEM: NUMBER OF ATOMS
7
ITEM: BOX BOUNDS ss ss ss
-2.9572 3.2617
-2.6633 3.4542
-2.0520 1.8774
ITEM: ATOMS id type xs ys zs
1 1 .486807 .995000 .514485
2 1 .995302 .653874 .554910
3 1 .841250 .050392 .540196
4 1 .230904 .007232 .443059
5 1 .005471 .610513 .459057
6 1 .481938 .453643 .989431
7 1 .526596 .463613 .005932
ITEM: TIMESTEP
100
ITEM: NUMBER OF ATOMS
7
ITEM: BOX BOUNDS ss ss ss
-2.9667 3.2672
-2.6714 3.4666
-2.0689 1.8774
ITEM: ATOMS id type xs ys zs
1 1 .488872 .992737 .515351
2 1 .992486 .653820 .560969
3 1 .842076 .054459 .538563
4 1 .231124 .010873 .443878
5 1 .007149 .611205 .461441
6 1 .482853 .453352 .990279
7 1 .528338 .465325 .010247
ITEM: TIMESTEP
150
ITEM: NUMBER OF ATOMS
7
ITEM: BOX BOUNDS ss ss ss
-2.9753 3.2692
-2.6769 3.4724
-2.0592 1.8774
ITEM: ATOMS id type xs ys zs
1 1 .487629 .990683 .511273
2 1 .994618 .650798 .555874
3 1 .843107 .052319 .536905
4 1 .235349 .009727 .444401
5 1 .008515 .608319 .457011
6 1 .485278 .452736 .988710
7 1 .526183 .466462 .010637
ITEM: TIMESTEP
200
ITEM: NUMBER OF ATOMS
7
ITEM: BOX BOUNDS ss ss ss
-2.9769 3.2727
-2.6807 3.4770
-2.0601 1.8774
ITEM: ATOMS id type xs ys zs
1 1 .489427 .991993 .522582
2 1 .993268 .651306 .559440
3 1 .840610 .053797 .541992
4 1 .231109 .011657 .446902
5 1 .009060 .605442 .457647
6 1 .482291 .452816 .989272
7 1 .528916 .467671 .009662
ITEM: TIMESTEP
250
ITEM: NUMBER OF ATOMS
7
ITEM: BOX BOUNDS ss ss ss
-2.9731 3.2732
-2.6801 3.4833
-2.0576 1.8827
ITEM: ATOMS id type xs ys zs
1 1 .487205 .990651 .519349
2 1 .993518 .651628 .556878
3 1 .839877 .052825 .539369
4 1 .230430 .011656 .443108
5 1 .007776 .604358 .454524
6 1 .482218 .451374 .987220
7 1 .529879 .467430 .009369
ITEM: TIMESTEP
300
ITEM: NUMBER OF ATOMS
7
ITEM: BOX BOUNDS ss ss ss
-2.9709 3.2794
-2.6763 3.4854
-2.0650 1.8834
ITEM: ATOMS id type xs ys zs
1 1 .487553 .991037 .518932
2 1 .992411 .651151 .559237
3 1 .837774 .050881 .537025
4 1 .229614 .011636 .442824
5 1 .007159 .603427 .453332
6 1 .482212 .450912 .988933
7 1 .529389 .466335 .011771
ITEM: TIMESTEP
350
ITEM: NUMBER OF ATOMS
7
ITEM: BOX BOUNDS ss ss ss
-2.9747 3.2754
-2.6739 3.4721
-2.0737 1.8849
ITEM: ATOMS id type xs ys zs
1 1 .487679 .992848 .520490
2 1 .993917 .651070 .561037
3 1 .839589 .051397 .540456
4 1 .230673 .012706 .445596
5 1 .007513 .604123 .453813
6 1 .484167 .452513 .987742
7 1 .529909 .466804 .011163
ITEM: TIMESTEP
400
ITEM: NUMBER OF ATOMS
7
ITEM: BOX BOUNDS ss ss ss
-2.9714 3.2786
-2.6721 3.4664
-2.0664 1.8821
ITEM: ATOMS id type xs ys zs
1 1 .484308 .993786 .517177
2 1 .992768 .653350 .560651
3 1 .839669 .052284 .538262
4 1 .230720 .012431 .440208
5 1 .008244 .604434 .448723
6 1 .483349 .453878 .989429
7 1 .529714 .469514 .011336
ITEM: TIMESTEP
1
ITEM: NUMBER OF ATOMS
7
ITEM: BOX BOUNDS ss ss ss
-2.9621 3.2607
-2.6330 3.4512
-2.0504 1.8694
ITEM: ATOMS id type xs ys zs
1 1 .488192 .996019 .513823
2 1 .994972 .652916 .555914
3 1 .842285 .045887 .542421
4 1 .232628 .000806 .444002
5 1 .005296 .610894 .460901
6 1 .483016 .450980 .989510
7 1 .526888 .461976 .006929
ITEM: TIMESTEP
50
ITEM: NUMBER OF ATOMS
7
ITEM: BOX BOUNDS ss ss ss
-2.9621 3.2607
-2.6609 3.4529
-2.0558 1.8694
ITEM: ATOMS id type xs ys zs
1 1 .488502 .995108 .515954
2 1 .994489 .653214 .555771
3 1 .842185 .049923 .540966
4 1 .231762 .006256 .445415
5 1 .006768 .610947 .460486
6 1 .483002 .454087 .990053
7 1 .527074 .464975 .008637
ITEM: TIMESTEP
100
ITEM: NUMBER OF ATOMS
7
ITEM: BOX BOUNDS ss ss ss
-2.9662 3.2607
-2.6743 3.4701
-2.0564 1.8694
ITEM: ATOMS id type xs ys zs
1 1 .488467 .994065 .516192
2 1 .994096 .649560 .556181
3 1 .841641 .050321 .541729
4 1 .233099 .009399 .447894
5 1 .007895 .609319 .458596
6 1 .483075 .453497 .989527
7 1 .527826 .465794 .008418
ITEM: TIMESTEP
150
ITEM: NUMBER OF ATOMS
7
ITEM: BOX BOUNDS ss ss ss
-2.9758 3.2702
-2.6777 3.4751
-2.0611 1.8746
ITEM: ATOMS id type xs ys zs
1 1 .488747 .991613 .517627
2 1 .994920 .652577 .559074
3 1 .839766 .052041 .539870
4 1 .233600 .010219 .448439
5 1 .006862 .608298 .458269
6 1 .482240 .455909 .991472
7 1 .527034 .464470 .010177
ITEM: TIMESTEP
200
ITEM: NUMBER OF ATOMS
7
ITEM: BOX BOUNDS ss ss ss
-2.9789 3.2746
-2.6817 3.4771
-2.0587 1.8820
ITEM: ATOMS id type xs ys zs
1 1 .488897 .991660 .515425
2 1 .994649 .651216 .556252
3 1 .838095 .052734 .536284
4 1 .234137 .011364 .448325
5 1 .007478 .605261 .455757
6 1 .482502 .456530 .988933
7 1 .526025 .466591 .007764
ITEM: TIMESTEP
250
ITEM: NUMBER OF ATOMS
7
ITEM: BOX BOUNDS ss ss ss
-2.9844 3.2869
-2.6811 3.4861
-2.0623 1.8831
ITEM: ATOMS id type xs ys zs
1 1 .483494 .991213 .514117
2 1 .989224 .650338 .553146
3 1 .838430 .051274 .538898
4 1 .232998 .010989 .444105
5 1 .007395 .604937 .460454
6 1 .482684 .452211 .987814
7 1 .528047 .466434 .007198
ITEM: TIMESTEP
300
ITEM: NUMBER OF ATOMS
7
ITEM: BOX BOUNDS ss ss ss
-2.9828 3.2736
-2.6726 3.4911
-2.0646 1.8863
ITEM: ATOMS id type xs ys zs
1 1 .482133 .988798 .512587
2 1 .991985 .650615 .553543
3 1 .840430 .050038 .539098
4 1 .233056 .009821 .448754
5 1 .006022 .602801 .460033
6 1 .483587 .451639 .987406
7 1 .527739 .465800 .009451
ITEM: TIMESTEP
350
ITEM: NUMBER OF ATOMS
7
ITEM: BOX BOUNDS ss ss ss
-2.9737 3.2672
-2.6654 3.4846
-2.0754 1.8830
ITEM: ATOMS id type xs ys zs
1 1 .482320 .989681 .516104
2 1 .993641 .650708 .555438
3 1 .839656 .048724 .539580
4 1 .230664 .008001 .450328
5 1 .004857 .601351 .463279
6 1 .483344 .451911 .987811
7 1 .528092 .465404 .012369
ITEM: TIMESTEP
400
ITEM: NUMBER OF ATOMS
7
ITEM: BOX BOUNDS ss ss ss
-2.9845 3.2684
-2.6640 3.4908
-2.0783 1.8837
ITEM: ATOMS id type xs ys zs
1 1 .483713 .988401 .513626
2 1 .992907 .649039 .556103
3 1 .839441 .048100 .538641
4 1 .229442 .009447 .453866
5 1 .007248 .603048 .458592
6 1 .484172 .451123 .987307
7 1 .528622 .465497 .014615
ITEM: TIMESTEP
1
ITEM: NUMBER OF ATOMS
7
ITEM: BOX BOUNDS ss ss ss
-2.9693 3.2607
-2.6353 3.4583
-2.0514 1.8694
ITEM: ATOMS id type xs ys zs
1 1 .488774 .994856 .513948
2 1 .994977 .652276 .556039
3 1 .842478 .046173 .542552
4 1 .233505 .001156 .444129
5 1 .006442 .610319 .461046
6 1 .483608 .450640 .989511
7 1 .527430 .461630 .007200
ITEM: TIMESTEP
50
ITEM: NUMBER OF ATOMS
7
ITEM: BOX BOUNDS ss ss ss
-2.9693 3.2607
-2.6663 3.4583
-2.0527 1.8694
ITEM: ATOMS id type xs ys zs
1 1 .487570 .994914 .513806
2 1 .994631 .654345 .557273
3 1 .842196 .050501 .541289
4 1 .232983 .007481 .445556
5 1 .006297 .610916 .460286
6 1 .484569 .453778 .990635
7 1 .528142 .463564 .008228
ITEM: TIMESTEP
100
ITEM: NUMBER OF ATOMS
7
ITEM: BOX BOUNDS ss ss ss
-2.9723 3.2630
-2.6747 3.4678
-2.0608 1.8694
ITEM: ATOMS id type xs ys zs
1 1 .489808 .992021 .516561
2 1 .996693 .652501 .556326
3 1 .843395 .050528 .542085
4 1 .231795 .008367 .446899
5 1 .008770 .610603 .462974
6 1 .485132 .453267 .992422
7 1 .529004 .462611 .010622
ITEM: TIMESTEP
150
ITEM: NUMBER OF ATOMS
7
ITEM: BOX BOUNDS ss ss ss
-2.9747 3.2718
-2.6815 3.4725
-2.0616 1.8801
ITEM: ATOMS id type xs ys zs
1 1 .486967 .992582 .513937
2 1 .992163 .653181 .562627
3 1 .844171 .054848 .541946
4 1 .233734 .009742 .443511
5 1 .006908 .606745 .461926
6 1 .486612 .452522 .990166
7 1 .526170 .464937 .011355
ITEM: TIMESTEP
200
ITEM: NUMBER OF ATOMS
7
ITEM: BOX BOUNDS ss ss ss
-2.9731 3.2742
-2.6847 3.4798
-2.0639 1.8895
ITEM: ATOMS id type xs ys zs
1 1 .486251 .993351 .511396
2 1 .993540 .653423 .555446
3 1 .840167 .054013 .540393
4 1 .235063 .014736 .443012
5 1 .008043 .609687 .464120
6 1 .485660 .454849 .992748
7 1 .527544 .465957 .016315
ITEM: TIMESTEP
250
ITEM: NUMBER OF ATOMS
7
ITEM: BOX BOUNDS ss ss ss
-2.9731 3.2723
-2.6788 3.4798
-2.0606 1.8915
ITEM: ATOMS id type xs ys zs
1 1 .486083 .992604 .508887
2 1 .990395 .654470 .557383
3 1 .846095 .055517 .539729
4 1 .234199 .008405 .441695
5 1 .006772 .600552 .455016
6 1 .480927 .453719 .985265
7 1 .527565 .466162 .011418
ITEM: TIMESTEP
300
ITEM: NUMBER OF ATOMS
7
ITEM: BOX BOUNDS ss ss ss
-2.9748 3.2765
-2.6826 3.4851
-2.0600 1.8938
ITEM: ATOMS id type xs ys zs
1 1 .486057 .990778 .507760
2 1 .991862 .652823 .557259
3 1 .840178 .054110 .538599
4 1 .234679 .010058 .440575
5 1 .007220 .606549 .456670
6 1 .483739 .455146 .987267
7 1 .528209 .465573 .013108
ITEM: TIMESTEP
350
ITEM: NUMBER OF ATOMS
7
ITEM: BOX BOUNDS ss ss ss
-2.9848 3.2768
-2.6823 3.4813
-2.0645 1.8970
ITEM: ATOMS id type xs ys zs
1 1 .489325 .992934 .513923
2 1 .994378 .650209 .555131
3 1 .842377 .052030 .538306
4 1 .235814 .013265 .441448
5 1 .008809 .609013 .457458
6 1 .484933 .454228 .987199
7 1 .530805 .466220 .011901
ITEM: TIMESTEP
400
ITEM: NUMBER OF ATOMS
7
ITEM: BOX BOUNDS ss ss ss
-2.9759 3.2831
-2.6853 3.4909
-2.0656 1.8997
ITEM: ATOMS id type xs ys zs
1 1 .484646 .990558 .511890
2 1 .989480 .653308 .559209
3 1 .844031 .058961 .534727
4 1 .236196 .010060 .441962
5 1 .006083 .600080 .455549
6 1 .481150 .450212 .986507
7 1 .524979 .466663 .013174
ITEM: TIMESTEP
1
ITEM: NUMBER OF ATOMS
7
ITEM: BOX BOUNDS ss ss ss
-2.9693 3.2717
-2.6636 3.4620
-2.0514 1.8929
ITEM: ATOMS id type xs ys zs
1 1 .487910 .994275 .510896
2 1 .993218 .653477 .552733
3 1 .840986 .050566 .539293
4 1 .233107 .005787 .441491
5 1 .006431 .611748 .458293
6 1 .482750 .452902 .983617
7 1 .526489 .463835 .007150
ITEM: TIMESTEP
50
ITEM: NUMBER OF ATOMS
7
ITEM: BOX BOUNDS ss ss ss
-2.9693 3.2717
-2.6636 3.4620
-2.0514 1.8929
ITEM: ATOMS id type xs ys zs
1 1 .486514 .993233 .512488
2 1 .993600 .654374 .552142
3 1 .840523 .052554 .538516
4 1 .233173 .007612 .441843
5 1 .005409 .610092 .457239
6 1 .483892 .453360 .984596
7 1 .526056 .463855 .005903
ITEM: TIMESTEP
100
ITEM: NUMBER OF ATOMS
7
ITEM: BOX BOUNDS ss ss ss
-2.9693 3.2719
-2.6756 3.4679
-2.0626 1.8929
ITEM: ATOMS id type xs ys zs
1 1 .488139 .994669 .510648
2 1 .992543 .651196 .554481
3 1 .841520 .053213 .536188
4 1 .231339 .008446 .441573
5 1 .008089 .609413 .459442
6 1 .483571 .454506 .985975
7 1 .525381 .467294 .007687
ITEM: TIMESTEP
150
ITEM: NUMBER OF ATOMS
7
ITEM: BOX BOUNDS ss ss ss
-2.9745 3.2791
-2.6832 3.4724
-2.0654 1.8929
ITEM: ATOMS id type xs ys zs
1 1 .489255 .995196 .511248
2 1 .993315 .653192 .550688
3 1 .837916 .054694 .536347
4 1 .229658 .011497 .444502
5 1 .006540 .610246 .461495
6 1 .483434 .455604 .985157
7 1 .524089 .468696 .011389
ITEM: TIMESTEP
200
ITEM: NUMBER OF ATOMS
7
ITEM: BOX BOUNDS ss ss ss
-2.9695 3.2717
-2.6833 3.4775
-2.0666 1.8929
ITEM: ATOMS id type xs ys zs
1 1 .489195 .994100 .511051
2 1 .995698 .654752 .553244
3 1 .839263 .057679 .534837
4 1 .229945 .011862 .446569
5 1 .005695 .607936 .457933
6 1 .482874 .457273 .983614
7 1 .523510 .469644 .013055
ITEM: TIMESTEP
250
ITEM: NUMBER OF ATOMS
7
ITEM: BOX BOUNDS ss ss ss
-2.9827 3.2717
-2.6907 3.4817
-2.0685 1.8929
ITEM: ATOMS id type xs ys zs
1 1 .488300 .991048 .512954
2 1 .991712 .651397 .548754
3 1 .839912 .054140 .539169
4 1 .232658 .015853 .439537
5 1 .010153 .607991 .460134
6 1 .483601 .453220 .991061
7 1 .527590 .466241 .011425
ITEM: TIMESTEP
300
ITEM: NUMBER OF ATOMS
7
ITEM: BOX BOUNDS ss ss ss
-2.9819 3.2838
-2.6893 3.4902
-2.0706 1.8929
ITEM: ATOMS id type xs ys zs
1 1 .489021 .992507 .512571
2 1 .992294 .650659 .550344
3 1 .838442 .056584 .536410
4 1 .227748 .014019 .444651
5 1 .007838 .607415 .460480
6 1 .484036 .454697 .985794
7 1 .525169 .467722 .015041
ITEM: TIMESTEP
350
ITEM: NUMBER OF ATOMS
7
ITEM: BOX BOUNDS ss ss ss
-2.9830 3.2816
-2.6792 3.4896
-2.0716 1.8929
ITEM: ATOMS id type xs ys zs
1 1 .487609 .991512 .513467
2 1 .993202 .651492 .552328
3 1 .839703 .053426 .541396
4 1 .228919 .013052 .447183
5 1 .006598 .605764 .459860
6 1 .484042 .452863 .985705
7 1 .525859 .466412 .015776
ITEM: TIMESTEP
400
ITEM: NUMBER OF ATOMS
7
ITEM: BOX BOUNDS ss ss ss
-2.9854 3.2834
-2.6722 3.4911
-2.0691 1.8908
ITEM: ATOMS id type xs ys zs
1 1 .488789 .993618 .513312
2 1 .992409 .650671 .547995
3 1 .838229 .053291 .533043
4 1 .231030 .015880 .442903
5 1 .010893 .604563 .459771
6 1 .487331 .451424 .987602
7 1 .526015 .466455 .012032
ITEM: TIMESTEP
1
ITEM: NUMBER OF ATOMS
7
ITEM: BOX BOUNDS ss ss ss
-2.9621 3.2651
-2.6330 3.4704
-2.0504 1.8712
ITEM: ATOMS id type xs ys zs
1 1 .487841 .992871 .513613
2 1 .994273 .650845 .555688
3 1 .841694 .045740 .542166
4 1 .232472 .000812 .443779
5 1 .005301 .608931 .460682
6 1 .482674 .449534 .989069
7 1 .526507 .460534 .006918
ITEM: TIMESTEP
50
ITEM: NUMBER OF ATOMS
7
ITEM: BOX BOUNDS ss ss ss
-2.9621 3.2651
-2.6611 3.4704
-2.0535 1.8712
ITEM: ATOMS id type xs ys zs
1 1 .488089 .992395 .513673
2 1 .995249 .651750 .557024
3 1 .841073 .050514 .541562
4 1 .231701 .006112 .446003
5 1 .005294 .609976 .460416
6 1 .483485 .452104 .990146
7 1 .526586 .463656 .008510
ITEM: TIMESTEP
100
ITEM: NUMBER OF ATOMS
7
ITEM: BOX BOUNDS ss ss ss
-2.9737 3.2667
-2.6758 3.4729
-2.0623 1.8712
ITEM: ATOMS id type xs ys zs
1 1 .489706 .991549 .513213
2 1 .994858 .652541 .557237
3 1 .840382 .051554 .543530
4 1 .230924 .008122 .444105
5 1 .009043 .607929 .458031
6 1 .483012 .450347 .991821
7 1 .529440 .463235 .011411
ITEM: TIMESTEP
150
ITEM: NUMBER OF ATOMS
7
ITEM: BOX BOUNDS ss ss ss
-2.9713 3.2768
-2.6840 3.4740
-2.0745 1.8712
ITEM: ATOMS id type xs ys zs
1 1 .488235 .989908 .517065
2 1 .993886 .654573 .558055
3 1 .839504 .052795 .544510
4 1 .230825 .010264 .449297
5 1 .008714 .605875 .460206
6 1 .483141 .451986 .993492
7 1 .528533 .465063 .015453
ITEM: TIMESTEP
200
ITEM: NUMBER OF ATOMS
7
ITEM: BOX BOUNDS ss ss ss
-2.9911 3.2801
-2.6850 3.4803
-2.0641 1.8798
ITEM: ATOMS id type xs ys zs
1 1 .489091 .990609 .517969
2 1 .995348 .653376 .559780
3 1 .840418 .054589 .540404
4 1 .231942 .012058 .449070
5 1 .014308 .605101 .459911
6 1 .485175 .452194 .991459
7 1 .529292 .465230 .010385
ITEM: TIMESTEP
250
ITEM: NUMBER OF ATOMS
7
ITEM: BOX BOUNDS ss ss ss
-2.9801 3.2802
-2.6769 3.4712
-2.0671 1.8850
ITEM: ATOMS id type xs ys zs
1 1 .488767 .991518 .516826
2 1 .995128 .654668 .558631
3 1 .840642 .052503 .539221
4 1 .230748 .010258 .451224
5 1 .011499 .604668 .457595
6 1 .485648 .451505 .989900
7 1 .529048 .465381 .012210
ITEM: TIMESTEP
300
ITEM: NUMBER OF ATOMS
7
ITEM: BOX BOUNDS ss ss ss
-2.9761 3.2859
-2.6779 3.4704
-2.0598 1.8829
ITEM: ATOMS id type xs ys zs
1 1 .485840 .992225 .512015
2 1 .994226 .657861 .560353
3 1 .839261 .051601 .535577
4 1 .232659 .012663 .449737
5 1 .012539 .605109 .458634
6 1 .486222 .450787 .992617
7 1 .531363 .466509 .010903
ITEM: TIMESTEP
350
ITEM: NUMBER OF ATOMS
7
ITEM: BOX BOUNDS ss ss ss
-2.9804 3.2919
-2.6830 3.4718
-2.0648 1.8932
ITEM: ATOMS id type xs ys zs
1 1 .487667 .991755 .516200
2 1 .992955 .656049 .558651
3 1 .840137 .053581 .537867
4 1 .231871 .013383 .447108
5 1 .010655 .606193 .458611
6 1 .484757 .452904 .989385
7 1 .531557 .465469 .015914
ITEM: TIMESTEP
400
ITEM: NUMBER OF ATOMS
7
ITEM: BOX BOUNDS ss ss ss
-2.9744 3.2872
-2.6754 3.4739
-2.0692 1.8879
ITEM: ATOMS id type xs ys zs
1 1 .488483 .991049 .513978
2 1 .994375 .652468 .557165
3 1 .839218 .049913 .538101
4 1 .228404 .010722 .449279
5 1 .011059 .604544 .457281
6 1 .484223 .452701 .989706
7 1 .530443 .464462 .014626
ITEM: TIMESTEP
1
ITEM: NUMBER OF ATOMS
7
ITEM: BOX BOUNDS ss ss ss
-2.9621 3.2740
-2.6506 3.4636
-2.0556 1.8694
ITEM: ATOMS id type xs ys zs
1 1 .487139 .994015 .514501
2 1 .992852 .652595 .556493
3 1 .840493 .048534 .543031
4 1 .232132 .003685 .444734
5 1 .005276 .610773 .461619
6 1 .481971 .451631 .989519
7 1 .525758 .462581 .008247
ITEM: TIMESTEP
50
ITEM: NUMBER OF ATOMS
7
ITEM: BOX BOUNDS ss ss ss
-2.9621 3.2740
-2.6601 3.4636
-2.0556 1.8694
ITEM: ATOMS id type xs ys zs
1 1 .486703 .993202 .514062
2 1 .993287 .653140 .557038
3 1 .839588 .050592 .541838
4 1 .230726 .006184 .446418
5 1 .004976 .610201 .460658
6 1 .482180 .452185 .990625
7 1 .527364 .462919 .007782
ITEM: TIMESTEP
100
ITEM: NUMBER OF ATOMS
7
ITEM: BOX BOUNDS ss ss ss
-2.9720 3.2740
-2.6753 3.4649
-2.0577 1.8694
ITEM: ATOMS id type xs ys zs
1 1 .487101 .994013 .513355
2 1 .993937 .654256 .557876
3 1 .840616 .052306 .543284
4 1 .234098 .009558 .445318
5 1 .006687 .610870 .459739
6 1 .482041 .454624 .990213
7 1 .525830 .466700 .008758
ITEM: TIMESTEP
150
ITEM: NUMBER OF ATOMS
7
ITEM: BOX BOUNDS ss ss ss
-2.9843 3.2740
-2.6918 3.4845
-2.0612 1.8726
ITEM: ATOMS id type xs ys zs
1 1 .488953 .991570 .515206
2 1 .994484 .651953 .556110
3 1 .840163 .054386 .542599
4 1 .231838 .009569 .446954
5 1 .008647 .609842 .460234
6 1 .485871 .452100 .991790
7 1 .528064 .467948 .010813
ITEM: TIMESTEP
200
ITEM: NUMBER OF ATOMS
7
ITEM: BOX BOUNDS ss ss ss
-2.9774 3.2740
-2.6892 3.4794
-2.0607 1.8825
ITEM: ATOMS id type xs ys zs
1 1 .489687 .990962 .510872
2 1 .994337 .652066 .552980
3 1 .842392 .054276 .538701
4 1 .231013 .011205 .442373
5 1 .006249 .610317 .459055
6 1 .483120 .454413 .987726
7 1 .526744 .464745 .012621
ITEM: TIMESTEP
250
ITEM: NUMBER OF ATOMS
7
ITEM: BOX BOUNDS ss ss ss
-2.9866 3.2741
-2.6918 3.4784
-2.0664 1.8902
ITEM: ATOMS id type xs ys zs
1 1 .489916 .992064 .506248
2 1 .996020 .652270 .551088
3 1 .845001 .055115 .536834
4 1 .236553 .011433 .442027
5 1 .010180 .610072 .457642
6 1 .484445 .453567 .981600
7 1 .530207 .466601 .010737
ITEM: TIMESTEP
300
ITEM: NUMBER OF ATOMS
7
ITEM: BOX BOUNDS ss ss ss
-2.9938 3.2794
-2.6936 3.4879
-2.0619 1.8785
ITEM: ATOMS id type xs ys zs
1 1 .489035 .991525 .506668
2 1 .994521 .651508 .551286
3 1 .844448 .055160 .539409
4 1 .237295 .012310 .445170
5 1 .011152 .607777 .458128
6 1 .483500 .452752 .986913
7 1 .531511 .468171 .011601
ITEM: TIMESTEP
350
ITEM: NUMBER OF ATOMS
7
ITEM: BOX BOUNDS ss ss ss
-2.9910 3.2776
-2.6921 3.4874
-2.0626 1.8851
ITEM: ATOMS id type xs ys zs
1 1 .491300 .991247 .506918
2 1 .994154 .650279 .547559
3 1 .844618 .055783 .532099
4 1 .236994 .011091 .438763
5 1 .010424 .606103 .456713
6 1 .483569 .452584 .983358
7 1 .531595 .465786 .010885
ITEM: TIMESTEP
400
ITEM: NUMBER OF ATOMS
7
ITEM: BOX BOUNDS ss ss ss
-3.0029 3.2905
-2.6876 3.4854
-2.0573 1.8894
ITEM: ATOMS id type xs ys zs
1 1 .493081 .991253 .506696
2 1 .991691 .650907 .549006
3 1 .843749 .054822 .534277
4 1 .237972 .011547 .439312
5 1 .013588 .606084 .457011
6 1 .485384 .452429 .982063
7 1 .530558 .464382 .010167
ITEM: TIMESTEP
450
ITEM: NUMBER OF ATOMS
7
ITEM: BOX BOUNDS ss ss ss
-2.9740 3.2886
-2.6853 3.4786
-2.0602 1.8802
ITEM: ATOMS id type xs ys zs
1 1 .486434 .992835 .509765
2 1 .992334 .651587 .551478
3 1 .843353 .053850 .532555
4 1 .234103 .007516 .437951
5 1 .009654 .605788 .458654
6 1 .483306 .451746 .985032
7 1 .526702 .466807 .012679
ITEM: TIMESTEP
500
ITEM: NUMBER OF ATOMS
7
ITEM: BOX BOUNDS ss ss ss
-2.9878 3.2920
-2.6921 3.4802
-2.0662 1.8921
ITEM: ATOMS id type xs ys zs
1 1 .488868 .992328 .504994
2 1 .990887 .652968 .550181
3 1 .844923 .055614 .537086
4 1 .236056 .012254 .440850
5 1 .011470 .607703 .459979
6 1 .486594 .452870 .981898
7 1 .527845 .465108 .008060
ITEM: TIMESTEP
550
ITEM: NUMBER OF ATOMS
7
ITEM: BOX BOUNDS ss ss ss
-2.9891 3.3009
-2.6936 3.4856
-2.0767 1.8821
ITEM: ATOMS id type xs ys zs
1 1 .488035 .990931 .500427
2 1 .987774 .653411 .558631
3 1 .843958 .054764 .539468
4 1 .234646 .011555 .446648
5 1 .010459 .607636 .464035
6 1 .486724 .454419 .986748
7 1 .526344 .464899 .012362
ITEM: TIMESTEP
600
ITEM: NUMBER OF ATOMS
7
ITEM: BOX BOUNDS ss ss ss
-2.9860 3.2948
-2.6983 3.4862
-2.0738 1.8682
ITEM: ATOMS id type xs ys zs
1 1 .486728 .992426 .506241
2 1 .990972 .653715 .556799
3 1 .845476 .056226 .538411
4 1 .236178 .014503 .447855
5 1 .011696 .609135 .470245
6 1 .488653 .454826 .990658
7 1 .528739 .466056 .009678
ITEM: TIMESTEP
650
ITEM: NUMBER OF ATOMS
7
ITEM: BOX BOUNDS ss ss ss
-2.9917 3.2833
-2.6997 3.4887
-2.0717 1.8716
ITEM: ATOMS id type xs ys zs
1 1 .489813 .993354 .503688
2 1 .991971 .653755 .555078
3 1 .845004 .056744 .539328
4 1 .237998 .014371 .449681
5 1 .010211 .609089 .465238
6 1 .489041 .455178 .990019
7 1 .528157 .466996 .013155
ITEM: TIMESTEP
700
ITEM: NUMBER OF ATOMS
7
ITEM: BOX BOUNDS ss ss ss
-2.9827 3.2906
-2.6871 3.4886
-2.0729 1.8766
ITEM: ATOMS id type xs ys zs
1 1 .488744 .994669 .501005
2 1 .990756 .652829 .555494
3 1 .845033 .054543 .536746
4 1 .237816 .012095 .446811
5 1 .012047 .608951 .462792
6 1 .486932 .454368 .988514
7 1 .526889 .466670 .010795
ITEM: TIMESTEP
750
ITEM: NUMBER OF ATOMS
7
ITEM: BOX BOUNDS ss ss ss
-2.9918 3.2977
-2.6994 3.4957
-2.0767 1.8827
ITEM: ATOMS id type xs ys zs
1 1 .487825 .991873 .497819
2 1 .987068 .651721 .554257
3 1 .843718 .054745 .533437
4 1 .240434 .013863 .448271
5 1 .014221 .608221 .465632
6 1 .487684 .456140 .985276
7 1 .527075 .465943 .010923
ITEM: TIMESTEP
800
ITEM: NUMBER OF ATOMS
7
ITEM: BOX BOUNDS ss ss ss
-2.9992 3.3031
-2.6999 3.5023
-2.0797 1.8837
ITEM: ATOMS id type xs ys zs
1 1 .488911 .991056 .495692
2 1 .986202 .651145 .550304
3 1 .842788 .055950 .533378
4 1 .238701 .015275 .451855
5 1 .016116 .607503 .467458
6 1 .488029 .456891 .985093
7 1 .527469 .464455 .013050
ITEM: TIMESTEP
850
ITEM: NUMBER OF ATOMS
7
ITEM: BOX BOUNDS ss ss ss
-2.9814 3.3008
-2.7032 3.5044
-2.0713 1.8805
ITEM: ATOMS id type xs ys zs
1 1 .487163 .988631 .498156
2 1 .987287 .651274 .551827
3 1 .843399 .057539 .534429
4 1 .235755 .014678 .449807
5 1 .013113 .606428 .465607
6 1 .485118 .457406 .989010
7 1 .526364 .462786 .009168
ITEM: TIMESTEP
900
ITEM: NUMBER OF ATOMS
7
ITEM: BOX BOUNDS ss ss ss
-2.9838 3.3012
-2.6987 3.5048
-2.0780 1.8799
ITEM: ATOMS id type xs ys zs
1 1 .486110 .989233 .495598
2 1 .987907 .649497 .552014
3 1 .841613 .055152 .537663
4 1 .236159 .013949 .452980
5 1 .012638 .607183 .467014
6 1 .486416 .456678 .989050
7 1 .526701 .464053 .011086
ITEM: TIMESTEP
950
ITEM: NUMBER OF ATOMS
7
ITEM: BOX BOUNDS ss ss ss
-2.9872 3.2828
-2.6979 3.5164
-2.0784 1.8763
ITEM: ATOMS id type xs ys zs
1 1 .486139 .985789 .494813
2 1 .991763 .649947 .553816
3 1 .843250 .056191 .538261
4 1 .239230 .013560 .451997
5 1 .012028 .603308 .470018
6 1 .488878 .454573 .991420
7 1 .526853 .462289 .008233
ITEM: TIMESTEP
1000
ITEM: NUMBER OF ATOMS
7
ITEM: BOX BOUNDS ss ss ss
-2.9771 3.2713
-2.6851 3.5002
-2.0819 1.8905
ITEM: ATOMS id type xs ys zs
1 1 .489992 .989499 .492976
2 1 .995300 .649583 .549893
3 1 .842275 .051631 .534827
4 1 .234888 .012698 .456303
5 1 .010366 .608183 .469399
6 1 .490147 .457162 .988289
7 1 .525957 .461277 .013247
ITEM: TIMESTEP
1
ITEM: NUMBER OF ATOMS
7
ITEM: BOX BOUNDS ss ss ss
-2.9422 3.2547
-2.6431 3.4642
-2.0701 1.8748
ITEM: ATOMS id type xs ys zs
1 1 .487007 .993900 .515580
2 1 .995928 .652098 .557402
3 1 .842602 .047356 .543983
4 1 .230384 .002466 .446185
5 1 .002106 .610204 .462988
6 1 .481817 .450905 .988187
7 1 .525876 .461877 .011908
ITEM: TIMESTEP
50
ITEM: NUMBER OF ATOMS
7
ITEM: BOX BOUNDS ss ss ss
-2.9584 3.2553
-2.6643 3.4642
-2.0701 1.8748
ITEM: ATOMS id type xs ys zs
1 1 .488763 .994418 .515612
2 1 .994018 .650545 .556736
3 1 .841924 .049604 .540642
4 1 .231866 .007228 .445976
5 1 .003939 .610919 .461402
6 1 .482672 .453328 .988578
7 1 .527796 .464512 .011144
ITEM: TIMESTEP
100
ITEM: NUMBER OF ATOMS
7
ITEM: BOX BOUNDS ss ss ss
-2.9717 3.2709
-2.6743 3.4656
-2.0701 1.8748
ITEM: ATOMS id type xs ys zs
1 1 .488055 .994042 .515698
2 1 .992271 .655461 .559048
3 1 .843308 .052585 .541338
4 1 .230799 .008806 .445464
5 1 .006574 .611757 .461259
6 1 .483744 .452597 .990342
7 1 .528081 .466377 .013953
ITEM: TIMESTEP
150
ITEM: NUMBER OF ATOMS
7
ITEM: BOX BOUNDS ss ss ss
-2.9765 3.2698
-2.6836 3.4752
-2.0715 1.8748
ITEM: ATOMS id type xs ys zs
1 1 .488081 .994336 .511550
2 1 .995865 .653287 .557834
3 1 .842564 .052430 .539276
4 1 .233937 .011993 .444586
5 1 .005806 .610831 .458309
6 1 .485922 .453503 .990953
7 1 .529312 .463211 .017095
ITEM: TIMESTEP
200
ITEM: NUMBER OF ATOMS
7
ITEM: BOX BOUNDS ss ss ss
-2.9805 3.2847
-2.6913 3.4793
-2.0701 1.8748
ITEM: ATOMS id type xs ys zs
1 1 .488655 .990949 .513360