ITEM: TIMESTEP
1801
ITEM: NUMBER OF ATOMS
16
ITEM: BOX BOUNDS xy xz yz  pp  pp  pp
     -0.300000      4.040544      0.000000
     -0.300000      4.040544      0.000000
     -0.300000      2.769228      0.000000
ITEM: ATOMS id type xs ys zs
     1     1      0.218780      0.221705      0.171122
     2     1      0.651724      0.262949      0.617549
     3     1      0.318948      0.801244      0.514246
     4     1      0.823196      0.712767      1.036682
     5     2      0.861296      1.029208      0.193359
     6     2      0.531282      1.017424      1.047595
     7     2      0.990971      0.463671      0.236060
     8     2      0.503745      0.701180      1.040043
     9     2      0.921600      0.229724      0.765906
    10     2      0.387023      1.053288      0.760874
    11     2      0.169014      0.493550      0.702911
    12     2      0.498034      0.522445      0.445649
    13     2      0.160520      0.329847      0.656592
    14     2      0.857537      0.151975      0.104586
    15     2      0.323040      0.670470      1.045802
    16     2      0.922935      0.723287      0.581179
ITEM: TIMESTEP
1802
ITEM: NUMBER OF ATOMS
16
ITEM: BOX BOUNDS xy xz yz  pp  pp  pp
     -0.300000      4.040544      0.000000
     -0.300000      4.040544      0.000000
     -0.300000      2.769228      0.000000
ITEM: ATOMS id type xs ys zs
     1     1      0.219604      0.221898      0.171129
     2     1      0.650918      0.263012      0.617530
     3     1      0.319098      0.801137      0.513522
     4     1      0.823655      0.712233      1.036310
     5     2      0.861732      1.028965      0.193894
     6     2      0.531564      1.017290      1.048285
     7     2      0.990789      0.463827      0.236228
     8     2      0.503879      0.701007      1.040133
     9     2      0.922221      0.230318      0.766192
    10     2      0.386437      1.053636      0.761065
    11     2      0.168675      0.493593      0.702802
    12     2      0.498458      0.521965      0.445652
    13     2      0.160567      0.329350      0.656362
    14     2      0.857936      0.151715      0.105043
    15     2      0.322763      0.670437      1.046098
    16     2      0.923083      0.723757      0.580883
ITEM: TIMESTEP
1803
ITEM: NUMBER OF ATOMS
16
ITEM: BOX BOUNDS xy xz yz  pp  pp  pp
     -0.300000      4.040544      0.000000
     -0.300000      4.040544      0.000000
     -0.300000      2.769228      0.000000
ITEM: ATOMS id type xs ys zs
     1     1      0.219467      0.222391      0.170605
     2     1      0.650791      0.262967      0.617580
     3     1      0.319520      0.800963      0.513533
     4     1      0.823724      0.711215      1.036043
     5     2      0.861509      1.029167      0.193294
     6     2      0.531483      1.017361      1.048792
     7     2      0.991557      0.463484      0.236698
     8     2      0.504341      0.700931      1.040264
     9     2      0.922893      0.230424      0.766487
    10     2      0.386684      1.053670      0.760396
    11     2      0.168544      0.494200      0.702974
    12     2      0.498703      0.522093      0.445054
    13     2      0.161392      0.329120      0.656083
    14     2      0.857863      0.152221      0.104937
    15     2      0.322777      0.670642      1.046234
    16     2      0.923571      0.723333      0.580729
ITEM: TIMESTEP
1804
ITEM: NUMBER OF ATOMS
16
ITEM: BOX BOUNDS xy xz yz  pp  pp  pp
     -0.300000      4.040544      0.000000
     -0.300000      4.040544      0.000000
     -0.300000      2.769228      0.000000
ITEM: ATOMS id type xs ys zs
     1     1      0.219439      0.222703      0.170732
     2     1      0.650517      0.262865      0.617012
     3     1      0.319544      0.800401      0.513184
     4     1      0.823250      0.710892      1.036186
     5     2      0.861395      1.029362      0.193175
     6     2      0.531180      1.017334      1.049378
     7     2      0.990824      0.463455      0.236930
     8     2      0.504588      0.700743      1.039919
     9     2      0.923082      0.230333      0.766482
    10     2      0.386876      1.053909      0.760779
    11     2      0.168610      0.493753      0.702901
    12     2      0.498231      0.521718      0.445416
    13     2      0.161121      0.328453      0.654293
    14     2      0.858420      0.152563      0.104630
    15     2      0.322387      0.671169      1.045874
    16     2      0.923045      0.723157      0.580525
ITEM: TIMESTEP
1805
ITEM: NUMBER OF ATOMS
16
ITEM: BOX BOUNDS xy xz yz  pp  pp  pp
     -0.300000      4.040544      0.000000
     -0.300000      4.040544      0.000000
     -0.300000      2.769228      0.000000
ITEM: ATOMS id type xs ys zs
     1     1      0.219836      0.222620      0.170491
     2     1      0.650543      0.263251      0.616754
     3     1      0.318975      0.800217      0.512620
     4     1      0.823318      0.711193      1.036239
     5     2      0.861377      1.029519      0.193121
     6     2      0.531346      1.017330      1.049575
     7     2      0.991167      0.463045      0.236052
     8     2      0.504773      0.700507      1.038938
     9     2      0.923586      0.230690      0.767000
    10     2      0.387188      1.053783      0.760994
    11     2      0.168603      0.493627      0.702468
    12     2      0.497914      0.521549      0.445471
    13     2      0.161514      0.327960      0.654800
    14     2      0.858375      0.152779      0.103582
    15     2      0.322854      0.671002      1.045104
    16     2      0.922693      0.723335      0.580409
ITEM: TIMESTEP
1806
ITEM: NUMBER OF ATOMS
16
ITEM: BOX BOUNDS xy xz yz  pp  pp  pp
     -0.300000      4.040544      0.000000
     -0.300000      4.040544      0.000000
     -0.300000      2.769228      0.000000
ITEM: ATOMS id type xs ys zs
     1     1      0.220010      0.223170      0.170781
     2     1      0.650416      0.263271      0.616592
     3     1      0.318786      0.799972      0.512342
     4     1      0.823690      0.711213      1.036734
     5     2      0.861230      1.029106      0.193321
     6     2      0.531442      1.017667      1.050133
     7     2      0.991362      0.462932      0.235569
     8     2      0.505018      0.700686      1.038919
     9     2      0.924168      0.231176      0.766859
    10     2      0.386972      1.054373      0.761764
    11     2      0.168170      0.493598      0.702183
    12     2      0.498133      0.521601      0.445248
    13     2      0.161637      0.327561      0.654116
    14     2      0.857894      0.152701      0.103124
    15     2      0.322673      0.671502      1.045167
    16     2      0.922432      0.723712      0.579943
ITEM: TIMESTEP
1807
ITEM: NUMBER OF ATOMS
16
ITEM: BOX BOUNDS xy xz yz  pp  pp  pp
     -0.300000      4.040544      0.000000
     -0.300000      4.040544      0.000000
     -0.300000      2.769228      0.000000
ITEM: ATOMS id type xs ys zs
     1     1      0.220351      0.223154      0.170610
     2     1      0.650508      0.263497      0.615891
     3     1      0.318646      0.800317      0.513125
     4     1      0.823176      0.710472      1.036673
     5     2      0.861378      1.029407      0.193015
     6     2      0.530767      1.017686      1.050569
     7     2      0.991593      0.463356      0.235859
     8     2      0.505115      0.700794      1.037856
     9     2      0.924697      0.230940      0.767000
    10     2      0.387045      1.054051      0.762339
    11     2      0.168060      0.493259      0.701603
    12     2      0.498710      0.521980      0.445205
    13     2      0.161916      0.327478      0.653828
    14     2      0.857902      0.152944      0.103747
    15     2      0.322858      0.672151      1.044940
    16     2      0.922943      0.724284      0.580302
ITEM: TIMESTEP
1808
ITEM: NUMBER OF ATOMS
16
ITEM: BOX BOUNDS xy xz yz  pp  pp  pp
     -0.300000      4.040544      0.000000
     -0.300000      4.040544      0.000000
     -0.300000      2.769228      0.000000
ITEM: ATOMS id type xs ys zs
     1     1      0.220428      0.223660      0.170904
     2     1      0.650071      0.264191      0.615774
     3     1      0.318773      0.799774      0.513455
     4     1      0.822969      0.710705      1.036357
     5     2      0.861107      1.029500      0.192355
     6     2      0.530419      1.017818      1.050671
     7     2      0.991554      0.463217      0.235750
     8     2      0.504866      0.700766      1.037952
     9     2      0.925312      0.230232      0.766853
    10     2      0.387675      1.054322      0.762289
    11     2      0.167625      0.493512      0.701845
    12     2      0.498857      0.522252      0.445846
    13     2      0.161961      0.327233      0.653602
    14     2      0.857778      0.152699      0.103677
    15     2      0.322782      0.672467      1.044434
    16     2      0.922482      0.723808      0.579836
ITEM: TIMESTEP
1809
ITEM: NUMBER OF ATOMS
16
ITEM: BOX BOUNDS xy xz yz  pp  pp  pp
     -0.300000      4.040544      0.000000
     -0.300000      4.040544      0.000000
     -0.300000      2.769228      0.000000
ITEM: ATOMS id type xs ys zs
     1     1      0.220508      0.223791      0.170342
     2     1      0.650378      0.264755      0.615551
     3     1      0.317934      0.798864      0.512837
     4     1      0.822959      0.710520      1.036226
     5     2      0.861354      1.029956      0.192131
     6     2      0.529955      1.017867      1.050567
     7     2      0.991537      0.463388      0.235810
     8     2      0.504171      0.700856      1.037634
     9     2      0.925752      0.230462      0.766554
    10     2      0.387818      1.054769      0.762319
    11     2      0.166921      0.493458      0.701189
    12     2      0.498826      0.522256      0.445548
    13     2      0.162139      0.326818      0.653727
    14     2      0.857752      0.152757      0.103871
    15     2      0.323107      0.672549      1.044783
    16     2      0.922292      0.724119      0.579777
ITEM: TIMESTEP
1810
ITEM: NUMBER OF ATOMS
16
ITEM: BOX BOUNDS xy xz yz  pp  pp  pp
     -0.300000      4.040544      0.000000
     -0.300000      4.040544      0.000000
     -0.300000      2.769228      0.000000
ITEM: ATOMS id type xs ys zs
     1     1      0.220791      0.224007      0.170404
     2     1      0.650268      0.264288      0.614276
     3     1      0.317634      0.798050      0.513298
     4     1      0.823331      0.709793      1.035906
     5     2      0.861127      1.030462      0.192696
     6     2      0.529999      1.017878      1.050506
     7     2      0.992095      0.463593      0.235856
     8     2      0.503822      0.701149      1.037820
     9     2      0.925513      0.230388      0.766285
    10     2      0.387720      1.055318      0.762390
    11     2      0.166547      0.493608      0.701405
    12     2      0.499044      0.521641      0.445460
    13     2      0.162460      0.326308      0.653537
    14     2      0.857927      0.153266      0.103973
    15     2      0.322655      0.673220      1.044159
    16     2      0.922763      0.724035      0.579790
ITEM: TIMESTEP
1811
ITEM: NUMBER OF ATOMS
16
ITEM: BOX BOUNDS xy xz yz  pp  pp  pp
     -0.300000      4.040544      0.000000
     -0.300000      4.040544      0.000000
     -0.300000      2.769228      0.000000
ITEM: ATOMS id type xs ys zs
     1     1      0.220286      0.224144      0.169829
     2     1      0.649708      0.264236      0.613615
     3     1      0.317338      0.797626      0.512828
     4     1      0.823401      0.709325      1.036326
     5     2      0.861777      1.030166      0.192758
     6     2      0.529931      1.017897      1.050325
     7     2      0.992135      0.463947      0.235399
     8     2      0.504164      0.701622      1.038266
     9     2      0.926130      0.230491      0.766697
    10     2      0.388431      1.055808      0.762381
    11     2      0.166058      0.493674      0.701169
    12     2      0.499105      0.521466      0.444848
    13     2      0.162383      0.326201      0.653567
    14     2      0.857310      0.153504      0.103571
    15     2      0.322392      0.673723      1.044013
    16     2      0.922964      0.724405      0.580107
ITEM: TIMESTEP
1812
ITEM: NUMBER OF ATOMS
16
ITEM: BOX BOUNDS xy xz yz  pp  pp  pp
     -0.300000      4.040544      0.000000
     -0.300000      4.040544      0.000000
     -0.300000      2.769228      0.000000
ITEM: ATOMS id type xs ys zs
     1     1      0.220410      0.223893      0.170359
     2     1      0.650335      0.264049      0.613420
     3     1      0.317013      0.797038      0.513683
     4     1      0.822891      0.709525      1.036434
     5     2      0.861453      1.030013      0.192247
     6     2      0.530287      1.017941      1.050861
     7     2      0.992413      0.463392      0.236160
     8     2      0.504369      0.701160      1.038902
     9     2      0.926109      0.230399      0.766857
    10     2      0.388099      1.055787      0.762350
    11     2      0.166512      0.493737      0.700435
    12     2      0.499906      0.520923      0.445453
    13     2      0.163095      0.326082      0.653874
    14     2      0.856882      0.153266      0.103206
    15     2      0.322176      0.674651      1.043497
    16     2      0.922560      0.725005      0.579945
ITEM: TIMESTEP
1813
ITEM: NUMBER OF ATOMS
16
ITEM: BOX BOUNDS xy xz yz  pp  pp  pp
     -0.300000      4.040544      0.000000
     -0.300000      4.040544      0.000000
     -0.300000      2.769228      0.000000
ITEM: ATOMS id type xs ys zs
     1     1      0.220544      0.223741      0.170473
     2     1      0.650094      0.264490      0.613081
     3     1      0.316888      0.796438      0.513843
     4     1      0.822508      0.709015      1.036463
     5     2      0.861479      1.029940      0.191756
     6     2      0.529708      1.018136      1.050508
     7     2      0.992240      0.463740      0.236644
     8     2      0.504628      0.701390      1.039554
     9     2      0.926207      0.230050      0.767075
    10     2      0.387463      1.056407      0.763009
    11     2      0.166872      0.494066      0.700126
    12     2      0.500199      0.521198      0.445662
    13     2      0.163470      0.325956      0.655179
    14     2      0.856502      0.153213      0.103028
    15     2      0.322015      0.674736      1.042986
    16     2      0.922756      0.725080      0.580103
ITEM: TIMESTEP
1814
ITEM: NUMBER OF ATOMS
16
ITEM: BOX BOUNDS xy xz yz  pp  pp  pp
     -0.300000      4.040544      0.000000
     -0.300000      4.040544      0.000000
     -0.300000      2.769228      0.000000
ITEM: ATOMS id type xs ys zs
     1     1      0.220685      0.223473      0.171465
     2     1      0.650346      0.263705      0.612828
     3     1      0.316272      0.796104      0.513968
     4     1      0.822243      0.708926      1.036971
     5     2      0.861648      1.030278      0.191657
     6     2      0.529525      1.019104      1.050720
     7     2      0.992374      0.463608      0.237005
     8     2      0.504675      0.701788      1.039640
     9     2      0.926630      0.230139      0.766432
    10     2      0.386888      1.056524      0.762566
    11     2      0.167052      0.493526      0.699507
    12     2      0.499744      0.521204      0.445592
    13     2      0.163692      0.325837      0.654866
    14     2      0.856793      0.153577      0.103388
    15     2      0.322235      0.675262      1.042825
    16     2      0.922804      0.725015      0.580036
ITEM: TIMESTEP
1815
ITEM: NUMBER OF ATOMS
16
ITEM: BOX BOUNDS xy xz yz  pp  pp  pp
     -0.300000      4.040544      0.000000
     -0.300000      4.040544      0.000000
     -0.300000      2.769228      0.000000
ITEM: ATOMS id type xs ys zs
     1     1      0.221133      0.223598      0.172513
     2     1      0.650400      0.264026      0.612332
     3     1      0.316491      0.796546      0.514493
     4     1      0.822539      0.708662      1.037048
     5     2      0.861547      1.030484      0.190526
     6     2      0.529486      1.019012      1.050678
     7     2      0.992361      0.462797      0.236823
     8     2      0.504634      0.701302      1.039941
     9     2      0.926972      0.229793      0.766249
    10     2      0.386528      1.056655      0.762912
    11     2      0.166684      0.493430      0.699075
    12     2      0.500190      0.521209      0.445225
    13     2      0.163768      0.325316      0.654831
    14     2      0.857351      0.153374      0.102925
    15     2      0.321876      0.675305      1.043200
    16     2      0.922995      0.725129      0.579826
ITEM: TIMESTEP
1816
ITEM: NUMBER OF ATOMS
16
ITEM: BOX BOUNDS xy xz yz  pp  pp  pp
     -0.300000      4.040544      0.000000
     -0.300000      4.040544      0.000000
     -0.300000      2.769228      0.000000
ITEM: ATOMS id type xs ys zs
     1     1      0.221282      0.223379      0.172292
     2     1      0.650210      0.263864      0.613035
     3     1      0.316529      0.796121      0.515048
     4     1      0.822306      0.708756      1.036245
     5     2      0.861148      1.029869      0.190492
     6     2      0.528566      1.019202      1.050614
     7     2      0.992452      0.462989      0.237052
     8     2      0.504429      0.701349      1.039326
     9     2      0.927239      0.229449      0.765371
    10     2      0.385536      1.056701      0.762626
    11     2      0.166570      0.493283      0.698522
    12     2      0.499994      0.521274      0.445375
    13     2      0.164151      0.325728      0.654829
    14     2      0.857235      0.153378      0.102868
    15     2      0.321894      0.675835      1.043792
    16     2      0.922743      0.725120      0.580293
ITEM: TIMESTEP
1817
ITEM: NUMBER OF ATOMS
16
ITEM: BOX BOUNDS xy xz yz  pp  pp  pp
     -0.300000      4.040544      0.000000
     -0.300000      4.040544      0.000000
     -0.300000      2.769228      0.000000
ITEM: ATOMS id type xs ys zs
     1     1      0.221561      0.223350      0.172207
     2     1      0.650294      0.263632      0.612784
     3     1      0.316678      0.795608      0.515887
     4     1      0.822181      0.707909      1.036144
     5     2      0.861440      1.030458      0.189873
     6     2      0.528464      1.019305      1.050461
     7     2      0.992580      0.463166      0.237516
     8     2      0.504580      0.701679      1.039399
     9     2      0.927634      0.229540      0.765471
    10     2      0.385434      1.056825      0.762624
    11     2      0.167017      0.493155      0.698488
    12     2      0.500118      0.520935      0.444011
    13     2      0.164122      0.325617      0.654733
    14     2      0.856791      0.153714      0.103535
    15     2      0.322596      0.676387      1.043295
    16     2      0.922655      0.725255      0.580861
ITEM: TIMESTEP
1818
ITEM: NUMBER OF ATOMS
16
ITEM: BOX BOUNDS xy xz yz  pp  pp  pp
     -0.300000      4.040544      0.000000
     -0.300000      4.040544      0.000000
     -0.300000      2.769228      0.000000
ITEM: ATOMS id type xs ys zs
     1     1      0.221425      0.223667      0.172424
     2     1      0.650204      0.263695      0.613821
     3     1      0.315660      0.795624      0.516125
     4     1      0.821457      0.707924      1.035782
     5     2      0.861711      1.029827      0.188814
     6     2      0.527788      1.018946      1.050533
     7     2      0.991914      0.462691      0.236841
     8     2      0.504954      0.701810      1.038550
     9     2      0.928425      0.229647      0.765643
    10     2      0.385550      1.056933      0.762464
    11     2      0.166800      0.493527      0.697356
    12     2      0.500437      0.521285      0.443359
    13     2      0.163935      0.325780      0.655197
    14     2      0.856210      0.154001      0.104209
    15     2      0.322581      0.676565      1.044004
    16     2      0.922260      0.725809      0.580936
ITEM: TIMESTEP
1819
ITEM: NUMBER OF ATOMS
16
ITEM: BOX BOUNDS xy xz yz  pp  pp  pp
     -0.300000      4.040544      0.000000
     -0.300000      4.040544      0.000000
     -0.300000      2.769228      0.000000
ITEM: ATOMS id type xs ys zs
     1     1      0.220887      0.223443      0.172554
     2     1      0.650224      0.263936      0.613578
     3     1      0.315836      0.796227      0.516252
     4     1      0.821148      0.707755      1.035786
     5     2      0.861575      1.030191      0.187568
     6     2      0.527626      1.018662      1.050860
     7     2      0.991682      0.462835      0.236943
     8     2      0.505412      0.702074      1.038530
     9     2      0.928613      0.229191      0.765586
    10     2      0.385712      1.056546      0.762313
    11     2      0.166834      0.493408      0.696967
    12     2      0.501048      0.520777      0.443657
    13     2      0.164079      0.325682      0.655973
    14     2      0.856063      0.154145      0.104857
    15     2      0.322178      0.677229      1.043713
    16     2      0.922466      0.726087      0.581370
ITEM: TIMESTEP
1820
ITEM: NUMBER OF ATOMS
16
ITEM: BOX BOUNDS xy xz yz  pp  pp  pp
     -0.300000      4.040544      0.000000
     -0.300000      4.040544      0.000000
     -0.300000      2.769228      0.000000
ITEM: ATOMS id type xs ys zs
     1     1      0.221080      0.223505      0.171617
     2     1      0.650150      0.263704      0.614088
     3     1      0.316005      0.795750      0.516999
     4     1      0.821721      0.707723      1.034214
     5     2      0.861752      1.029974      0.187814
     6     2      0.527688      1.018768      1.050675
     7     2      0.991599      0.462844      0.238221
     8     2      0.504970      0.702142      1.038767
     9     2      0.929346      0.228393      0.764966
    10     2      0.385860      1.056484      0.761755
    11     2      0.165925      0.493875      0.696331
    12     2      0.500882      0.519938      0.443816
    13     2      0.164126      0.325045      0.655933
    14     2      0.856064      0.154538      0.105034
    15     2      0.321508      0.678154      1.044230
    16     2      0.922633      0.726461      0.580792
ITEM: TIMESTEP
1821
ITEM: NUMBER OF ATOMS
16
ITEM: BOX BOUNDS xy xz yz  pp  pp  pp
     -0.300000      4.040544      0.000000
     -0.300000      4.040544      0.000000
     -0.300000      2.769228      0.000000
ITEM: ATOMS id type xs ys zs
     1     1      0.220443      0.223774      0.171830
     2     1      0.650114      0.263650      0.613835
     3     1      0.316221      0.795326      0.517015
     4     1      0.821647      0.707394      1.033996
     5     2      0.861936      1.029870      0.187511
     6     2      0.527193      1.018556      1.050603
     7     2      0.991357      0.463640      0.237771
     8     2      0.505388      0.701658      1.039188
     9     2      0.929337      0.228524      0.765206
    10     2      0.385849      1.056941      0.761231
    11     2      0.166294      0.493751      0.696058
    12     2      0.500388      0.520187      0.444329
    13     2      0.164140      0.324748      0.656005
    14     2      0.856225      0.154399      0.105461
    15     2      0.321918      0.678640      1.043700
    16     2      0.922529      0.726453      0.580547
ITEM: TIMESTEP
1822
ITEM: NUMBER OF ATOMS
16
ITEM: BOX BOUNDS xy xz yz  pp  pp  pp
     -0.300000      4.040544      0.000000
     -0.300000      4.040544      0.000000
     -0.300000      2.769228      0.000000
ITEM: ATOMS id type xs ys zs
     1     1      0.220939      0.224342      0.171800
     2     1      0.650402      0.263515      0.613637
     3     1      0.315984      0.794918      0.516800
     4     1      0.821813      0.707767      1.034280
     5     2      0.862524      1.029606      0.188150
     6     2      0.526855      1.018401      1.051264
     7     2      0.990936      0.462848      0.237848
     8     2      0.505561      0.701374      1.038301
     9     2      0.930178      0.228600      0.765406
    10     2      0.385618      1.057398      0.761939
    11     2      0.165930      0.493771      0.696550
    12     2      0.500229      0.520518      0.444652
    13     2      0.164763      0.324768      0.656050
    14     2      0.855565      0.153659      0.104824
    15     2      0.321473      0.678726      1.043224
    16     2      0.922532      0.726223      0.580263
ITEM: TIMESTEP
1823
ITEM: NUMBER OF ATOMS
16
ITEM: BOX BOUNDS xy xz yz  pp  pp  pp
     -0.300000      4.040544      0.000000
     -0.300000      4.040544      0.000000
     -0.300000      2.769228      0.000000
ITEM: ATOMS id type xs ys zs
     1     1      0.221222      0.225221      0.171824
     2     1      0.650489      0.263520      0.614295
     3     1      0.315663      0.794843      0.517566
     4     1      0.821356      0.707802      1.033452
     5     2      0.862319      1.029864      0.188620
     6     2      0.526825      1.018078      1.051225
     7     2      0.990902      0.462493      0.238202
     8     2      0.505577      0.701318      1.038288
     9     2      0.930855      0.229035      0.765539
    10     2      0.385966      1.057594      0.761820
    11     2      0.166155      0.494005      0.696318
    12     2      0.500456      0.520388      0.443660
    13     2      0.165141      0.324766      0.656541
    14     2      0.855213      0.154013      0.105292
    15     2      0.321359      0.679303      1.043297
    16     2      0.922558      0.726273      0.580829
ITEM: TIMESTEP
1824
ITEM: NUMBER OF ATOMS
16
ITEM: BOX BOUNDS xy xz yz  pp  pp  pp
     -0.300000      4.040544      0.000000
     -0.300000      4.040544      0.000000
     -0.300000      2.769228      0.000000
ITEM: ATOMS id type xs ys zs
     1     1      0.221556      0.225688      0.172268
     2     1      0.650432      0.263599      0.613806
     3     1      0.315331      0.794622      0.517824
     4     1      0.821609      0.707546      1.034269
     5     2      0.862272      1.029224      0.187890
     6     2      0.527093      1.018448      1.051419
     7     2      0.990504      0.462703      0.238253
     8     2      0.505473      0.700637      1.038710
     9     2      0.931262      0.228589      0.765854
    10     2      0.386439      1.058400      0.762238
    11     2      0.166526      0.494311      0.696417
    12     2      0.500777      0.520488      0.443587
    13     2      0.165248      0.324540      0.657137
    14     2      0.854099      0.154108      0.105218
    15     2      0.321053      0.680038      1.042510
    16     2      0.922216      0.726574      0.580858
ITEM: TIMESTEP
1825
ITEM: NUMBER OF ATOMS
16
ITEM: BOX BOUNDS xy xz yz  pp  pp  pp
     -0.300000      4.040544      0.000000
     -0.300000      4.040544      0.000000
     -0.300000      2.769228      0.000000
ITEM: ATOMS id type xs ys zs
     1     1      0.221858      0.225966      0.172417
     2     1      0.650104      0.263322      0.614204
     3     1      0.315152      0.793544      0.518394
     4     1      0.821542      0.707035      1.033759
     5     2      0.862106      1.028408      0.187539
     6     2      0.527403      1.018407      1.052014
     7     2      0.990866      0.462474      0.238352
     8     2      0.505701      0.700515      1.038895
     9     2      0.931845      0.228236      0.765430
    10     2      0.386205      1.058957      0.761967
    11     2      0.166451      0.494104      0.695126
    12     2      0.500713      0.520868      0.444068
    13     2      0.165326      0.324487      0.657266
    14     2      0.854615      0.154680      0.105509
    15     2      0.321218      0.680720      1.042006
    16     2      0.922430      0.726348      0.581240
ITEM: TIMESTEP
1826
ITEM: NUMBER OF ATOMS
16
ITEM: BOX BOUNDS xy xz yz  pp  pp  pp
     -0.300000      4.040544      0.000000
     -0.300000      4.040544      0.000000
     -0.300000      2.769228      0.000000
ITEM: ATOMS id type xs ys zs
     1     1      0.221812      0.225927      0.172141
     2     1      0.650710      0.263493      0.614746
     3     1      0.315612      0.793043      0.518790
     4     1      0.821004      0.707261      1.033199
     5     2      0.862348      1.028073      0.187357
     6     2      0.527168      1.018404      1.052882
     7     2      0.991324      0.462662      0.237451
     8     2      0.505533      0.700493      1.039416
     9     2      0.932347      0.227794      0.764962
    10     2      0.386303      1.058971      0.761836
    11     2      0.166030      0.494355      0.694371
    12     2      0.500770      0.520770      0.444644
    13     2      0.165636      0.323920      0.658494
    14     2      0.854431      0.154617      0.105551
    15     2      0.321397      0.680974      1.041846
    16     2      0.922684      0.726031      0.580426
ITEM: TIMESTEP
1827
ITEM: NUMBER OF ATOMS
16
ITEM: BOX BOUNDS xy xz yz  pp  pp  pp
     -0.300000      4.040544      0.000000
     -0.300000      4.040544      0.000000
     -0.300000      2.769228      0.000000
ITEM: ATOMS id type xs ys zs
     1     1      0.222402      0.226135      0.172618
     2     1      0.651039      0.263751      0.614808
     3     1      0.316237      0.792965      0.518267
     4     1      0.820938      0.706943      1.033241
     5     2      0.862478      1.027843      0.187337
     6     2      0.527097      1.018061      1.053263
     7     2      0.991131      0.463127      0.237952
     8     2      0.506364      0.700144      1.039059
     9     2      0.932364      0.227134      0.765045
    10     2      0.386158      1.059570      0.762429
    11     2      0.165911      0.494147      0.694540