ITEM: TIMESTEP
1801
ITEM: NUMBER OF ATOMS
16
ITEM: BOX BOUNDS xy xz yz  pp  pp  pp
     -0.300000      4.040544      0.000000
     -0.300000      4.040544      0.000000
     -0.300000      2.769228      0.000000
ITEM: ATOMS id type xs ys zs
     1     1      0.218326      0.222041      0.171265
     2     1      0.651640      0.262349      0.617464
     3     1      0.318323      0.801400      0.513862
     4     1      0.822599      0.712752      1.036553
     5     2      0.861553      1.028770      0.193569
     6     2      0.531627      1.018197      1.048171
     7     2      0.990061      0.464193      0.235115
     8     2      0.504045      0.701245      1.039599
     9     2      0.921506      0.229301      0.766357
    10     2      0.386505      1.053563      0.760609
    11     2      0.169087      0.493689      0.702868
    12     2      0.497588      0.522625      0.445556
    13     2      0.160766      0.329309      0.656698
    14     2      0.856786      0.151945      0.104929
    15     2      0.323312      0.669101      1.045489
    16     2      0.923081      0.723072      0.580614
ITEM: TIMESTEP
1802
ITEM: NUMBER OF ATOMS
16
ITEM: BOX BOUNDS xy xz yz  pp  pp  pp
     -0.300000      4.040544      0.000000
     -0.300000      4.040544      0.000000
     -0.300000      2.769228      0.000000
ITEM: ATOMS id type xs ys zs
     1     1      0.218298      0.221767      0.170758
     2     1      0.650887      0.262445      0.617563
     3     1      0.317930      0.800856      0.513977
     4     1      0.822334      0.712472      1.036094
     5     2      0.861663      1.029143      0.193277
     6     2      0.531479      1.018261      1.048438
     7     2      0.990034      0.463940      0.235375
     8     2      0.504160      0.701562      1.039306
     9     2      0.922284      0.229408      0.766935
    10     2      0.387286      1.053793      0.761213
    11     2      0.169096      0.493710      0.701873
    12     2      0.497548      0.523025      0.445558
    13     2      0.161663      0.329494      0.656982
    14     2      0.856451      0.152408      0.104663
    15     2      0.322916      0.670173      1.045181
    16     2      0.923068      0.723424      0.580215
ITEM: TIMESTEP
1803
ITEM: NUMBER OF ATOMS
16
ITEM: BOX BOUNDS xy xz yz  pp  pp  pp
     -0.300000      4.040544      0.000000
     -0.300000      4.040544      0.000000
     -0.300000      2.769228      0.000000
ITEM: ATOMS id type xs ys zs
     1     1      0.218513      0.221852      0.170831
     2     1      0.650048      0.262331      0.617203
     3     1      0.318462      0.800885      0.514860
     4     1      0.822384      0.712247      1.035849
     5     2      0.861966      1.029239      0.192695
     6     2      0.531014      1.019255      1.048246
     7     2      0.989835      0.463640      0.234806
     8     2      0.504239      0.701749      1.039038
     9     2      0.922781      0.229651      0.767498
    10     2      0.387627      1.053490      0.761386
    11     2      0.168778      0.493898      0.701817
    12     2      0.497473      0.523253      0.445191
    13     2      0.162071      0.329844      0.656995
    14     2      0.856776      0.152495      0.103567
    15     2      0.322655      0.670839      1.044884
    16     2      0.923163      0.722704      0.580348
ITEM: TIMESTEP
1804
ITEM: NUMBER OF ATOMS
16
ITEM: BOX BOUNDS xy xz yz  pp  pp  pp
     -0.300000      4.040544      0.000000
     -0.300000      4.040544      0.000000
     -0.300000      2.769228      0.000000
ITEM: ATOMS id type xs ys zs
     1     1      0.218300      0.222843      0.170611
     2     1      0.650141      0.261955      0.616267
     3     1      0.318517      0.800720      0.514400
     4     1      0.822073      0.711725      1.035226
     5     2      0.862426      1.030118      0.192442
     6     2      0.530478      1.019764      1.048787
     7     2      0.989158      0.463638      0.234805
     8     2      0.504845      0.701856      1.038536
     9     2      0.923104      0.229598      0.767525
    10     2      0.387568      1.053448      0.762413
    11     2      0.168989      0.494396      0.701135
    12     2      0.497328      0.523553      0.445195
    13     2      0.162317      0.329727      0.658046
    14     2      0.856942      0.152679      0.103651
    15     2      0.322141      0.671656      1.044785
    16     2      0.923054      0.722748      0.579915
ITEM: TIMESTEP
1805
ITEM: NUMBER OF ATOMS
16
ITEM: BOX BOUNDS xy xz yz  pp  pp  pp
     -0.300000      4.040544      0.000000
     -0.300000      4.040544      0.000000
     -0.300000      2.769228      0.000000
ITEM: ATOMS id type xs ys zs
     1     1      0.219059      0.223137      0.170942
     2     1      0.649880      0.261838      0.615560
     3     1      0.318728      0.799792      0.514407
     4     1      0.822224      0.710898      1.034891
     5     2      0.862493      1.029507      0.191672
     6     2      0.530578      1.019582      1.049190
     7     2      0.989055      0.463478      0.235384
     8     2      0.504825      0.701758      1.037948
     9     2      0.924410      0.229242      0.767684
    10     2      0.387775      1.053745      0.762119
    11     2      0.169073      0.494377      0.700495
    12     2      0.497303      0.523869      0.445149
    13     2      0.162818      0.329033      0.658249
    14     2      0.856411      0.152822      0.103238
    15     2      0.322528      0.672238      1.045302
    16     2      0.922810      0.723369      0.579462
ITEM: TIMESTEP
1806
ITEM: NUMBER OF ATOMS
16
ITEM: BOX BOUNDS xy xz yz  pp  pp  pp
     -0.300000      4.040544      0.000000
     -0.300000      4.040544      0.000000
     -0.300000      2.769228      0.000000
ITEM: ATOMS id type xs ys zs
     1     1      0.219341      0.223284      0.171171
     2     1      0.650075      0.261675      0.615963
     3     1      0.318285      0.800090      0.515386
     4     1      0.821784      0.710265      1.034271
     5     2      0.862548      1.029518      0.191072
     6     2      0.529953      1.019817      1.049488
     7     2      0.988825      0.463846      0.235438
     8     2      0.504818      0.701491      1.038050
     9     2      0.924729      0.229389      0.767304
    10     2      0.387850      1.054011      0.762664
    11     2      0.169766      0.494191      0.699535
    12     2      0.497396      0.523734      0.445299
    13     2      0.163547      0.328558      0.658253
    14     2      0.856018      0.152744      0.103157
    15     2      0.322282      0.672322      1.045287
    16     2      0.923279      0.723149      0.579439
ITEM: TIMESTEP
1807
ITEM: NUMBER OF ATOMS
16
ITEM: BOX BOUNDS xy xz yz  pp  pp  pp
     -0.300000      4.040544      0.000000
     -0.300000      4.040544      0.000000
     -0.300000      2.769228      0.000000
ITEM: ATOMS id type xs ys zs
     1     1      0.219459      0.223976      0.171703
     2     1      0.650992      0.262153      0.615682
     3     1      0.318234      0.800279      0.516100
     4     1      0.821834      0.709476      1.034653
     5     2      0.862998      1.029883      0.189776
     6     2      0.529963      1.019694      1.049619
     7     2      0.988947      0.463593      0.235522
     8     2      0.504271      0.701429      1.038025
     9     2      0.925528      0.229556      0.767816
    10     2      0.387885      1.054107      0.762438
    11     2      0.168844      0.493918      0.698959
    12     2      0.497324      0.523431      0.445957
    13     2      0.163708      0.328987      0.658083
    14     2      0.856080      0.152933      0.102488
    15     2      0.322295      0.672708      1.045249
    16     2      0.923141      0.722853      0.579183
ITEM: TIMESTEP
1808
ITEM: NUMBER OF ATOMS
16
ITEM: BOX BOUNDS xy xz yz  pp  pp  pp
     -0.300000      4.040544      0.000000
     -0.300000      4.040544      0.000000
     -0.300000      2.769228      0.000000
ITEM: ATOMS id type xs ys zs
     1     1      0.219314      0.223515      0.172003
     2     1      0.650561      0.261841      0.615605
     3     1      0.317395      0.800097      0.516723
     4     1      0.821422      0.708802      1.034549
     5     2      0.863126      1.029810      0.189930
     6     2      0.530457      1.019963      1.049522
     7     2      0.988662      0.463851      0.235819
     8     2      0.503737      0.701033      1.038741
     9     2      0.926038      0.228962      0.768315
    10     2      0.387977      1.054380      0.763383
    11     2      0.168585      0.493693      0.698357
    12     2      0.497725      0.522748      0.446081
    13     2      0.163261      0.328720      0.658523
    14     2      0.855944      0.153086      0.102946
    15     2      0.322029      0.673501      1.045633
    16     2      0.923225      0.722866      0.578521
ITEM: TIMESTEP
1809
ITEM: NUMBER OF ATOMS
16
ITEM: BOX BOUNDS xy xz yz  pp  pp  pp
     -0.300000      4.040544      0.000000
     -0.300000      4.040544      0.000000
     -0.300000      2.769228      0.000000
ITEM: ATOMS id type xs ys zs
     1     1      0.219289      0.223493      0.171812
     2     1      0.650324      0.261849      0.614774
     3     1      0.316858      0.800123      0.516864
     4     1      0.820877      0.708615      1.034543
     5     2      0.863033      1.029842      0.190595
     6     2      0.529823      1.020331      1.048860
     7     2      0.988445      0.463771      0.235447
     8     2      0.504357      0.700917      1.038699
     9     2      0.926570      0.228747      0.767901
    10     2      0.388047      1.054084      0.763317
    11     2      0.168787      0.493760      0.697676
    12     2      0.497858      0.523082      0.446271
    13     2      0.164054      0.328817      0.659392
    14     2      0.856097      0.153307      0.102437
    15     2      0.321372      0.673961      1.045188
    16     2      0.922991      0.722991      0.578557
ITEM: TIMESTEP
1810
ITEM: NUMBER OF ATOMS
16
ITEM: BOX BOUNDS xy xz yz  pp  pp  pp
     -0.300000      4.040544      0.000000
     -0.300000      4.040544      0.000000
     -0.300000      2.769228      0.000000
ITEM: ATOMS id type xs ys zs
     1     1      0.219338      0.223168      0.171838
     2     1      0.650283      0.262107      0.615073
     3     1      0.316621      0.799711      0.516859
     4     1      0.821112      0.708230      1.034430
     5     2      0.862602      1.030022      0.190147
     6     2      0.529638      1.020440      1.049646
     7     2      0.988251      0.463349      0.235759
     8     2      0.504386      0.700768      1.038692
     9     2      0.927382      0.228739      0.768172
    10     2      0.388002      1.054392      0.763441
    11     2      0.168725      0.494140      0.697347
    12     2      0.497227      0.523456      0.446721
    13     2      0.163452      0.328069      0.660039
    14     2      0.855614      0.153857      0.102355
    15     2      0.320942      0.674273      1.045289
    16     2      0.922478      0.723463      0.577431
ITEM: TIMESTEP
1811
ITEM: NUMBER OF ATOMS
16
ITEM: BOX BOUNDS xy xz yz  pp  pp  pp
     -0.300000      4.040544      0.000000
     -0.300000      4.040544      0.000000
     -0.300000      2.769228      0.000000
ITEM: ATOMS id type xs ys zs
     1     1      0.218864      0.223629      0.171646
     2     1      0.650418      0.262600      0.614936
     3     1      0.315986      0.799672      0.517145
     4     1      0.821118      0.706986      1.033882
     5     2      0.862454      1.030137      0.189343
     6     2      0.529751      1.019943      1.049509
     7     2      0.988474      0.463565      0.236438
     8     2      0.504467      0.700607      1.038991
     9     2      0.927568      0.228303      0.768222
    10     2      0.388286      1.054517      0.763944
    11     2      0.168734      0.493904      0.697329
    12     2      0.496958      0.523201      0.446589
    13     2      0.163594      0.328086      0.659695
    14     2      0.855331      0.153326      0.102494
    15     2      0.320969      0.674666      1.045617
    16     2      0.921948      0.723612      0.577559
ITEM: TIMESTEP
1812
ITEM: NUMBER OF ATOMS
16
ITEM: BOX BOUNDS xy xz yz  pp  pp  pp
     -0.300000      4.040544      0.000000
     -0.300000      4.040544      0.000000
     -0.300000      2.769228      0.000000
ITEM: ATOMS id type xs ys zs
     1     1      0.219198      0.223226      0.171644
     2     1      0.650488      0.262788      0.614046
     3     1      0.315753      0.799733      0.516886
     4     1      0.820927      0.706477      1.034134
     5     2      0.862097      1.030155      0.189458
     6     2      0.529611      1.020197      1.050385
     7     2      0.988551      0.463587      0.236746
     8     2      0.503864      0.700242      1.038740
     9     2      0.928307      0.228018      0.768996
    10     2      0.388481      1.054347      0.763678
    11     2      0.168210      0.494455      0.696734
    12     2      0.497353      0.523191      0.446877
    13     2      0.163381      0.328154      0.659621
    14     2      0.855725      0.153544      0.103133
    15     2      0.321047      0.675202      1.045374
    16     2      0.921435      0.723423      0.577399
ITEM: TIMESTEP
1813
ITEM: NUMBER OF ATOMS
16
ITEM: BOX BOUNDS xy xz yz  pp  pp  pp
     -0.300000      4.040544      0.000000
     -0.300000      4.040544      0.000000
     -0.300000      2.769228      0.000000
ITEM: ATOMS id type xs ys zs
     1     1      0.218809      0.223204      0.171334
     2     1      0.650454      0.262401      0.613222
     3     1      0.315747      0.799339      0.516590
     4     1      0.821248      0.706812      1.033496
     5     2      0.861853      1.029970      0.189245
     6     2      0.529358      1.020279      1.051007
     7     2      0.988054      0.463323      0.236610
     8     2      0.503932      0.700490      1.038611
     9     2      0.929234      0.228597      0.768171
    10     2      0.387981      1.055061      0.763949
    11     2      0.168737      0.494749      0.696363
    12     2      0.497772      0.524113      0.447105
    13     2      0.163235      0.328104      0.661110
    14     2      0.855673      0.153102      0.102782
    15     2      0.321002      0.675585      1.046120
    16     2      0.921314      0.723348      0.577371
ITEM: TIMESTEP
1814
ITEM: NUMBER OF ATOMS
16
ITEM: BOX BOUNDS xy xz yz  pp  pp  pp
     -0.300000      4.040544      0.000000
     -0.300000      4.040544      0.000000
     -0.300000      2.769228      0.000000
ITEM: ATOMS id type xs ys zs
     1     1      0.218927      0.223968      0.171214
     2     1      0.650953      0.262957      0.612863
     3     1      0.315836      0.799578      0.516517
     4     1      0.821215      0.706794      1.033224
     5     2      0.861900      1.029682      0.188946
     6     2      0.529595      1.019789      1.052143
     7     2      0.987811      0.463571      0.236460
     8     2      0.504061      0.700456      1.039620
     9     2      0.929737      0.228293      0.768438
    10     2      0.388369      1.055272      0.763858
    11     2      0.168770      0.494907      0.695814
    12     2      0.498371      0.523124      0.447128
    13     2      0.163457      0.327842      0.661043
    14     2      0.855275      0.153505      0.102622
    15     2      0.321931      0.675774      1.046494
    16     2      0.921664      0.723358      0.577643
ITEM: TIMESTEP
1815
ITEM: NUMBER OF ATOMS
16
ITEM: BOX BOUNDS xy xz yz  pp  pp  pp
     -0.300000      4.040544      0.000000
     -0.300000      4.040544      0.000000
     -0.300000      2.769228      0.000000
ITEM: ATOMS id type xs ys zs
     1     1      0.219719      0.223953      0.171258
     2     1      0.651243      0.262754      0.612791
     3     1      0.315956      0.798855      0.516787
     4     1      0.820964      0.706926      1.032931
     5     2      0.861593      1.029005      0.188010
     6     2      0.529131      1.020207      1.051403
     7     2      0.987807      0.463377      0.236506
     8     2      0.504300      0.700459      1.039724
     9     2      0.929985      0.227838      0.768517
    10     2      0.388355      1.054954      0.763925
    11     2      0.169013      0.494280      0.695736
    12     2      0.498165      0.523272      0.447361
    13     2      0.163156      0.327333      0.661383
    14     2      0.854805      0.153765      0.102593
    15     2      0.322017      0.676398      1.046256
    16     2      0.921258      0.723531      0.577271
ITEM: TIMESTEP
1816
ITEM: NUMBER OF ATOMS
16
ITEM: BOX BOUNDS xy xz yz  pp  pp  pp
     -0.300000      4.040544      0.000000
     -0.300000      4.040544      0.000000
     -0.300000      2.769228      0.000000
ITEM: ATOMS id type xs ys zs
     1     1      0.219864      0.223978      0.172008
     2     1      0.651123      0.262660      0.613257
     3     1      0.315470      0.798610      0.516445
     4     1      0.820807      0.706328      1.032154
     5     2      0.861638      1.028776      0.187144
     6     2      0.529145      1.020402      1.051662
     7     2      0.987801      0.462968      0.236882
     8     2      0.503603      0.700660      1.039533
     9     2      0.930877      0.227335      0.768389
    10     2      0.388297      1.054753      0.764027
    11     2      0.168914      0.493757      0.694562
    12     2      0.497795      0.523389      0.446958
    13     2      0.163510      0.327393      0.662186
    14     2      0.854629      0.153482      0.102337
    15     2      0.322034      0.676670      1.045971
    16     2      0.921632      0.723499      0.577489
ITEM: TIMESTEP
1817
ITEM: NUMBER OF ATOMS
16
ITEM: BOX BOUNDS xy xz yz  pp  pp  pp
     -0.300000      4.040544      0.000000
     -0.300000      4.040544      0.000000
     -0.300000      2.769228      0.000000
ITEM: ATOMS id type xs ys zs
     1     1      0.220333      0.223965      0.172216
     2     1      0.651128      0.262469      0.612553
     3     1      0.315958      0.798433      0.517117
     4     1      0.820930      0.706763      1.031789
     5     2      0.860946      1.028470      0.187647
     6     2      0.529048      1.020993      1.052642
     7     2      0.987709      0.463276      0.237503
     8     2      0.504081      0.700603      1.038910
     9     2      0.931610      0.227140      0.768787
    10     2      0.388526      1.054744      0.763390
    11     2      0.169230      0.493373      0.694611
    12     2      0.497835      0.523390      0.447128
    13     2      0.163674      0.327787      0.661961
    14     2      0.854049      0.153171      0.102168
    15     2      0.322346      0.677574      1.046717
    16     2      0.920954      0.723566      0.578158
ITEM: TIMESTEP
1818
ITEM: NUMBER OF ATOMS
16
ITEM: BOX BOUNDS xy xz yz  pp  pp  pp
     -0.300000      4.040544      0.000000
     -0.300000      4.040544      0.000000
     -0.300000      2.769228      0.000000
ITEM: ATOMS id type xs ys zs
     1     1      0.220917      0.224405      0.171747
     2     1      0.651550      0.262726      0.612516
     3     1      0.315374      0.798501      0.517064
     4     1      0.821152      0.706652      1.031611
     5     2      0.861026      1.028964      0.187060
     6     2      0.528737      1.020460      1.052059
     7     2      0.987561      0.463478      0.237483
     8     2      0.504330      0.700390      1.039583
     9     2      0.931737      0.226725      0.767973
    10     2      0.388737      1.055317      0.763298
    11     2      0.169323      0.493646      0.694058
    12     2      0.498321      0.523401      0.447220
    13     2      0.163628      0.326953      0.661496
    14     2      0.853796      0.153360      0.101440
    15     2      0.322450      0.678217      1.046513
    16     2      0.920703      0.723604      0.578452
ITEM: TIMESTEP
1819
ITEM: NUMBER OF ATOMS
16
ITEM: BOX BOUNDS xy xz yz  pp  pp  pp
     -0.300000      4.040544      0.000000
     -0.300000      4.040544      0.000000
     -0.300000      2.769228      0.000000
ITEM: ATOMS id type xs ys zs
     1     1      0.221327      0.224354      0.171915
     2     1      0.651450      0.262870      0.612433
     3     1      0.315331      0.798149      0.517223
     4     1      0.820720      0.706331      1.030999
     5     2      0.860972      1.029121      0.186529
     6     2      0.528171      1.020864      1.051743
     7     2      0.987558      0.463922      0.238562
     8     2      0.504752      0.700291      1.039309
     9     2      0.932325      0.226742      0.768061
    10     2      0.388372      1.054995      0.764045
    11     2      0.169235      0.493524      0.693509
    12     2      0.498255      0.523354      0.447693
    13     2      0.163608      0.326909      0.661840
    14     2      0.853497      0.154064      0.101270
    15     2      0.322604      0.677887      1.046450
    16     2      0.920234      0.723544      0.577522
ITEM: TIMESTEP
1820
ITEM: NUMBER OF ATOMS
16
ITEM: BOX BOUNDS xy xz yz  pp  pp  pp
     -0.300000      4.040544      0.000000
     -0.300000      4.040544      0.000000
     -0.300000      2.769228      0.000000
ITEM: ATOMS id type xs ys zs
     1     1      0.221592      0.224822      0.171770
     2     1      0.651662      0.263255      0.612486
     3     1      0.315064      0.797682      0.517333
     4     1      0.820753      0.706056      1.031368
     5     2      0.860926      1.029238      0.186050
     6     2      0.528581      1.021254      1.051963
     7     2      0.987296      0.465169      0.239419
     8     2      0.504213      0.699830      1.039611
     9     2      0.932936      0.227041      0.767896
    10     2      0.388361      1.054839      0.763672
    11     2      0.169157      0.493844      0.693324
    12     2      0.498217      0.523234      0.448364
    13     2      0.164099      0.325778      0.662156
    14     2      0.853399      0.154368      0.101311
    15     2      0.322489      0.678328      1.045858
    16     2      0.919993      0.723748      0.577731
ITEM: TIMESTEP
1821
ITEM: NUMBER OF ATOMS
16
ITEM: BOX BOUNDS xy xz yz  pp  pp  pp
     -0.300000      4.040544      0.000000
     -0.300000      4.040544      0.000000
     -0.300000      2.769228      0.000000
ITEM: ATOMS id type xs ys zs
     1     1      0.222034      0.224457      0.172350
     2     1      0.651857      0.263855      0.612366
     3     1      0.315084      0.797935      0.517208
     4     1      0.821169      0.706203      1.032062
     5     2      0.860858      1.028462      0.185749
     6     2      0.528087      1.021302      1.051944
     7     2      0.987231      0.464591      0.239679
     8     2      0.504097      0.699989      1.039596
     9     2      0.933542      0.227289      0.767552
    10     2      0.388056      1.055006      0.762937
    11     2      0.169165      0.493781      0.693070
    12     2      0.498229      0.523239      0.447920
    13     2      0.164224      0.325299      0.662307
    14     2      0.853144      0.154235      0.100861
    15     2      0.322325      0.679351      1.046261
    16     2      0.920193      0.723009      0.578349
ITEM: TIMESTEP
1822
ITEM: NUMBER OF ATOMS
16
ITEM: BOX BOUNDS xy xz yz  pp  pp  pp
     -0.300000      4.040544      0.000000
     -0.300000      4.040544      0.000000
     -0.300000      2.769228      0.000000
ITEM: ATOMS id type xs ys zs
     1     1      0.222173      0.224383      0.172261
     2     1      0.652190      0.263889      0.612209
     3     1      0.314344      0.797671      0.517220
     4     1      0.821530      0.705984      1.031931
     5     2      0.861083      1.028160      0.185001
     6     2      0.527599      1.021454      1.051694
     7     2      0.988114      0.464247      0.239427
     8     2      0.504275      0.700256      1.039501
     9     2      0.933750      0.228206      0.766624
    10     2      0.387853      1.054963      0.763562
    11     2      0.169447      0.493454      0.693524
    12     2      0.498432      0.523002      0.447661
    13     2      0.164276      0.324934      0.662097
    14     2      0.852707      0.154108      0.101135
    15     2      0.321311      0.678907      1.046595
    16     2      0.920073      0.722251      0.577892
ITEM: TIMESTEP
1823
ITEM: NUMBER OF ATOMS
16
ITEM: BOX BOUNDS xy xz yz  pp  pp  pp
     -0.300000      4.040544      0.000000
     -0.300000      4.040544      0.000000
     -0.300000      2.769228      0.000000
ITEM: ATOMS id type xs ys zs
     1     1      0.222057      0.224603      0.172184
     2     1      0.652474      0.263541      0.612552
     3     1      0.314349      0.797868      0.517065
     4     1      0.821266      0.706215      1.031834
     5     2      0.861377      1.028170      0.184759
     6     2      0.527895      1.021533      1.052022
     7     2      0.987796      0.463935      0.239514
     8     2      0.504335      0.700148      1.039545
     9     2      0.934031      0.228676      0.765887
    10     2      0.387959      1.054599      0.764229
    11     2      0.169228      0.493309      0.692960
    12     2      0.499273      0.523210      0.447700
    13     2      0.164900      0.324732      0.662480
    14     2      0.852848      0.154284      0.101570
    15     2      0.321472      0.678597      1.047225
    16     2      0.920429      0.722493      0.577838
ITEM: TIMESTEP
1824
ITEM: NUMBER OF ATOMS
16
ITEM: BOX BOUNDS xy xz yz  pp  pp  pp
     -0.300000      4.040544      0.000000
     -0.300000      4.040544      0.000000
     -0.300000      2.769228      0.000000
ITEM: ATOMS id type xs ys zs
     1     1      0.222328      0.224906      0.172699
     2     1      0.652787      0.263757      0.612643
     3     1      0.314008      0.797490      0.517115
     4     1      0.821191      0.706471      1.030927
     5     2      0.861217      1.027598      0.185357
     6     2      0.527718      1.022394      1.052008
     7     2      0.987615      0.463736      0.239855
     8     2      0.504034      0.700304      1.039830
     9     2      0.934659      0.228839      0.765649
    10     2      0.388486      1.055075      0.764188
    11     2      0.169208      0.493433      0.692727
    12     2      0.498761      0.522860      0.448314
    13     2      0.164957      0.323869      0.662072
    14     2      0.851776      0.153872      0.101424
    15     2      0.321769      0.678982      1.047629
    16     2      0.921137      0.722344      0.576799
ITEM: TIMESTEP
1825
ITEM: NUMBER OF ATOMS
16
ITEM: BOX BOUNDS xy xz yz  pp  pp  pp
     -0.300000      4.040544      0.000000
     -0.300000      4.040544      0.000000
     -0.300000      2.769228      0.000000
ITEM: ATOMS id type xs ys zs
     1     1      0.222589      0.224718      0.172434
     2     1      0.652513      0.263898      0.613054
     3     1      0.314117      0.797039      0.517373
     4     1      0.821398      0.705674      1.031308
     5     2      0.861093      1.027466      0.185856
     6     2      0.527301      1.022241      1.052783
     7     2      0.988003      0.463891      0.240046
     8     2      0.503644      0.700318      1.040023
     9     2      0.935056      0.228781      0.765468
    10     2      0.388713      1.055305      0.764693
    11     2      0.168515      0.493650      0.692611
    12     2      0.498988      0.523081      0.448206
    13     2      0.165411      0.323972      0.661428
    14     2      0.851468      0.153710      0.101021
    15     2      0.322109      0.678861      1.046967
    16     2      0.921335      0.722242      0.575948
ITEM: TIMESTEP
1826
ITEM: NUMBER OF ATOMS
16
ITEM: BOX BOUNDS xy xz yz  pp  pp  pp
     -0.300000      4.040544      0.000000
     -0.300000      4.040544      0.000000
     -0.300000      2.769228      0.000000
ITEM: ATOMS id type xs ys zs
     1     1      0.222887      0.224612      0.172847
     2     1      0.652134      0.263560      0.612865
     3     1      0.314112      0.796684      0.518243
     4     1      0.821462      0.705798      1.031150
     5     2      0.860858      1.027748      0.185626
     6     2      0.526786      1.023168      1.052511
     7     2      0.987797      0.463891      0.239857
     8     2      0.503369      0.700467      1.040193
     9     2      0.935544      0.228519      0.765583
    10     2      0.388647      1.055357      0.764996
    11     2      0.168701      0.493384      0.692565
    12     2      0.498860      0.523187      0.448924
    13     2      0.165843      0.323590      0.661256
    14     2      0.850729      0.153679      0.100372
    15     2      0.322302      0.679094      1.046514
    16     2      0.921048      0.722223      0.575578
ITEM: TIMESTEP
1827
ITEM: NUMBER OF ATOMS
16
ITEM: BOX BOUNDS xy xz yz  pp  pp  pp
     -0.300000      4.040544      0.000000
     -0.300000      4.040544      0.000000
     -0.300000      2.769228      0.000000
ITEM: ATOMS id type xs ys zs
     1     1      0.222296      0.224417      0.172812
     2     1      0.652651      0.263641      0.612758
     3     1      0.313482      0.796361      0.518346
     4     1      0.820841      0.705647      1.031441
     5     2      0.860898      1.027419      0.184957
     6     2      0.526734      1.023163      1.053081
     7     2      0.987462      0.463350      0.240503
     8     2      0.502888      0.700059      1.039940
     9     2      0.935903      0.228512      0.765178
    10     2      0.389032      1.055500      0.765307
    11     2      0.168617      0.492662      0.692631