ITEM: TIMESTEP
1801
ITEM: NUMBER OF ATOMS
16
ITEM: BOX BOUNDS xy xz yz  pp  pp  pp
     -0.300000      4.040544      0.000000
     -0.300000      4.040544      0.000000
     -0.300000      2.769228      0.000000
ITEM: ATOMS id type xs ys zs
     1     1      0.218937      0.221976      0.171228
     2     1      0.651992      0.262192      0.617325
     3     1      0.318432      0.801272      0.514212
     4     1      0.822754      0.712873      1.036982
     5     2      0.861020      1.028792      0.193583
     6     2      0.531395      1.018084      1.047433
     7     2      0.990359      0.464262      0.235132
     8     2      0.504132      0.701858      1.040227
     9     2      0.921562      0.229383      0.765093
    10     2      0.387014      1.053386      0.760942
    11     2      0.169179      0.493013      0.702671
    12     2      0.497684      0.522518      0.445856
    13     2      0.161257      0.329384      0.656546
    14     2      0.857281      0.151992      0.104079
    15     2      0.323374      0.669075      1.045170
    16     2      0.923159      0.723021      0.580474
ITEM: TIMESTEP
1802
ITEM: NUMBER OF ATOMS
16
ITEM: BOX BOUNDS xy xz yz  pp  pp  pp
     -0.300000      4.040544      0.000000
     -0.300000      4.040544      0.000000
     -0.300000      2.769228      0.000000
ITEM: ATOMS id type xs ys zs
     1     1      0.219753      0.222669      0.172053
     2     1      0.651376      0.262283      0.616896
     3     1      0.318503      0.800804      0.514291
     4     1      0.822602      0.712271      1.036093
     5     2      0.861070      1.028490      0.193838
     6     2      0.531240      1.018022      1.047571
     7     2      0.990679      0.463958      0.235761
     8     2      0.504036      0.701911      1.039912
     9     2      0.922402      0.228909      0.765145
    10     2      0.387148      1.053847      0.761539
    11     2      0.169285      0.492926      0.702080
    12     2      0.497312      0.522890      0.446409
    13     2      0.161659      0.328705      0.657202
    14     2      0.857103      0.152125      0.104252
    15     2      0.323323      0.669308      1.044931
    16     2      0.922584      0.723083      0.580874
ITEM: TIMESTEP
1803
ITEM: NUMBER OF ATOMS
16
ITEM: BOX BOUNDS xy xz yz  pp  pp  pp
     -0.300000      4.040544      0.000000
     -0.300000      4.040544      0.000000
     -0.300000      2.769228      0.000000
ITEM: ATOMS id type xs ys zs
     1     1      0.220182      0.222918      0.172459
     2     1      0.650846      0.262040      0.616921
     3     1      0.318169      0.800221      0.514043
     4     1      0.822233      0.712031      1.034892
     5     2      0.861138      1.028725      0.193400
     6     2      0.530637      1.018443      1.047665
     7     2      0.990628      0.464280      0.236889
     8     2      0.503717      0.702019      1.040101
     9     2      0.922234      0.228777      0.765926
    10     2      0.386921      1.054032      0.761879
    11     2      0.169608      0.492886      0.702280
    12     2      0.497487      0.522951      0.447362
    13     2      0.161819      0.329176      0.657613
    14     2      0.856491      0.151984      0.104293
    15     2      0.323223      0.669648      1.045107
    16     2      0.921779      0.723297      0.581703
ITEM: TIMESTEP
1804
ITEM: NUMBER OF ATOMS
16
ITEM: BOX BOUNDS xy xz yz  pp  pp  pp
     -0.300000      4.040544      0.000000
     -0.300000      4.040544      0.000000
     -0.300000      2.769228      0.000000
ITEM: ATOMS id type xs ys zs
     1     1      0.220339      0.223104      0.173228
     2     1      0.650325      0.262588      0.616890
     3     1      0.317395      0.799638      0.513831
     4     1      0.822621      0.711879      1.034714
     5     2      0.861119      1.029032      0.193088
     6     2      0.530312      1.018516      1.047950
     7     2      0.990184      0.464619      0.236945
     8     2      0.503872      0.701785      1.039398
     9     2      0.922602      0.228731      0.766583
    10     2      0.387063      1.054215      0.761462
    11     2      0.169253      0.492996      0.701314
    12     2      0.497532      0.522943      0.447253
    13     2      0.161806      0.329144      0.658511
    14     2      0.856197      0.152462      0.104661
    15     2      0.323476      0.670075      1.044585
    16     2      0.921927      0.723841      0.582093
ITEM: TIMESTEP
1805
ITEM: NUMBER OF ATOMS
16
ITEM: BOX BOUNDS xy xz yz  pp  pp  pp
     -0.300000      4.040544      0.000000
     -0.300000      4.040544      0.000000
     -0.300000      2.769228      0.000000
ITEM: ATOMS id type xs ys zs
     1     1      0.220715      0.222824      0.172689
     2     1      0.650049      0.263079      0.616445
     3     1      0.316988      0.799883      0.514139
     4     1      0.822226      0.711584      1.034369
     5     2      0.861058      1.029417      0.192919
     6     2      0.529958      1.018195      1.048505
     7     2      0.989756      0.464135      0.237156
     8     2      0.503251      0.701875      1.039502
     9     2      0.922676      0.228517      0.766106
    10     2      0.387214      1.054031      0.761836
    11     2      0.169271      0.492782      0.701245
    12     2      0.497315      0.523173      0.447500
    13     2      0.162226      0.328600      0.659437
    14     2      0.855630      0.152958      0.104842
    15     2      0.323520      0.670603      1.044484
    16     2      0.921698      0.724326      0.581990
ITEM: TIMESTEP
1806
ITEM: NUMBER OF ATOMS
16
ITEM: BOX BOUNDS xy xz yz  pp  pp  pp
     -0.300000      4.040544      0.000000
     -0.300000      4.040544      0.000000
     -0.300000      2.769228      0.000000
ITEM: ATOMS id type xs ys zs
     1     1      0.220870      0.222808      0.172881
     2     1      0.650442      0.262939      0.615970
     3     1      0.317077      0.799474      0.513910
     4     1      0.822825      0.710832      1.033261
     5     2      0.860870      1.029995      0.192482
     6     2      0.529738      1.017922      1.048537
     7     2      0.989476      0.464131      0.237133
     8     2      0.503983      0.701835      1.039576
     9     2      0.923034      0.228508      0.765630
    10     2      0.387507      1.053923      0.763079
    11     2      0.169335      0.492339      0.700829
    12     2      0.497447      0.523250      0.448049
    13     2      0.162339      0.328006      0.659577
    14     2      0.855281      0.153022      0.104375
    15     2      0.322779      0.671096      1.044563
    16     2      0.921594      0.724053      0.581964
ITEM: TIMESTEP
1807
ITEM: NUMBER OF ATOMS
16
ITEM: BOX BOUNDS xy xz yz  pp  pp  pp
     -0.300000      4.040544      0.000000
     -0.300000      4.040544      0.000000
     -0.300000      2.769228      0.000000
ITEM: ATOMS id type xs ys zs
     1     1      0.220927      0.223330      0.172906
     2     1      0.650455      0.262741      0.615918
     3     1      0.316775      0.798990      0.513231
     4     1      0.822428      0.710256      1.033265
     5     2      0.860759      1.030597      0.191818
     6     2      0.529529      1.018352      1.048504
     7     2      0.989634      0.464434      0.237527
     8     2      0.504058      0.702420      1.040208
     9     2      0.923419      0.228656      0.766112
    10     2      0.387553      1.054138      0.763024
    11     2      0.169067      0.492646      0.700283
    12     2      0.497280      0.523893      0.448068
    13     2      0.162387      0.328147      0.660567
    14     2      0.854515      0.153110      0.104866
    15     2      0.322855      0.671280      1.045037
    16     2      0.921451      0.723648      0.581631
ITEM: TIMESTEP
1808
ITEM: NUMBER OF ATOMS
16
ITEM: BOX BOUNDS xy xz yz  pp  pp  pp
     -0.300000      4.040544      0.000000
     -0.300000      4.040544      0.000000
     -0.300000      2.769228      0.000000
ITEM: ATOMS id type xs ys zs
     1     1      0.221473      0.223608      0.173145
     2     1      0.649361      0.262835      0.615599
     3     1      0.317505      0.798240      0.513530
     4     1      0.822170      0.709612      1.032848
     5     2      0.860976      1.030530      0.191677
     6     2      0.528829      1.018162      1.047936
     7     2      0.989342      0.464281      0.237237
     8     2      0.504500      0.702497      1.040503
     9     2      0.923466      0.228410      0.766364
    10     2      0.388273      1.054676      0.764183
    11     2      0.168677      0.492293      0.699691
    12     2      0.497561      0.524409      0.448449
    13     2      0.162757      0.328041      0.660392
    14     2      0.854345      0.153119      0.105099
    15     2      0.322247      0.671481      1.045037
    16     2      0.921681      0.723633      0.582261
ITEM: TIMESTEP
1809
ITEM: NUMBER OF ATOMS
16
ITEM: BOX BOUNDS xy xz yz  pp  pp  pp
     -0.300000      4.040544      0.000000
     -0.300000      4.040544      0.000000
     -0.300000      2.769228      0.000000
ITEM: ATOMS id type xs ys zs
     1     1      0.222020      0.223007      0.172732
     2     1      0.649511      0.263344      0.614989
     3     1      0.317320      0.798034      0.513596
     4     1      0.822980      0.709525      1.031843
     5     2      0.860796      1.030382      0.191290
     6     2      0.528612      1.017785      1.047886
     7     2      0.989143      0.464481      0.237715
     8     2      0.504775      0.701962      1.041023
     9     2      0.924149      0.228173      0.766440
    10     2      0.387936      1.055049      0.764158
    11     2      0.168466      0.492455      0.700096
    12     2      0.497459      0.524638      0.447925
    13     2      0.162603      0.327956      0.661367
    14     2      0.855066      0.153849      0.105347
    15     2      0.322460      0.671199      1.044547
    16     2      0.921507      0.724126      0.582435
ITEM: TIMESTEP
1810
ITEM: NUMBER OF ATOMS
16
ITEM: BOX BOUNDS xy xz yz  pp  pp  pp
     -0.300000      4.040544      0.000000
     -0.300000      4.040544      0.000000
     -0.300000      2.769228      0.000000
ITEM: ATOMS id type xs ys zs
     1     1      0.221752      0.222940      0.172978
     2     1      0.649955      0.263381      0.614319
     3     1      0.317172      0.797724      0.515065
     4     1      0.822626      0.708660      1.031878
     5     2      0.860743      1.030187      0.191242
     6     2      0.528250      1.018056      1.048261
     7     2      0.988925      0.464891      0.237864
     8     2      0.504664      0.701816      1.040750
     9     2      0.924239      0.228389      0.767207
    10     2      0.386979      1.055555      0.764601
    11     2      0.168393      0.492212      0.699547
    12     2      0.497675      0.524602      0.447567
    13     2      0.163080      0.327887      0.661546
    14     2      0.855169      0.154124      0.105502
    15     2      0.322448      0.671373      1.044209
    16     2      0.921783      0.723909      0.582328
ITEM: TIMESTEP
1811
ITEM: NUMBER OF ATOMS
16
ITEM: BOX BOUNDS xy xz yz  pp  pp  pp
     -0.300000      4.040544      0.000000
     -0.300000      4.040544      0.000000
     -0.300000      2.769228      0.000000
ITEM: ATOMS id type xs ys zs
     1     1      0.221523      0.223144      0.172849
     2     1      0.650409      0.263048      0.613663
     3     1      0.317130      0.796781      0.515648
     4     1      0.822226      0.708558      1.031810
     5     2      0.860411      1.030222      0.191092
     6     2      0.528300      1.018396      1.048721
     7     2      0.989090      0.465394      0.238328
     8     2      0.504314      0.701671      1.040966
     9     2      0.924815      0.228310      0.766629
    10     2      0.387573      1.056088      0.764072
    11     2      0.168666      0.492389      0.698767
    12     2      0.497457      0.524672      0.448211
    13     2      0.163017      0.327484      0.661991
    14     2      0.855146      0.154442      0.104653
    15     2      0.322711      0.671694      1.044475
    16     2      0.921209      0.724453      0.582017
ITEM: TIMESTEP
1812
ITEM: NUMBER OF ATOMS
16
ITEM: BOX BOUNDS xy xz yz  pp  pp  pp
     -0.300000      4.040544      0.000000
     -0.300000      4.040544      0.000000
     -0.300000      2.769228      0.000000
ITEM: ATOMS id type xs ys zs
     1     1      0.221315      0.223131      0.173208
     2     1      0.650844      0.263370      0.613185
     3     1      0.316817      0.796706      0.515731
     4     1      0.822211      0.708092      1.031215
     5     2      0.860482      1.030113      0.190912
     6     2      0.528284      1.018732      1.049217
     7     2      0.988975      0.465698      0.238100
     8     2      0.504619      0.701472      1.041252
     9     2      0.924988      0.227944      0.766264
    10     2      0.387189      1.056090      0.764127
    11     2      0.168601      0.492374      0.698781
    12     2      0.497666      0.524871      0.447632
    13     2      0.163458      0.326828      0.661943
    14     2      0.855660      0.154589      0.104496
    15     2      0.322648      0.671626      1.044475
    16     2      0.921336      0.724666      0.582164
ITEM: TIMESTEP
1813
ITEM: NUMBER OF ATOMS
16
ITEM: BOX BOUNDS xy xz yz  pp  pp  pp
     -0.300000      4.040544      0.000000
     -0.300000      4.040544      0.000000
     -0.300000      2.769228      0.000000
ITEM: ATOMS id type xs ys zs
     1     1      0.221356      0.223733      0.172387
     2     1      0.651062      0.263335      0.612880
     3     1      0.316705      0.796464      0.515561
     4     1      0.822386      0.707662      1.030694
     5     2      0.860996      1.030691      0.190666
     6     2      0.528229      1.018899      1.049417
     7     2      0.988744      0.465794      0.238877
     8     2      0.504880      0.702012      1.040862
     9     2      0.925799      0.228085      0.765957
    10     2      0.387318      1.056569      0.764371
    11     2      0.168906      0.492248      0.699250
    12     2      0.497405      0.525233      0.447873
    13     2      0.163856      0.326410      0.662483
    14     2      0.855620      0.154708      0.104950
    15     2      0.322750      0.671726      1.044083
    16     2      0.920824      0.724358      0.581819
ITEM: TIMESTEP
1814
ITEM: NUMBER OF ATOMS
16
ITEM: BOX BOUNDS xy xz yz  pp  pp  pp
     -0.300000      4.040544      0.000000
     -0.300000      4.040544      0.000000
     -0.300000      2.769228      0.000000
ITEM: ATOMS id type xs ys zs
     1     1      0.221842      0.223837      0.172205
     2     1      0.651516      0.263772      0.613053
     3     1      0.316002      0.796194      0.516225
     4     1      0.822099      0.707221      1.030355
     5     2      0.861593      1.030509      0.189612
     6     2      0.528470      1.018903      1.049551
     7     2      0.988300      0.465552      0.239022
     8     2      0.505155      0.701607      1.041144
     9     2      0.926105      0.227763      0.766060
    10     2      0.387369      1.056245      0.764018
    11     2      0.169330      0.491991      0.698464
    12     2      0.497620      0.524968      0.447651
    13     2      0.163860      0.325969      0.662460
    14     2      0.855656      0.154426      0.105338
    15     2      0.323205      0.671742      1.044120
    16     2      0.920900      0.724343      0.581839
ITEM: TIMESTEP
1815
ITEM: NUMBER OF ATOMS
16
ITEM: BOX BOUNDS xy xz yz  pp  pp  pp
     -0.300000      4.040544      0.000000
     -0.300000      4.040544      0.000000
     -0.300000      2.769228      0.000000
ITEM: ATOMS id type xs ys zs
     1     1      0.221730      0.224148      0.172223
     2     1      0.650748      0.264023      0.612992
     3     1      0.315657      0.795847      0.516753
     4     1      0.821365      0.707377      1.030143
     5     2      0.861836      1.030059      0.189441
     6     2      0.528492      1.018648      1.049219
     7     2      0.988045      0.465552      0.239056
     8     2      0.505519      0.701270      1.041524
     9     2      0.926501      0.227451      0.765998
    10     2      0.386990      1.056560      0.764234
    11     2      0.169072      0.492277      0.698357
    12     2      0.497783      0.525305      0.447536
    13     2      0.164076      0.325861      0.662355
    14     2      0.855416      0.154530      0.104809
    15     2      0.322913      0.672098      1.043723
    16     2      0.921209      0.724531      0.581786
ITEM: TIMESTEP
1816
ITEM: NUMBER OF ATOMS
16
ITEM: BOX BOUNDS xy xz yz  pp  pp  pp
     -0.300000      4.040544      0.000000
     -0.300000      4.040544      0.000000
     -0.300000      2.769228      0.000000
ITEM: ATOMS id type xs ys zs
     1     1      0.221717      0.224501      0.171884
     2     1      0.650856      0.264377      0.613760
     3     1      0.316239      0.795261      0.516431
     4     1      0.821765      0.707403      1.029584
     5     2      0.862355      1.030290      0.189762
     6     2      0.528133      1.018644      1.049600
     7     2      0.988221      0.465530      0.239341
     8     2      0.505070      0.701437      1.041631
     9     2      0.926756      0.227740      0.766068
    10     2      0.386456      1.056418      0.764388
    11     2      0.168808      0.492541      0.697830
    12     2      0.497643      0.525283      0.447337
    13     2      0.164155      0.326241      0.662634
    14     2      0.855339      0.155235      0.104435
    15     2      0.323001      0.672779      1.043742
    16     2      0.920902      0.724291      0.581848
ITEM: TIMESTEP
1817
ITEM: NUMBER OF ATOMS
16
ITEM: BOX BOUNDS xy xz yz  pp  pp  pp
     -0.300000      4.040544      0.000000
     -0.300000      4.040544      0.000000
     -0.300000      2.769228      0.000000
ITEM: ATOMS id type xs ys zs
     1     1      0.222121      0.225063      0.170645
     2     1      0.651037      0.264254      0.613060
     3     1      0.316184      0.795275      0.516760
     4     1      0.821740      0.706517      1.029271
     5     2      0.862727      1.030118      0.189148
     6     2      0.527802      1.018614      1.050313
     7     2      0.988400      0.465332      0.239521
     8     2      0.504954      0.701544      1.041498
     9     2      0.927044      0.227232      0.765708
    10     2      0.386448      1.056541      0.763765
    11     2      0.169131      0.492951      0.697926
    12     2      0.497801      0.525096      0.447324
    13     2      0.164799      0.325538      0.661952
    14     2      0.855429      0.155545      0.104382
    15     2      0.323007      0.673265      1.043986
    16     2      0.920713      0.724565      0.581852
ITEM: TIMESTEP
1818
ITEM: NUMBER OF ATOMS
16
ITEM: BOX BOUNDS xy xz yz  pp  pp  pp
     -0.300000      4.040544      0.000000
     -0.300000      4.040544      0.000000
     -0.300000      2.769228      0.000000
ITEM: ATOMS id type xs ys zs
     1     1      0.222563      0.225638      0.169691
     2     1      0.651421      0.264259      0.612110
     3     1      0.315419      0.795148      0.516213
     4     1      0.822080      0.705902      1.029729
     5     2      0.862430      1.030169      0.188193
     6     2      0.527810      1.018745      1.050739
     7     2      0.988333      0.465566      0.240647
     8     2      0.504990      0.701159      1.041691
     9     2      0.927883      0.226711      0.766137
    10     2      0.386407      1.056552      0.764116
    11     2      0.169488      0.493134      0.696909
    12     2      0.497904      0.524865      0.446531
    13     2      0.165337      0.325676      0.660915
    14     2      0.855245      0.156142      0.104083
    15     2      0.323189      0.673638      1.043986
    16     2      0.920876      0.724387      0.581009
ITEM: TIMESTEP
1819
ITEM: NUMBER OF ATOMS
16
ITEM: BOX BOUNDS xy xz yz  pp  pp  pp
     -0.300000      4.040544      0.000000
     -0.300000      4.040544      0.000000
     -0.300000      2.769228      0.000000
ITEM: ATOMS id type xs ys zs
     1     1      0.222674      0.226073      0.169891
     2     1      0.651410      0.264062      0.612307
     3     1      0.315330      0.795269      0.516624
     4     1      0.822231      0.705672      1.029146
     5     2      0.863430      1.029717      0.188267
     6     2      0.527548      1.019302      1.049504
     7     2      0.988167      0.465711      0.241688
     8     2      0.504589      0.702064      1.041538
     9     2      0.928525      0.226680      0.766314
    10     2      0.386256      1.056530      0.763947
    11     2      0.169265      0.493176      0.696416
    12     2      0.497626      0.524752      0.446293
    13     2      0.165432      0.325345      0.661700
    14     2      0.855058      0.156686      0.105036
    15     2      0.323219      0.673995      1.043610
    16     2      0.920586      0.724368      0.581249
ITEM: TIMESTEP
1820
ITEM: NUMBER OF ATOMS
16
ITEM: BOX BOUNDS xy xz yz  pp  pp  pp
     -0.300000      4.040544      0.000000
     -0.300000      4.040544      0.000000
     -0.300000      2.769228      0.000000
ITEM: ATOMS id type xs ys zs
     1     1      0.223061      0.226648      0.170321
     2     1      0.651540      0.264374      0.612861
     3     1      0.315143      0.795331      0.516894
     4     1      0.821534      0.705545      1.029017
     5     2      0.863484      1.029022      0.187842
     6     2      0.527349      1.020019      1.049182
     7     2      0.987902      0.466146      0.241938
     8     2      0.504139      0.702262      1.041508
     9     2      0.928616      0.225955      0.766141
    10     2      0.386434      1.056635      0.764031
    11     2      0.169770      0.493189      0.696864
    12     2      0.497314      0.525116      0.446430
    13     2      0.165659      0.325167      0.662188
    14     2      0.854654      0.156737      0.104902
    15     2      0.323156      0.674675      1.042981
    16     2      0.920788      0.724363      0.582142
ITEM: TIMESTEP
1821
ITEM: NUMBER OF ATOMS
16
ITEM: BOX BOUNDS xy xz yz  pp  pp  pp
     -0.300000      4.040544      0.000000
     -0.300000      4.040544      0.000000
     -0.300000      2.769228      0.000000
ITEM: ATOMS id type xs ys zs
     1     1      0.223270      0.226689      0.170558
     2     1      0.651735      0.264459      0.613086
     3     1      0.315379      0.795790      0.517005
     4     1      0.820920      0.705129      1.029939
     5     2      0.863780      1.029128      0.187742
     6     2      0.527147      1.020165      1.049629
     7     2      0.988229      0.466419      0.242357
     8     2      0.503917      0.702253      1.040693
     9     2      0.928559      0.226228      0.765678
    10     2      0.386401      1.056969      0.764191
    11     2      0.169989      0.492729      0.697092
    12     2      0.497135      0.525094      0.446589
    13     2      0.166040      0.325091      0.662065
    14     2      0.854156      0.156933      0.104518
    15     2      0.322786      0.675078      1.042223
    16     2      0.920783      0.724762      0.581784
ITEM: TIMESTEP
1822
ITEM: NUMBER OF ATOMS
16
ITEM: BOX BOUNDS xy xz yz  pp  pp  pp
     -0.300000      4.040544      0.000000
     -0.300000      4.040544      0.000000
     -0.300000      2.769228      0.000000
ITEM: ATOMS id type xs ys zs
     1     1      0.223902      0.227444      0.170648
     2     1      0.652307      0.264221      0.612921
     3     1      0.314965      0.795737      0.517288
     4     1      0.820921      0.705300      1.029403
     5     2      0.863781      1.029115      0.187175
     6     2      0.526403      1.020935      1.049405
     7     2      0.988150      0.466480      0.242701
     8     2      0.503747      0.701714      1.040933
     9     2      0.928446      0.226250      0.765780
    10     2      0.386230      1.057068      0.764608
    11     2      0.170113      0.492612      0.697342
    12     2      0.497363      0.524691      0.445707
    13     2      0.165444      0.325020      0.661971
    14     2      0.853860      0.156692      0.104659
    15     2      0.322584      0.675599      1.042191
    16     2      0.921223      0.724615      0.581332
ITEM: TIMESTEP
1823
ITEM: NUMBER OF ATOMS
16
ITEM: BOX BOUNDS xy xz yz  pp  pp  pp
     -0.300000      4.040544      0.000000
     -0.300000      4.040544      0.000000
     -0.300000      2.769228      0.000000
ITEM: ATOMS id type xs ys zs
     1     1      0.224123      0.227784      0.170973
     2     1      0.651892      0.263994      0.612512
     3     1      0.314672      0.795539      0.517316
     4     1      0.820734      0.705225      1.029569
     5     2      0.864003      1.028573      0.187172
     6     2      0.526776      1.021418      1.049849
     7     2      0.988147      0.466732      0.243366
     8     2      0.503571      0.701820      1.040792
     9     2      0.929042      0.226021      0.765314
    10     2      0.385961      1.057188      0.764111
    11     2      0.170290      0.492130      0.696729
    12     2      0.497990      0.524788      0.445121
    13     2      0.165999      0.325154      0.662073
    14     2      0.853979      0.156696      0.104396
    15     2      0.321842      0.675804      1.041545
    16     2      0.921089      0.723897      0.581393
ITEM: TIMESTEP
1824
ITEM: NUMBER OF ATOMS
16
ITEM: BOX BOUNDS xy xz yz  pp  pp  pp
     -0.300000      4.040544      0.000000
     -0.300000      4.040544      0.000000
     -0.300000      2.769228      0.000000
ITEM: ATOMS id type xs ys zs
     1     1      0.223630      0.228112      0.170407
     2     1      0.651924      0.264964      0.612696
     3     1      0.314521      0.794875      0.517239
     4     1      0.820678      0.704893      1.029133
     5     2      0.863980      1.028318      0.187049
     6     2      0.526722      1.021644      1.049745
     7     2      0.987691      0.467260      0.244103
     8     2      0.503262      0.701102      1.040445
     9     2      0.929410      0.225995      0.765256
    10     2      0.386262      1.057277      0.763848
    11     2      0.170351      0.492084      0.696486
    12     2      0.497889      0.524251      0.444830
    13     2      0.166198      0.324741      0.662798
    14     2      0.853905      0.156752      0.104347
    15     2      0.321813      0.676203      1.041383
    16     2      0.920905      0.724290      0.581838
ITEM: TIMESTEP
1825
ITEM: NUMBER OF ATOMS
16
ITEM: BOX BOUNDS xy xz yz  pp  pp  pp
     -0.300000      4.040544      0.000000
     -0.300000      4.040544      0.000000
     -0.300000      2.769228      0.000000
ITEM: ATOMS id type xs ys zs
     1     1      0.223849      0.227781      0.169857
     2     1      0.651882      0.264180      0.611906
     3     1      0.314339      0.795150      0.516989
     4     1      0.820794      0.704935      1.029122
     5     2      0.864157      1.027599      0.186706
     6     2      0.526547      1.021521      1.050815
     7     2      0.988072      0.467125      0.244441
     8     2      0.503235      0.701398      1.040933
     9     2      0.929637      0.226311      0.766049
    10     2      0.386491      1.057168      0.764545
    11     2      0.170118      0.492050      0.695159
    12     2      0.498127      0.524389      0.445379
    13     2      0.166683      0.324728      0.663139
    14     2      0.853902      0.157341      0.104634
    15     2      0.322020      0.676630      1.041197
    16     2      0.921125      0.724835      0.582630
ITEM: TIMESTEP
1826
ITEM: NUMBER OF ATOMS
16
ITEM: BOX BOUNDS xy xz yz  pp  pp  pp
     -0.300000      4.040544      0.000000
     -0.300000      4.040544      0.000000
     -0.300000      2.769228      0.000000
ITEM: ATOMS id type xs ys zs
     1     1      0.223918      0.228074      0.170016
     2     1      0.652125      0.264211      0.611697
     3     1      0.313880      0.794667      0.516847
     4     1      0.820050      0.704798      1.028658
     5     2      0.864415      1.027541      0.186274
     6     2      0.526492      1.021464      1.050227
     7     2      0.987396      0.466570      0.245202
     8     2      0.503643      0.701394      1.040432
     9     2      0.930065      0.226723      0.766586
    10     2      0.386557      1.057957      0.764954
    11     2      0.169897      0.491501      0.695653
    12     2      0.497944      0.523936      0.445173
    13     2      0.167408      0.324799      0.662951
    14     2      0.853528      0.157182      0.104653
    15     2      0.322124      0.677148      1.040454
    16     2      0.921001      0.725312      0.583228
ITEM: TIMESTEP
1827
ITEM: NUMBER OF ATOMS
16
ITEM: BOX BOUNDS xy xz yz  pp  pp  pp
     -0.300000      4.040544      0.000000
     -0.300000      4.040544      0.000000
     -0.300000      2.769228      0.000000
ITEM: ATOMS id type xs ys zs
     1     1      0.224088      0.227699      0.170374
     2     1      0.652468      0.264378      0.610624
     3     1      0.313824      0.794764      0.517403
     4     1      0.820139      0.704722      1.028604
     5     2      0.864620      1.028034      0.186251
     6     2      0.526376      1.021367      1.051027
     7     2      0.987793      0.466547      0.245633
     8     2      0.503741      0.700870      1.040337
     9     2      0.929728      0.226315      0.766893
    10     2      0.386694      1.058058      0.764836
    11     2      0.169747      0.491694      0.695982