ITEM: TIMESTEP
1801
ITEM: NUMBER OF ATOMS
16
ITEM: BOX BOUNDS xy xz yz  pp  pp  pp
     -0.300000      4.040544      0.000000
     -0.300000      4.040544      0.000000
     -0.300000      2.769228      0.000000
ITEM: ATOMS id type xs ys zs
     1     1      0.218884      0.221766      0.170910
     2     1      0.652068      0.262517      0.616928
     3     1      0.318450      0.800899      0.514471
     4     1      0.822706      0.713002      1.037365
     5     2      0.860912      1.029036      0.194274
     6     2      0.531886      1.017778      1.048187
     7     2      0.990170      0.463765      0.235671
     8     2      0.504044      0.701503      1.039329
     9     2      0.921468      0.228918      0.765949
    10     2      0.387032      1.052907      0.760341
    11     2      0.169302      0.493845      0.703173
    12     2      0.497739      0.522631      0.446450
    13     2      0.161240      0.329879      0.655925
    14     2      0.856613      0.152580      0.104720
    15     2      0.322951      0.669772      1.046054
    16     2      0.923438      0.723044      0.580951
ITEM: TIMESTEP
1802
ITEM: NUMBER OF ATOMS
16
ITEM: BOX BOUNDS xy xz yz  pp  pp  pp
     -0.300000      4.040544      0.000000
     -0.300000      4.040544      0.000000
     -0.300000      2.769228      0.000000
ITEM: ATOMS id type xs ys zs
     1     1      0.219080      0.221595      0.170682
     2     1      0.651205      0.262269      0.616678
     3     1      0.317946      0.800183      0.515250
     4     1      0.822546      0.712410      1.037087
     5     2      0.860841      1.029308      0.193854
     6     2      0.531839      1.018553      1.048283
     7     2      0.990429      0.463444      0.235544
     8     2      0.504615      0.701392      1.039771
     9     2      0.921692      0.228782      0.766455
    10     2      0.387080      1.053522      0.760531
    11     2      0.169643      0.493731      0.702751
    12     2      0.498210      0.523251      0.446977
    13     2      0.161511      0.330023      0.655992
    14     2      0.856089      0.152784      0.104218
    15     2      0.322806      0.670366      1.046528
    16     2      0.923466      0.722613      0.581194
ITEM: TIMESTEP
1803
ITEM: NUMBER OF ATOMS
16
ITEM: BOX BOUNDS xy xz yz  pp  pp  pp
     -0.300000      4.040544      0.000000
     -0.300000      4.040544      0.000000
     -0.300000      2.769228      0.000000
ITEM: ATOMS id type xs ys zs
     1     1      0.219257      0.221936      0.170494
     2     1      0.651422      0.261956      0.615827
     3     1      0.317743      0.799632      0.515557
     4     1      0.822427      0.711737      1.037437
     5     2      0.861098      1.029654      0.193718
     6     2      0.531291      1.018611      1.048147
     7     2      0.990097      0.463318      0.235539
     8     2      0.504398      0.701829      1.039934
     9     2      0.922280      0.228933      0.767008
    10     2      0.387078      1.053279      0.762364
    11     2      0.169634      0.493981      0.702039
    12     2      0.498001      0.523814      0.447053
    13     2      0.161540      0.329851      0.656104
    14     2      0.856044      0.153132      0.104780
    15     2      0.322824      0.670140      1.046457
    16     2      0.923609      0.722574      0.581025
ITEM: TIMESTEP
1804
ITEM: NUMBER OF ATOMS
16
ITEM: BOX BOUNDS xy xz yz  pp  pp  pp
     -0.300000      4.040544      0.000000
     -0.300000      4.040544      0.000000
     -0.300000      2.769228      0.000000
ITEM: ATOMS id type xs ys zs
     1     1      0.218943      0.222274      0.170077
     2     1      0.651249      0.262364      0.615315
     3     1      0.317522      0.799010      0.516191
     4     1      0.822154      0.711207      1.038089
     5     2      0.861059      1.029766      0.193464
     6     2      0.531907      1.019114      1.048088
     7     2      0.989934      0.463545      0.236101
     8     2      0.504437      0.701189      1.039624
     9     2      0.922814      0.228665      0.766775
    10     2      0.388035      1.053803      0.762722
    11     2      0.170155      0.494128      0.701979
    12     2      0.497507      0.524461      0.447494
    13     2      0.160697      0.329832      0.655999
    14     2      0.855604      0.152965      0.104895
    15     2      0.322565      0.669797      1.045915
    16     2      0.922822      0.722461      0.580864
ITEM: TIMESTEP
1805
ITEM: NUMBER OF ATOMS
16
ITEM: BOX BOUNDS xy xz yz  pp  pp  pp
     -0.300000      4.040544      0.000000
     -0.300000      4.040544      0.000000
     -0.300000      2.769228      0.000000
ITEM: ATOMS id type xs ys zs
     1     1      0.218692      0.222006      0.169924
     2     1      0.650846      0.262945      0.615230
     3     1      0.316931      0.798366      0.516951
     4     1      0.822499      0.710355      1.037012
     5     2      0.860539      1.029831      0.193214
     6     2      0.532074      1.019460      1.048658
     7     2      0.990325      0.462828      0.236957
     8     2      0.504218      0.700961      1.040434
     9     2      0.923051      0.228785      0.766587
    10     2      0.388215      1.054306      0.762491
    11     2      0.170420      0.494335      0.701584
    12     2      0.496941      0.524383      0.447892
    13     2      0.160986      0.329627      0.656933
    14     2      0.855510      0.153531      0.104984
    15     2      0.322364      0.670057      1.046015
    16     2      0.923247      0.722704      0.581045
ITEM: TIMESTEP
1806
ITEM: NUMBER OF ATOMS
16
ITEM: BOX BOUNDS xy xz yz  pp  pp  pp
     -0.300000      4.040544      0.000000
     -0.300000      4.040544      0.000000
     -0.300000      2.769228      0.000000
ITEM: ATOMS id type xs ys zs
     1     1      0.218863      0.222464      0.169672
     2     1      0.651213      0.263076      0.615182
     3     1      0.317084      0.798031      0.517548
     4     1      0.822339      0.709254      1.036704
     5     2      0.860791      1.029816      0.192307
     6     2      0.531551      1.019562      1.049208
     7     2      0.990693      0.462959      0.237522
     8     2      0.504407      0.700435      1.039936
     9     2      0.923793      0.228812      0.766180
    10     2      0.387864      1.054515      0.762301
    11     2      0.170499      0.494245      0.701713
    12     2      0.497531      0.524388      0.446892
    13     2      0.160552      0.329078      0.656629
    14     2      0.854958      0.153269      0.104776
    15     2      0.322349      0.670039      1.045717
    16     2      0.923903      0.722699      0.581508
ITEM: TIMESTEP
1807
ITEM: NUMBER OF ATOMS
16
ITEM: BOX BOUNDS xy xz yz  pp  pp  pp
     -0.300000      4.040544      0.000000
     -0.300000      4.040544      0.000000
     -0.300000      2.769228      0.000000
ITEM: ATOMS id type xs ys zs
     1     1      0.218760      0.222282      0.168733
     2     1      0.651264      0.263093      0.614008
     3     1      0.316847      0.798118      0.517968
     4     1      0.822816      0.709121      1.036600
     5     2      0.860614      1.029885      0.192648
     6     2      0.531706      1.019849      1.049386
     7     2      0.990877      0.462899      0.237256
     8     2      0.504559      0.700127      1.039840
     9     2      0.924406      0.228959      0.766143
    10     2      0.387861      1.055108      0.761721
    11     2      0.170406      0.494135      0.701833
    12     2      0.497477      0.524391      0.446936
    13     2      0.160236      0.329249      0.656696
    14     2      0.854801      0.153155      0.104010
    15     2      0.321899      0.670303      1.046790
    16     2      0.924200      0.722985      0.581168
ITEM: TIMESTEP
1808
ITEM: NUMBER OF ATOMS
16
ITEM: BOX BOUNDS xy xz yz  pp  pp  pp
     -0.300000      4.040544      0.000000
     -0.300000      4.040544      0.000000
     -0.300000      2.769228      0.000000
ITEM: ATOMS id type xs ys zs
     1     1      0.219192      0.222857      0.168460
     2     1      0.650920      0.262757      0.613706
     3     1      0.317042      0.797916      0.518472
     4     1      0.823290      0.708572      1.036740
     5     2      0.860762      1.029656      0.193266
     6     2      0.531125      1.019562      1.049906
     7     2      0.991442      0.462817      0.237577
     8     2      0.504759      0.700363      1.039593
     9     2      0.924859      0.228456      0.765571
    10     2      0.388312      1.055431      0.762187
    11     2      0.170623      0.494042      0.700984
    12     2      0.497922      0.524022      0.447028
    13     2      0.160110      0.329015      0.656968
    14     2      0.854847      0.153487      0.103940
    15     2      0.322192      0.670932      1.046915
    16     2      0.923451      0.723335      0.581276
ITEM: TIMESTEP
1809
ITEM: NUMBER OF ATOMS
16
ITEM: BOX BOUNDS xy xz yz  pp  pp  pp
     -0.300000      4.040544      0.000000
     -0.300000      4.040544      0.000000
     -0.300000      2.769228      0.000000
ITEM: ATOMS id type xs ys zs
     1     1      0.219266      0.222628      0.168518
     2     1      0.651091      0.263550      0.614225
     3     1      0.316976      0.797963      0.518136
     4     1      0.823362      0.708348      1.036597
     5     2      0.860585      1.030115      0.192440
     6     2      0.531209      1.019871      1.049505
     7     2      0.991873      0.462483      0.238241
     8     2      0.504895      0.700208      1.039517
     9     2      0.925036      0.228428      0.765716
    10     2      0.388483      1.055482      0.761965
    11     2      0.169979      0.494326      0.700576
    12     2      0.497602      0.523306      0.448215
    13     2      0.160197      0.329081      0.656803
    14     2      0.854410      0.153752      0.104424
    15     2      0.322257      0.671223      1.046464
    16     2      0.923329      0.723101      0.581632
ITEM: TIMESTEP
1810
ITEM: NUMBER OF ATOMS
16
ITEM: BOX BOUNDS xy xz yz  pp  pp  pp
     -0.300000      4.040544      0.000000
     -0.300000      4.040544      0.000000
     -0.300000      2.769228      0.000000
ITEM: ATOMS id type xs ys zs
     1     1      0.219810      0.222693      0.168298
     2     1      0.651601      0.262973      0.613907
     3     1      0.316979      0.798414      0.517525
     4     1      0.822869      0.708648      1.035810
     5     2      0.860412      1.030395      0.191961
     6     2      0.530732      1.020321      1.048731
     7     2      0.992260      0.462742      0.237874
     8     2      0.504560      0.700236      1.039601
     9     2      0.925921      0.228024      0.765702
    10     2      0.387793      1.055573      0.761931
    11     2      0.169957      0.494185      0.700088
    12     2      0.498101      0.522711      0.448313
    13     2      0.160417      0.328424      0.656434
    14     2      0.853958      0.153930      0.104379
    15     2      0.321763      0.671624      1.046603
    16     2      0.923187      0.723138      0.582270
ITEM: TIMESTEP
1811
ITEM: NUMBER OF ATOMS
16
ITEM: BOX BOUNDS xy xz yz  pp  pp  pp
     -0.300000      4.040544      0.000000
     -0.300000      4.040544      0.000000
     -0.300000      2.769228      0.000000
ITEM: ATOMS id type xs ys zs
     1     1      0.220448      0.222856      0.168345
     2     1      0.651568      0.263615      0.613863
     3     1      0.317087      0.797820      0.517461
     4     1      0.822969      0.708076      1.036547
     5     2      0.860824      1.030377      0.191680
     6     2      0.529861      1.020487      1.049047
     7     2      0.992874      0.462916      0.238118
     8     2      0.504599      0.699985      1.039244
     9     2      0.925870      0.227927      0.764902
    10     2      0.388317      1.056076      0.762746
    11     2      0.169622      0.494045      0.699677
    12     2      0.498003      0.522729      0.448329
    13     2      0.161676      0.328282      0.655846
    14     2      0.853630      0.153932      0.104624
    15     2      0.321302      0.671692      1.045543
    16     2      0.923021      0.723135      0.582147
ITEM: TIMESTEP
1812
ITEM: NUMBER OF ATOMS
16
ITEM: BOX BOUNDS xy xz yz  pp  pp  pp
     -0.300000      4.040544      0.000000
     -0.300000      4.040544      0.000000
     -0.300000      2.769228      0.000000
ITEM: ATOMS id type xs ys zs
     1     1      0.220446      0.222820      0.169315
     2     1      0.651755      0.264016      0.614384
     3     1      0.317184      0.797486      0.516562
     4     1      0.823067      0.707963      1.036965
     5     2      0.860626      1.030185      0.192292
     6     2      0.529365      1.020458      1.049798
     7     2      0.992635      0.463077      0.238554
     8     2      0.504545      0.700520      1.039830
     9     2      0.926521      0.228292      0.765530
    10     2      0.388250      1.055660      0.762961
    11     2      0.169705      0.493798      0.699981
    12     2      0.497521      0.522867      0.447988
    13     2      0.161231      0.328371      0.655750
    14     2      0.852996      0.154190      0.105028
    15     2      0.321163      0.672328      1.045899
    16     2      0.922960      0.722711      0.582764
ITEM: TIMESTEP
1813
ITEM: NUMBER OF ATOMS
16
ITEM: BOX BOUNDS xy xz yz  pp  pp  pp
     -0.300000      4.040544      0.000000
     -0.300000      4.040544      0.000000
     -0.300000      2.769228      0.000000
ITEM: ATOMS id type xs ys zs
     1     1      0.220281      0.222231      0.169626
     2     1      0.651024      0.263677      0.614726
     3     1      0.317406      0.796908      0.516475
     4     1      0.823274      0.707572      1.036621
     5     2      0.860959      1.030019      0.192609
     6     2      0.528538      1.020784      1.049365
     7     2      0.992382      0.463214      0.238323
     8     2      0.504696      0.700299      1.039736
     9     2      0.926828      0.228072      0.765708
    10     2      0.388597      1.055985      0.763078
    11     2      0.169700      0.494184      0.701052
    12     2      0.497522      0.523062      0.448479
    13     2      0.161279      0.327962      0.655931
    14     2      0.852591      0.154256      0.104945
    15     2      0.321369      0.672978      1.046277
    16     2      0.922665      0.722583      0.582883
ITEM: TIMESTEP
1814
ITEM: NUMBER OF ATOMS
16
ITEM: BOX BOUNDS xy xz yz  pp  pp  pp
     -0.300000      4.040544      0.000000
     -0.300000      4.040544      0.000000
     -0.300000      2.769228      0.000000
ITEM: ATOMS id type xs ys zs
     1     1      0.220687      0.222831      0.169231
     2     1      0.651069      0.263723      0.614971
     3     1      0.317367      0.796703      0.517561
     4     1      0.823837      0.707521      1.036032
     5     2      0.860444      1.029723      0.193122
     6     2      0.528519      1.020830      1.049784
     7     2      0.992432      0.463351      0.239095
     8     2      0.504999      0.699828      1.039066
     9     2      0.927519      0.227706      0.765432
    10     2      0.388470      1.056276      0.762519
    11     2      0.169819      0.494178      0.700506
    12     2      0.497739      0.522810      0.448045
    13     2      0.160636      0.327875      0.656356
    14     2      0.852438      0.154765      0.105294
    15     2      0.321011      0.672872      1.046494
    16     2      0.922910      0.722565      0.582798
ITEM: TIMESTEP
1815
ITEM: NUMBER OF ATOMS
16
ITEM: BOX BOUNDS xy xz yz  pp  pp  pp
     -0.300000      4.040544      0.000000
     -0.300000      4.040544      0.000000
     -0.300000      2.769228      0.000000
ITEM: ATOMS id type xs ys zs
     1     1      0.220628      0.223047      0.169475
     2     1      0.651548      0.263512      0.614734
     3     1      0.317242      0.796501      0.517624
     4     1      0.823550      0.707828      1.035703
     5     2      0.860442      1.029333      0.193059
     6     2      0.528044      1.021206      1.050757
     7     2      0.991800      0.463282      0.240001
     8     2      0.504733      0.699619      1.038084
     9     2      0.928060      0.228012      0.765249
    10     2      0.388621      1.055763      0.762786
    11     2      0.169458      0.493065      0.700127
    12     2      0.497619      0.523036      0.448054
    13     2      0.160744      0.326971      0.656236
    14     2      0.852424      0.155054      0.105215
    15     2      0.320417      0.673908      1.046820
    16     2      0.923085      0.722223      0.583209
ITEM: TIMESTEP
1816
ITEM: NUMBER OF ATOMS
16
ITEM: BOX BOUNDS xy xz yz  pp  pp  pp
     -0.300000      4.040544      0.000000
     -0.300000      4.040544      0.000000
     -0.300000      2.769228      0.000000
ITEM: ATOMS id type xs ys zs
     1     1      0.220460      0.223099      0.169365
     2     1      0.651765      0.263914      0.614201
     3     1      0.317881      0.796588      0.517942
     4     1      0.823805      0.708003      1.035229
     5     2      0.860631      1.029204      0.193145
     6     2      0.527850      1.021679      1.050516
     7     2      0.992256      0.463211      0.240743
     8     2      0.504637      0.699830      1.038658
     9     2      0.928508      0.227744      0.764942
    10     2      0.388644      1.056081      0.763036
    11     2      0.169296      0.492817      0.699874
    12     2      0.497194      0.523614      0.447183
    13     2      0.161458      0.326883      0.656435
    14     2      0.852064      0.155243      0.105263
    15     2      0.320373      0.674197      1.046280
    16     2      0.923055      0.721787      0.583408
ITEM: TIMESTEP
1817
ITEM: NUMBER OF ATOMS
16
ITEM: BOX BOUNDS xy xz yz  pp  pp  pp
     -0.300000      4.040544      0.000000
     -0.300000      4.040544      0.000000
     -0.300000      2.769228      0.000000
ITEM: ATOMS id type xs ys zs
     1     1      0.220954      0.222903      0.169479
     2     1      0.651876      0.264079      0.613497
     3     1      0.317441      0.796405      0.518719
     4     1      0.823931      0.708016      1.034985
     5     2      0.860724      1.028968      0.192778
     6     2      0.527766      1.022349      1.051626
     7     2      0.992554      0.463312      0.241115
     8     2      0.504902      0.700270      1.038723
     9     2      0.928767      0.227214      0.764301
    10     2      0.388801      1.056266      0.763464
    11     2      0.168686      0.493540      0.700302
    12     2      0.496899      0.523775      0.447008
    13     2      0.161598      0.325804      0.655769
    14     2      0.851338      0.155450      0.105157
    15     2      0.320429      0.674520      1.045883
    16     2      0.923479      0.721795      0.583828
ITEM: TIMESTEP
1818
ITEM: NUMBER OF ATOMS
16
ITEM: BOX BOUNDS xy xz yz  pp  pp  pp
     -0.300000      4.040544      0.000000
     -0.300000      4.040544      0.000000
     -0.300000      2.769228      0.000000
ITEM: ATOMS id type xs ys zs
     1     1      0.221780      0.223069      0.169333
     2     1      0.651773      0.264097      0.613060
     3     1      0.317403      0.796339      0.519607
     4     1      0.823514      0.707743      1.033966
     5     2      0.860679      1.029143      0.192739
     6     2      0.526866      1.021968      1.051786
     7     2      0.992648      0.462727      0.241562
     8     2      0.505103      0.700129      1.038395
     9     2      0.929486      0.226736      0.764639
    10     2      0.388485      1.056680      0.764001
    11     2      0.168773      0.493447      0.700294
    12     2      0.497246      0.523590      0.447551
    13     2      0.161713      0.325204      0.655132
    14     2      0.850717      0.156038      0.105522
    15     2      0.320218      0.675024      1.045226
    16     2      0.923174      0.721654      0.584061
ITEM: TIMESTEP
1819
ITEM: NUMBER OF ATOMS
16
ITEM: BOX BOUNDS xy xz yz  pp  pp  pp
     -0.300000      4.040544      0.000000
     -0.300000      4.040544      0.000000
     -0.300000      2.769228      0.000000
ITEM: ATOMS id type xs ys zs
     1     1      0.221951      0.222954      0.169689
     2     1      0.651057      0.264178      0.613317
     3     1      0.317236      0.795468      0.519629
     4     1      0.823634      0.707291      1.033706
     5     2      0.860733      1.029370      0.192438
     6     2      0.526887      1.022328      1.051788
     7     2      0.992678      0.462363      0.241061
     8     2      0.505175      0.699875      1.038528
     9     2      0.930296      0.227192      0.764799
    10     2      0.388502      1.057018      0.763567
    11     2      0.168685      0.493423      0.699562
    12     2      0.497492      0.523282      0.448009
    13     2      0.161959      0.324691      0.654290
    14     2      0.850315      0.156306      0.105228
    15     2      0.319642      0.675789      1.045582
    16     2      0.922864      0.721878      0.584519
ITEM: TIMESTEP
1820
ITEM: NUMBER OF ATOMS
16
ITEM: BOX BOUNDS xy xz yz  pp  pp  pp
     -0.300000      4.040544      0.000000
     -0.300000      4.040544      0.000000
     -0.300000      2.769228      0.000000
ITEM: ATOMS id type xs ys zs
     1     1      0.221666      0.223289      0.169464
     2     1      0.651541      0.264305      0.613354
     3     1      0.317183      0.794964      0.520372
     4     1      0.822732      0.706546      1.033506
     5     2      0.861253      1.028912      0.192542
     6     2      0.526875      1.022691      1.052363
     7     2      0.993102      0.462342      0.241217
     8     2      0.505554      0.699242      1.038283
     9     2      0.930613      0.226989      0.764772
    10     2      0.388860      1.056773      0.764204
    11     2      0.168561      0.493087      0.699162
    12     2      0.497849      0.522971      0.448253
    13     2      0.162489      0.324209      0.653978
    14     2      0.850383      0.156128      0.104351
    15     2      0.319645      0.675938      1.046372
    16     2      0.922487      0.721794      0.584900
ITEM: TIMESTEP
1821
ITEM: NUMBER OF ATOMS
16
ITEM: BOX BOUNDS xy xz yz  pp  pp  pp
     -0.300000      4.040544      0.000000
     -0.300000      4.040544      0.000000
     -0.300000      2.769228      0.000000
ITEM: ATOMS id type xs ys zs
     1     1      0.221820      0.223838      0.169378
     2     1      0.651868      0.264814      0.613031
     3     1      0.317192      0.794390      0.520568
     4     1      0.822519      0.706510      1.034426
     5     2      0.861703      1.028780      0.191747
     6     2      0.526446      1.022786      1.052869
     7     2      0.992813      0.462256      0.241338
     8     2      0.505226      0.699223      1.037787
     9     2      0.931178      0.226678      0.765038
    10     2      0.389832      1.057294      0.764293
    11     2      0.168867      0.492898      0.697929
    12     2      0.497581      0.522708      0.448062
    13     2      0.162777      0.324291      0.653697
    14     2      0.850131      0.156030      0.104098
    15     2      0.319484      0.676534      1.046715
    16     2      0.921847      0.721884      0.584648
ITEM: TIMESTEP
1822
ITEM: NUMBER OF ATOMS
16
ITEM: BOX BOUNDS xy xz yz  pp  pp  pp
     -0.300000      4.040544      0.000000
     -0.300000      4.040544      0.000000
     -0.300000      2.769228      0.000000
ITEM: ATOMS id type xs ys zs
     1     1      0.222039      0.223830      0.168368
     2     1      0.651869      0.264708      0.613398
     3     1      0.317106      0.794157      0.520341
     4     1      0.822564      0.706842      1.034636
     5     2      0.861395      1.028760      0.191726
     6     2      0.526546      1.022866      1.052734
     7     2      0.993019      0.462070      0.242354
     8     2      0.505230      0.698829      1.037966
     9     2      0.931743      0.226338      0.765095
    10     2      0.390473      1.057407      0.763772
    11     2      0.169078      0.492738      0.698000
    12     2      0.497336      0.522754      0.448315
    13     2      0.162613      0.324070      0.654070
    14     2      0.850304      0.155976      0.103732
    15     2      0.319515      0.676843      1.047084
    16     2      0.921638      0.721727      0.584922
ITEM: TIMESTEP
1823
ITEM: NUMBER OF ATOMS
16
ITEM: BOX BOUNDS xy xz yz  pp  pp  pp
     -0.300000      4.040544      0.000000
     -0.300000      4.040544      0.000000
     -0.300000      2.769228      0.000000
ITEM: ATOMS id type xs ys zs
     1     1      0.222090      0.223834      0.168491
     2     1      0.652600      0.265007      0.613040
     3     1      0.316795      0.793873      0.520159
     4     1      0.822290      0.707541      1.034703
     5     2      0.861473      1.028837      0.191369
     6     2      0.526930      1.023025      1.053118
     7     2      0.992696      0.462360      0.242483
     8     2      0.505244      0.698207      1.037372
     9     2      0.932034      0.226714      0.764228
    10     2      0.391110      1.057716      0.763777
    11     2      0.168947      0.493156      0.697117
    12     2      0.497458      0.522857      0.448235
    13     2      0.162726      0.323823      0.653955
    14     2      0.850001      0.156069      0.104010
    15     2      0.319271      0.677399      1.047184
    16     2      0.921786      0.721383      0.584428
ITEM: TIMESTEP
1824
ITEM: NUMBER OF ATOMS
16
ITEM: BOX BOUNDS xy xz yz  pp  pp  pp
     -0.300000      4.040544      0.000000
     -0.300000      4.040544      0.000000
     -0.300000      2.769228      0.000000
ITEM: ATOMS id type xs ys zs
     1     1      0.222420      0.223979      0.168559
     2     1      0.652763      0.265387      0.613546
     3     1      0.316439      0.793893      0.520564
     4     1      0.821912      0.707007      1.034282
     5     2      0.861590      1.028543      0.191066
     6     2      0.527013      1.023795      1.053315
     7     2      0.992987      0.462658      0.242642
     8     2      0.506380      0.698360      1.037290
     9     2      0.932996      0.226745      0.763868
    10     2      0.391398      1.057523      0.763970
    11     2      0.168983      0.492762      0.697049
    12     2      0.498285      0.522341      0.448281
    13     2      0.163193      0.323822      0.653459
    14     2      0.849657      0.156246      0.103839
    15     2      0.319140      0.678132      1.046906
    16     2      0.922095      0.721700      0.585419
ITEM: TIMESTEP
1825
ITEM: NUMBER OF ATOMS
16
ITEM: BOX BOUNDS xy xz yz  pp  pp  pp
     -0.300000      4.040544      0.000000
     -0.300000      4.040544      0.000000
     -0.300000      2.769228      0.000000
ITEM: ATOMS id type xs ys zs
     1     1      0.222198      0.224457      0.168247
     2     1      0.653076      0.265041      0.613871
     3     1      0.316036      0.793835      0.521393
     4     1      0.822051      0.706823      1.033659
     5     2      0.861674      1.028760      0.190640
     6     2      0.526983      1.024164      1.053485
     7     2      0.993013      0.462856      0.243092
     8     2      0.506497      0.697653      1.037319
     9     2      0.933828      0.226119      0.763580
    10     2      0.391417      1.057181      0.764780
    11     2      0.168670      0.492885      0.697275
    12     2      0.498532      0.522351      0.448001
    13     2      0.163027      0.323560      0.653229
    14     2      0.848793      0.156667      0.103110
    15     2      0.319327      0.678639      1.046717
    16     2      0.921859      0.721383      0.585925
ITEM: TIMESTEP
1826
ITEM: NUMBER OF ATOMS
16
ITEM: BOX BOUNDS xy xz yz  pp  pp  pp
     -0.300000      4.040544      0.000000
     -0.300000      4.040544      0.000000
     -0.300000      2.769228      0.000000
ITEM: ATOMS id type xs ys zs
     1     1      0.221842      0.224605      0.168810
     2     1      0.652936      0.265028      0.613660
     3     1      0.316100      0.793435      0.521241
     4     1      0.822270      0.706592      1.034229
     5     2      0.862000      1.028278      0.190140
     6     2      0.526491      1.024511      1.053844
     7     2      0.992833      0.463184      0.244046
     8     2      0.506233      0.697348      1.037687
     9     2      0.934150      0.226300      0.763166
    10     2      0.391768      1.057285      0.765205
    11     2      0.169106      0.492955      0.697216
    12     2      0.498328      0.522250      0.448017
    13     2      0.163512      0.323338      0.652970
    14     2      0.849083      0.156869      0.103039
    15     2      0.318712      0.679581      1.046659
    16     2      0.921201      0.721354      0.585854
ITEM: TIMESTEP
1827
ITEM: NUMBER OF ATOMS
16
ITEM: BOX BOUNDS xy xz yz  pp  pp  pp
     -0.300000      4.040544      0.000000
     -0.300000      4.040544      0.000000
     -0.300000      2.769228      0.000000
ITEM: ATOMS id type xs ys zs
     1     1      0.222058      0.224610      0.168161
     2     1      0.653097      0.265400      0.613846
     3     1      0.316311      0.793040      0.521074
     4     1      0.822114      0.706367      1.034316
     5     2      0.862813      1.028006      0.190011
     6     2      0.526704      1.024499      1.053920
     7     2      0.992534      0.462622      0.244038
     8     2      0.506776      0.697820      1.038428
     9     2      0.935000      0.226183      0.762225
    10     2      0.392157      1.057696      0.765452
    11     2      0.168952      0.492391      0.696808