ITEM: TIMESTEP
1801
ITEM: NUMBER OF ATOMS
16
ITEM: BOX BOUNDS xy xz yz  pp  pp  pp
     -0.300000      4.040544      0.000000
     -0.300000      4.040544      0.000000
     -0.300000      2.769228      0.000000
ITEM: ATOMS id type xs ys zs
     1     1      0.218573      0.222241      0.170852
     2     1      0.652344      0.261909      0.617043
     3     1      0.318577      0.801157      0.514531
     4     1      0.822487      0.713109      1.037466
     5     2      0.861478      1.029137      0.193635
     6     2      0.532224      1.017456      1.048103
     7     2      0.990433      0.464792      0.235737
     8     2      0.504759      0.700775      1.039576
     9     2      0.921495      0.228600      0.766017
    10     2      0.387227      1.053522      0.761128
    11     2      0.169442      0.493450      0.702904
    12     2      0.498111      0.522382      0.445753
    13     2      0.161006      0.329110      0.656528
    14     2      0.856704      0.151605      0.104716
    15     2      0.322892      0.669828      1.046094
    16     2      0.923320      0.723317      0.580599
ITEM: TIMESTEP
1802
ITEM: NUMBER OF ATOMS
16
ITEM: BOX BOUNDS xy xz yz  pp  pp  pp
     -0.300000      4.040544      0.000000
     -0.300000      4.040544      0.000000
     -0.300000      2.769228      0.000000
ITEM: ATOMS id type xs ys zs
     1     1      0.218160      0.222256      0.171569
     2     1      0.651928      0.261591      0.616884
     3     1      0.318050      0.800288      0.514651
     4     1      0.822813      0.712742      1.037404
     5     2      0.861689      1.029521      0.194096
     6     2      0.532589      1.017758      1.048762
     7     2      0.990829      0.465382      0.236718
     8     2      0.504661      0.700753      1.039281
     9     2      0.921977      0.228964      0.766303
    10     2      0.387557      1.053588      0.761575
    11     2      0.169536      0.493340      0.702015
    12     2      0.497678      0.521459      0.446430
    13     2      0.160867      0.328694      0.656421
    14     2      0.856740      0.151423      0.104713
    15     2      0.322771      0.670185      1.045845
    16     2      0.922699      0.723472      0.581128
ITEM: TIMESTEP
1803
ITEM: NUMBER OF ATOMS
16
ITEM: BOX BOUNDS xy xz yz  pp  pp  pp
     -0.300000      4.040544      0.000000
     -0.300000      4.040544      0.000000
     -0.300000      2.769228      0.000000
ITEM: ATOMS id type xs ys zs
     1     1      0.218583      0.222611      0.171436
     2     1      0.652789      0.261370      0.617501
     3     1      0.317683      0.800291      0.514547
     4     1      0.823318      0.712417      1.036899
     5     2      0.861419      1.029119      0.193952
     6     2      0.532220      1.018647      1.048675
     7     2      0.990579      0.465279      0.236816
     8     2      0.504543      0.700309      1.039018
     9     2      0.923341      0.229251      0.766811
    10     2      0.387486      1.053719      0.762323
    11     2      0.169271      0.493353      0.701562
    12     2      0.497556      0.521886      0.446709
    13     2      0.161441      0.328223      0.656705
    14     2      0.856475      0.151568      0.104694
    15     2      0.322411      0.670187      1.045880
    16     2      0.922237      0.723209      0.581189
ITEM: TIMESTEP
1804
ITEM: NUMBER OF ATOMS
16
ITEM: BOX BOUNDS xy xz yz  pp  pp  pp
     -0.300000      4.040544      0.000000
     -0.300000      4.040544      0.000000
     -0.300000      2.769228      0.000000
ITEM: ATOMS id type xs ys zs
     1     1      0.218926      0.223054      0.171476
     2     1      0.652823      0.261244      0.617658
     3     1      0.317849      0.799975      0.514378
     4     1      0.822461      0.711830      1.036892
     5     2      0.861843      1.029220      0.193734
     6     2      0.532350      1.018519      1.047922
     7     2      0.990577      0.465473      0.237310
     8     2      0.505031      0.699622      1.039019
     9     2      0.924009      0.229071      0.766722
    10     2      0.386887      1.054185      0.762723
    11     2      0.169124      0.493318      0.701339
    12     2      0.497558      0.521777      0.447302
    13     2      0.161147      0.328118      0.657305
    14     2      0.855664      0.151916      0.104463
    15     2      0.322037      0.670173      1.046609
    16     2      0.922098      0.722739      0.581134
ITEM: TIMESTEP
1805
ITEM: NUMBER OF ATOMS
16
ITEM: BOX BOUNDS xy xz yz  pp  pp  pp
     -0.300000      4.040544      0.000000
     -0.300000      4.040544      0.000000
     -0.300000      2.769228      0.000000
ITEM: ATOMS id type xs ys zs
     1     1      0.218994      0.222771      0.172312
     2     1      0.652336      0.261532      0.617105
     3     1      0.317942      0.799948      0.514774
     4     1      0.822306      0.711675      1.036330
     5     2      0.861798      1.028288      0.193640
     6     2      0.532314      1.018895      1.047755
     7     2      0.990372      0.465432      0.237086
     8     2      0.505391      0.699539      1.038840
     9     2      0.923584      0.228689      0.766601
    10     2      0.386866      1.054262      0.762963
    11     2      0.169303      0.492865      0.700387
    12     2      0.497117      0.521862      0.448119
    13     2      0.161626      0.327647      0.657660
    14     2      0.855313      0.152092      0.104575
    15     2      0.322136      0.670282      1.046624
    16     2      0.921809      0.722893      0.580918
ITEM: TIMESTEP
1806
ITEM: NUMBER OF ATOMS
16
ITEM: BOX BOUNDS xy xz yz  pp  pp  pp
     -0.300000      4.040544      0.000000
     -0.300000      4.040544      0.000000
     -0.300000      2.769228      0.000000
ITEM: ATOMS id type xs ys zs
     1     1      0.218899      0.222914      0.171731
     2     1      0.652297      0.262196      0.616857
     3     1      0.317805      0.799908      0.514348
     4     1      0.822419      0.711285      1.036084
     5     2      0.861412      1.028348      0.193949
     6     2      0.531896      1.019156      1.047323
     7     2      0.990705      0.465361      0.237361
     8     2      0.505339      0.699189      1.039503
     9     2      0.924256      0.228684      0.766964
    10     2      0.386324      1.054429      0.763631
    11     2      0.169203      0.492393      0.699722
    12     2      0.497821      0.522235      0.448534
    13     2      0.161864      0.327706      0.657663
    14     2      0.855820      0.152155      0.105437
    15     2      0.321965      0.670242      1.046294
    16     2      0.921883      0.722991      0.581716
ITEM: TIMESTEP
1807
ITEM: NUMBER OF ATOMS
16
ITEM: BOX BOUNDS xy xz yz  pp  pp  pp
     -0.300000      4.040544      0.000000
     -0.300000      4.040544      0.000000
     -0.300000      2.769228      0.000000
ITEM: ATOMS id type xs ys zs
     1     1      0.219282      0.223312      0.171882
     2     1      0.651561      0.262225      0.616376
     3     1      0.317339      0.799291      0.514521
     4     1      0.822118      0.711116      1.035516
     5     2      0.861092      1.028256      0.192994
     6     2      0.531850      1.019045      1.047385
     7     2      0.990432      0.464969      0.237368
     8     2      0.505825      0.699269      1.039566
     9     2      0.925047      0.228671      0.767430
    10     2      0.386538      1.054304      0.763960
    11     2      0.169575      0.492416      0.699637
    12     2      0.497717      0.522730      0.448573
    13     2      0.162071      0.327334      0.658458
    14     2      0.855331      0.152093      0.105221
    15     2      0.321649      0.670940      1.046215
    16     2      0.921527      0.722802      0.581778
ITEM: TIMESTEP
1808
ITEM: NUMBER OF ATOMS
16
ITEM: BOX BOUNDS xy xz yz  pp  pp  pp
     -0.300000      4.040544      0.000000
     -0.300000      4.040544      0.000000
     -0.300000      2.769228      0.000000
ITEM: ATOMS id type xs ys zs
     1     1      0.219231      0.222943      0.172247
     2     1      0.651486      0.262304      0.615859
     3     1      0.316743      0.799404      0.515396
     4     1      0.822079      0.710812      1.035141
     5     2      0.861458      1.028465      0.193319
     6     2      0.531927      1.019134      1.047577
     7     2      0.990635      0.464651      0.237871
     8     2      0.505453      0.699139      1.039986
     9     2      0.925486      0.228297      0.767086
    10     2      0.386649      1.053883      0.764029
    11     2      0.169576      0.492345      0.699538
    12     2      0.497917      0.522792      0.448722
    13     2      0.162475      0.326976      0.658895
    14     2      0.855362      0.152221      0.105629
    15     2      0.321743      0.670837      1.046838
    16     2      0.921276      0.722484      0.581690
ITEM: TIMESTEP
1809
ITEM: NUMBER OF ATOMS
16
ITEM: BOX BOUNDS xy xz yz  pp  pp  pp
     -0.300000      4.040544      0.000000
     -0.300000      4.040544      0.000000
     -0.300000      2.769228      0.000000
ITEM: ATOMS id type xs ys zs
     1     1      0.219116      0.223339      0.172374
     2     1      0.651817      0.262086      0.615961
     3     1      0.316504      0.798833      0.515359
     4     1      0.821878      0.710549      1.035265
     5     2      0.861624      1.028432      0.193395
     6     2      0.532097      1.019373      1.047705
     7     2      0.990824      0.464669      0.238394
     8     2      0.505475      0.698762      1.039908
     9     2      0.925556      0.228531      0.767322
    10     2      0.386638      1.054057      0.764553
    11     2      0.170135      0.492209      0.698718
    12     2      0.498463      0.522650      0.448588
    13     2      0.162156      0.327008      0.658826
    14     2      0.854907      0.152456      0.105633
    15     2      0.322058      0.671184      1.047460
    16     2      0.920669      0.722696      0.582308
ITEM: TIMESTEP
1810
ITEM: NUMBER OF ATOMS
16
ITEM: BOX BOUNDS xy xz yz  pp  pp  pp
     -0.300000      4.040544      0.000000
     -0.300000      4.040544      0.000000
     -0.300000      2.769228      0.000000
ITEM: ATOMS id type xs ys zs
     1     1      0.219343      0.222690      0.172398
     2     1      0.651968      0.262183      0.615472
     3     1      0.316182      0.798840      0.516067
     4     1      0.822472      0.709788      1.035530
     5     2      0.861856      1.028779      0.193414
     6     2      0.531982      1.019283      1.048077
     7     2      0.991016      0.464238      0.238528
     8     2      0.505119      0.698334      1.040032
     9     2      0.926021      0.227602      0.767771
    10     2      0.386797      1.053997      0.765609
    11     2      0.169768      0.492277      0.698681
    12     2      0.498635      0.522569      0.449361
    13     2      0.162739      0.326803      0.659010
    14     2      0.854627      0.152332      0.105934
    15     2      0.321969      0.671472      1.047302
    16     2      0.920737      0.722825      0.582434
ITEM: TIMESTEP
1811
ITEM: NUMBER OF ATOMS
16
ITEM: BOX BOUNDS xy xz yz  pp  pp  pp
     -0.300000      4.040544      0.000000
     -0.300000      4.040544      0.000000
     -0.300000      2.769228      0.000000
ITEM: ATOMS id type xs ys zs
     1     1      0.219331      0.222509      0.172644
     2     1      0.651529      0.262517      0.615009
     3     1      0.316042      0.798363      0.516848
     4     1      0.822780      0.709809      1.036020
     5     2      0.861913      1.028883      0.193288
     6     2      0.531731      1.019281      1.047916
     7     2      0.991021      0.464179      0.238555
     8     2      0.505427      0.697922      1.040533
     9     2      0.926532      0.227723      0.768260
    10     2      0.387069      1.054008      0.765388
    11     2      0.170263      0.492483      0.697850
    12     2      0.498600      0.522252      0.448632
    13     2      0.163037      0.326715      0.658430
    14     2      0.854142      0.152254      0.105569
    15     2      0.321856      0.671565      1.047493
    16     2      0.920047      0.722569      0.582388
ITEM: TIMESTEP
1812
ITEM: NUMBER OF ATOMS
16
ITEM: BOX BOUNDS xy xz yz  pp  pp  pp
     -0.300000      4.040544      0.000000
     -0.300000      4.040544      0.000000
     -0.300000      2.769228      0.000000
ITEM: ATOMS id type xs ys zs
     1     1      0.219286      0.222749      0.172724
     2     1      0.651980      0.262961      0.614910
     3     1      0.316413      0.797903      0.516557
     4     1      0.823024      0.709263      1.036730
     5     2      0.862304      1.028628      0.193546
     6     2      0.531857      1.019206      1.047425
     7     2      0.991170      0.464337      0.238940
     8     2      0.505531      0.697752      1.040898
     9     2      0.926736      0.227747      0.768724
    10     2      0.387641      1.054189      0.765959
    11     2      0.169794      0.493117      0.698089
    12     2      0.498573      0.522321      0.448653
    13     2      0.163378      0.326780      0.658929
    14     2      0.853780      0.152325      0.105212
    15     2      0.322412      0.671367      1.047409
    16     2      0.919507      0.722649      0.583110
ITEM: TIMESTEP
1813
ITEM: NUMBER OF ATOMS
16
ITEM: BOX BOUNDS xy xz yz  pp  pp  pp
     -0.300000      4.040544      0.000000
     -0.300000      4.040544      0.000000
     -0.300000      2.769228      0.000000
ITEM: ATOMS id type xs ys zs
     1     1      0.219718      0.222580      0.172418
     2     1      0.652086      0.263014      0.614975
     3     1      0.316546      0.797354      0.516815
     4     1      0.823382      0.709216      1.035853
     5     2      0.862994      1.028506      0.193190
     6     2      0.531706      1.019992      1.047395
     7     2      0.991316      0.464199      0.239401
     8     2      0.505794      0.697388      1.040643
     9     2      0.927749      0.227674      0.768361
    10     2      0.387719      1.054187      0.765430
    11     2      0.169846      0.492587      0.698688
    12     2      0.498590      0.522814      0.449315
    13     2      0.163530      0.326711      0.659201
    14     2      0.853669      0.152313      0.104879
    15     2      0.322437      0.672375      1.046482
    16     2      0.919477      0.723160      0.583134
ITEM: TIMESTEP
1814
ITEM: NUMBER OF ATOMS
16
ITEM: BOX BOUNDS xy xz yz  pp  pp  pp
     -0.300000      4.040544      0.000000
     -0.300000      4.040544      0.000000
     -0.300000      2.769228      0.000000
ITEM: ATOMS id type xs ys zs
     1     1      0.219850      0.222473      0.172633
     2     1      0.652261      0.263237      0.615427
     3     1      0.316731      0.797184      0.517095
     4     1      0.823167      0.709528      1.036041
     5     2      0.863185      1.028754      0.193099
     6     2      0.531166      1.019875      1.046904
     7     2      0.991671      0.464234      0.240088
     8     2      0.505969      0.697462      1.040715
     9     2      0.928172      0.227695      0.767987
    10     2      0.387368      1.054320      0.765132
    11     2      0.169660      0.492259      0.698091
    12     2      0.498691      0.522531      0.448877
    13     2      0.164361      0.325968      0.659708
    14     2      0.853154      0.152566      0.105303
    15     2      0.322579      0.672881      1.045739
    16     2      0.919311      0.724045      0.583278
ITEM: TIMESTEP
1815
ITEM: NUMBER OF ATOMS
16
ITEM: BOX BOUNDS xy xz yz  pp  pp  pp
     -0.300000      4.040544      0.000000
     -0.300000      4.040544      0.000000
     -0.300000      2.769228      0.000000
ITEM: ATOMS id type xs ys zs
     1     1      0.220358      0.222976      0.172512
     2     1      0.652230      0.262898      0.615401
     3     1      0.317041      0.797167      0.516724
     4     1      0.822863      0.709577      1.036215
     5     2      0.863393      1.028837      0.192589
     6     2      0.530939      1.020236      1.046458
     7     2      0.991943      0.464096      0.240446
     8     2      0.506138      0.697304      1.040372
     9     2      0.928361      0.227514      0.768098
    10     2      0.388097      1.054666      0.766626
    11     2      0.169223      0.492297      0.698363
    12     2      0.498720      0.522555      0.449381
    13     2      0.163941      0.325456      0.660222
    14     2      0.853181      0.152948      0.105440
    15     2      0.322501      0.674003      1.045962
    16     2      0.919450      0.724286      0.582698
ITEM: TIMESTEP
1816
ITEM: NUMBER OF ATOMS
16
ITEM: BOX BOUNDS xy xz yz  pp  pp  pp
     -0.300000      4.040544      0.000000
     -0.300000      4.040544      0.000000
     -0.300000      2.769228      0.000000
ITEM: ATOMS id type xs ys zs
     1     1      0.220620      0.223251      0.171472
     2     1      0.652019      0.263157      0.615817
     3     1      0.316863      0.797523      0.517202
     4     1      0.822455      0.709192      1.035472
     5     2      0.863305      1.028832      0.191805
     6     2      0.531247      1.020092      1.045963
     7     2      0.992535      0.463760      0.240370
     8     2      0.506150      0.697353      1.039943
     9     2      0.929119      0.227761      0.768487
    10     2      0.388166      1.054759      0.766461
    11     2      0.168809      0.492773      0.697666
    12     2      0.498591      0.522741      0.449453
    13     2      0.164056      0.325287      0.660451
    14     2      0.852704      0.152952      0.105396
    15     2      0.322497      0.674767      1.046451
    16     2      0.919798      0.724421      0.583443
ITEM: TIMESTEP
1817
ITEM: NUMBER OF ATOMS
16
ITEM: BOX BOUNDS xy xz yz  pp  pp  pp
     -0.300000      4.040544      0.000000
     -0.300000      4.040544      0.000000
     -0.300000      2.769228      0.000000
ITEM: ATOMS id type xs ys zs
     1     1      0.220849      0.223108      0.171012
     2     1      0.652199      0.263242      0.615677
     3     1      0.317025      0.797423      0.517720
     4     1      0.822395      0.708414      1.034852
     5     2      0.863335      1.028657      0.191320
     6     2      0.531153      1.019895      1.046126
     7     2      0.992727      0.463982      0.239918
     8     2      0.505692      0.697269      1.040001
     9     2      0.929261      0.227309      0.768264
    10     2      0.387949      1.055404      0.767235
    11     2      0.168679      0.492838      0.696820
    12     2      0.498972      0.522449      0.449335
    13     2      0.164061      0.325603      0.660347
    14     2      0.852101      0.152852      0.105951
    15     2      0.322130      0.675197      1.045846
    16     2      0.919786      0.724735      0.583510
ITEM: TIMESTEP
1818
ITEM: NUMBER OF ATOMS
16
ITEM: BOX BOUNDS xy xz yz  pp  pp  pp
     -0.300000      4.040544      0.000000
     -0.300000      4.040544      0.000000
     -0.300000      2.769228      0.000000
ITEM: ATOMS id type xs ys zs
     1     1      0.221032      0.223575      0.171151
     2     1      0.652108      0.263783      0.614849
     3     1      0.316416      0.797726      0.516756
     4     1      0.822699      0.707821      1.034087
     5     2      0.863654      1.027929      0.190537
     6     2      0.531024      1.020144      1.046254
     7     2      0.992559      0.463895      0.240883
     8     2      0.505374      0.697061      1.039510
     9     2      0.929482      0.227174      0.768359
    10     2      0.387941      1.055627      0.766968
    11     2      0.168292      0.493276      0.696736
    12     2      0.499388      0.522491      0.449664
    13     2      0.163390      0.325136      0.661056
    14     2      0.852385      0.153017      0.105880
    15     2      0.322326      0.675127      1.046833
    16     2      0.920413      0.724123      0.583383
ITEM: TIMESTEP
1819
ITEM: NUMBER OF ATOMS
16
ITEM: BOX BOUNDS xy xz yz  pp  pp  pp
     -0.300000      4.040544      0.000000
     -0.300000      4.040544      0.000000
     -0.300000      2.769228      0.000000
ITEM: ATOMS id type xs ys zs
     1     1      0.221260      0.223644      0.170116
     2     1      0.652113      0.264319      0.614688
     3     1      0.316678      0.797166      0.516757
     4     1      0.822817      0.707146      1.033401
     5     2      0.863369      1.028188      0.189974
     6     2      0.530999      1.020381      1.046841
     7     2      0.992549      0.463245      0.241767
     8     2      0.505557      0.697364      1.038775
     9     2      0.930566      0.227307      0.768817
    10     2      0.388018      1.055913      0.767183
    11     2      0.168210      0.493564      0.696268
    12     2      0.499275      0.522591      0.449205
    13     2      0.163200      0.324611      0.661315
    14     2      0.852829      0.152923      0.106362
    15     2      0.321792      0.674839      1.046849
    16     2      0.920033      0.724593      0.583517
ITEM: TIMESTEP
1820
ITEM: NUMBER OF ATOMS
16
ITEM: BOX BOUNDS xy xz yz  pp  pp  pp
     -0.300000      4.040544      0.000000
     -0.300000      4.040544      0.000000
     -0.300000      2.769228      0.000000
ITEM: ATOMS id type xs ys zs
     1     1      0.220754      0.223615      0.170426
     2     1      0.652271      0.264374      0.614822
     3     1      0.316282      0.796832      0.516739
     4     1      0.822872      0.706900      1.032594
     5     2      0.863756      1.028046      0.190225
     6     2      0.530292      1.020533      1.046824
     7     2      0.993067      0.463317      0.241983
     8     2      0.505691      0.697279      1.038641
     9     2      0.930349      0.226831      0.768034
    10     2      0.387588      1.056208      0.767001
    11     2      0.167517      0.493621      0.696725
    12     2      0.499504      0.522597      0.449643
    13     2      0.163541      0.324081      0.660769
    14     2      0.852489      0.153044      0.106305
    15     2      0.321742      0.675188      1.047938
    16     2      0.919992      0.724341      0.584342
ITEM: TIMESTEP
1821
ITEM: NUMBER OF ATOMS
16
ITEM: BOX BOUNDS xy xz yz  pp  pp  pp
     -0.300000      4.040544      0.000000
     -0.300000      4.040544      0.000000
     -0.300000      2.769228      0.000000
ITEM: ATOMS id type xs ys zs
     1     1      0.220845      0.223746      0.170480
     2     1      0.652409      0.264375      0.615273
     3     1      0.316352      0.796297      0.516070
     4     1      0.822906      0.707183      1.032799
     5     2      0.863228      1.028338      0.190247
     6     2      0.530433      1.020410      1.046710
     7     2      0.993488      0.463565      0.241952
     8     2      0.505469      0.697419      1.039478
     9     2      0.931209      0.226486      0.766642
    10     2      0.388011      1.056031      0.767128
    11     2      0.168016      0.493491      0.696017
    12     2      0.499476      0.523051      0.450527
    13     2      0.163601      0.323128      0.660408
    14     2      0.852609      0.152889      0.106207
    15     2      0.321525      0.675886      1.047414
    16     2      0.919991      0.723935      0.584241
ITEM: TIMESTEP
1822
ITEM: NUMBER OF ATOMS
16
ITEM: BOX BOUNDS xy xz yz  pp  pp  pp
     -0.300000      4.040544      0.000000
     -0.300000      4.040544      0.000000
     -0.300000      2.769228      0.000000
ITEM: ATOMS id type xs ys zs
     1     1      0.220619      0.224007      0.171284
     2     1      0.652556      0.264730      0.614966
     3     1      0.316321      0.796230      0.515960
     4     1      0.822908      0.706598      1.032791
     5     2      0.863689      1.028375      0.189977
     6     2      0.530832      1.020216      1.046799
     7     2      0.993076      0.462665      0.241762
     8     2      0.505644      0.697589      1.039368
     9     2      0.931140      0.227057      0.766273
    10     2      0.388136      1.056479      0.767106
    11     2      0.168749      0.493402      0.695454
    12     2      0.499548      0.523622      0.450394
    13     2      0.164167      0.322551      0.661180
    14     2      0.852597      0.153174      0.106464
    15     2      0.321121      0.675911      1.047335
    16     2      0.919675      0.723736      0.583824
ITEM: TIMESTEP
1823
ITEM: NUMBER OF ATOMS
16
ITEM: BOX BOUNDS xy xz yz  pp  pp  pp
     -0.300000      4.040544      0.000000
     -0.300000      4.040544      0.000000
     -0.300000      2.769228      0.000000
ITEM: ATOMS id type xs ys zs
     1     1      0.221141      0.223839      0.171914
     2     1      0.652401      0.264171      0.614504
     3     1      0.316219      0.795893      0.516266
     4     1      0.823284      0.705780      1.032597
     5     2      0.864203      1.028258      0.189949
     6     2      0.530440      1.020523      1.046489
     7     2      0.992879      0.462920      0.241502
     8     2      0.505012      0.697722      1.039337
     9     2      0.930884      0.226880      0.765932
    10     2      0.387737      1.056499      0.767254
    11     2      0.168274      0.493675      0.695593
    12     2      0.499308      0.523726      0.450655
    13     2      0.164603      0.322108      0.661170
    14     2      0.852420      0.153504      0.106139
    15     2      0.321111      0.676449      1.047885
    16     2      0.919342      0.724103      0.583341
ITEM: TIMESTEP
1824
ITEM: NUMBER OF ATOMS
16
ITEM: BOX BOUNDS xy xz yz  pp  pp  pp
     -0.300000      4.040544      0.000000
     -0.300000      4.040544      0.000000
     -0.300000      2.769228      0.000000
ITEM: ATOMS id type xs ys zs
     1     1      0.221775      0.224111      0.171404
     2     1      0.652647      0.264100      0.614320
     3     1      0.316301      0.795790      0.516835
     4     1      0.823099      0.706260      1.032520
     5     2      0.863771      1.028565      0.189336
     6     2      0.530402      1.020762      1.046794
     7     2      0.992579      0.462428      0.242229
     8     2      0.505000      0.697433      1.039178
     9     2      0.930968      0.227292      0.766395
    10     2      0.388044      1.056701      0.767236
    11     2      0.168775      0.493809      0.695574
    12     2      0.499811      0.524108      0.450205
    13     2      0.165183      0.321781      0.661349
    14     2      0.852258      0.153510      0.106109
    15     2      0.320974      0.676283      1.047553
    16     2      0.919113      0.724432      0.582797
ITEM: TIMESTEP
1825
ITEM: NUMBER OF ATOMS
16
ITEM: BOX BOUNDS xy xz yz  pp  pp  pp
     -0.300000      4.040544      0.000000
     -0.300000      4.040544      0.000000
     -0.300000      2.769228      0.000000
ITEM: ATOMS id type xs ys zs
     1     1      0.222028      0.224632      0.170843
     2     1      0.652997      0.263663      0.614721
     3     1      0.316296      0.796009      0.516726
     4     1      0.823311      0.706432      1.032970
     5     2      0.863908      1.028912      0.189483
     6     2      0.530516      1.021389      1.047820
     7     2      0.992226      0.462078      0.242773
     8     2      0.505396      0.697101      1.039240
     9     2      0.931479      0.226723      0.765870
    10     2      0.387747      1.056956      0.767252
    11     2      0.168692      0.493534      0.695333
    12     2      0.499910      0.524389      0.450421
    13     2      0.165297      0.320911      0.661351
    14     2      0.851667      0.153546      0.105993
    15     2      0.320929      0.676540      1.047426
    16     2      0.918832      0.724824      0.582262
ITEM: TIMESTEP
1826
ITEM: NUMBER OF ATOMS
16
ITEM: BOX BOUNDS xy xz yz  pp  pp  pp
     -0.300000      4.040544      0.000000
     -0.300000      4.040544      0.000000
     -0.300000      2.769228      0.000000
ITEM: ATOMS id type xs ys zs
     1     1      0.221917      0.224808      0.171381
     2     1      0.653216      0.264241      0.615438
     3     1      0.315961      0.796187      0.516771
     4     1      0.823794      0.707171      1.032379
     5     2      0.863207      1.028740      0.189261
     6     2      0.530772      1.021286      1.047778
     7     2      0.992261      0.462099      0.243031
     8     2      0.505660      0.696817      1.039211
     9     2      0.931809      0.225986      0.765558
    10     2      0.387464      1.057116      0.767217
    11     2      0.168819      0.493110      0.694108
    12     2      0.499883      0.524815      0.450285
    13     2      0.165625      0.320607      0.661110
    14     2      0.851072      0.153551      0.105387
    15     2      0.321114      0.676775      1.047198
    16     2      0.918703      0.724383      0.582516
ITEM: TIMESTEP
1827
ITEM: NUMBER OF ATOMS
16
ITEM: BOX BOUNDS xy xz yz  pp  pp  pp
     -0.300000      4.040544      0.000000
     -0.300000      4.040544      0.000000
     -0.300000      2.769228      0.000000
ITEM: ATOMS id type xs ys zs
     1     1      0.221803      0.224779      0.171057
     2     1      0.652809      0.264298      0.615098
     3     1      0.316519      0.795752      0.516092
     4     1      0.823443      0.706842      1.032788
     5     2      0.863287      1.028213      0.189443
     6     2      0.530502      1.021228      1.047559
     7     2      0.992695      0.461792      0.243648
     8     2      0.506422      0.696732      1.039141
     9     2      0.931707      0.226104      0.765766
    10     2      0.387757      1.057385      0.767500
    11     2      0.168833      0.492531      0.694530