ITEM: TIMESTEP
1801
ITEM: NUMBER OF ATOMS
16
ITEM: BOX BOUNDS xy xz yz  pp  pp  pp
     -0.300000      4.040544      0.000000
     -0.300000      4.040544      0.000000
     -0.300000      2.769228      0.000000
ITEM: ATOMS id type xs ys zs
     1     1      0.219239      0.221993      0.171055
     2     1      0.651755      0.262334      0.617133
     3     1      0.318225      0.801610      0.513459
     4     1      0.822775      0.712956      1.037077
     5     2      0.861628      1.028883      0.193632
     6     2      0.531171      1.017409      1.048404
     7     2      0.990717      0.464095      0.235864
     8     2      0.504636      0.701170      1.040260
     9     2      0.921389      0.228571      0.765903
    10     2      0.387083      1.053576      0.761082
    11     2      0.169005      0.492927      0.702373
    12     2      0.498073      0.522065      0.444757
    13     2      0.161174      0.329394      0.656187
    14     2      0.857098      0.152813      0.104262
    15     2      0.322790      0.669588      1.045621
    16     2      0.922469      0.723080      0.580591
ITEM: TIMESTEP
1802
ITEM: NUMBER OF ATOMS
16
ITEM: BOX BOUNDS xy xz yz  pp  pp  pp
     -0.300000      4.040544      0.000000
     -0.300000      4.040544      0.000000
     -0.300000      2.769228      0.000000
ITEM: ATOMS id type xs ys zs
     1     1      0.219917      0.221577      0.170285
     2     1      0.651071      0.262490      0.615884
     3     1      0.317823      0.800856      0.513671
     4     1      0.822543      0.712882      1.036897
     5     2      0.861383      1.029193      0.193987
     6     2      0.531029      1.017615      1.048897
     7     2      0.991544      0.463599      0.236266
     8     2      0.504831      0.700807      1.039743
     9     2      0.921873      0.227454      0.765600
    10     2      0.387783      1.053234      0.760350
    11     2      0.169659      0.492750      0.701344
    12     2      0.498402      0.522255      0.444999
    13     2      0.160984      0.328801      0.656306
    14     2      0.856845      0.152920      0.104511
    15     2      0.322513      0.669714      1.045513
    16     2      0.923030      0.723235      0.581046
ITEM: TIMESTEP
1803
ITEM: NUMBER OF ATOMS
16
ITEM: BOX BOUNDS xy xz yz  pp  pp  pp
     -0.300000      4.040544      0.000000
     -0.300000      4.040544      0.000000
     -0.300000      2.769228      0.000000
ITEM: ATOMS id type xs ys zs
     1     1      0.220098      0.221751      0.169821
     2     1      0.650627      0.263048      0.615641
     3     1      0.317613      0.799953      0.513863
     4     1      0.822159      0.712144      1.036501
     5     2      0.861388      1.028896      0.193699
     6     2      0.531444      1.017971      1.049061
     7     2      0.991679      0.464103      0.236082
     8     2      0.505149      0.700703      1.040061
     9     2      0.922730      0.226838      0.766109
    10     2      0.387200      1.053181      0.760751
    11     2      0.169379      0.492851      0.700639
    12     2      0.497834      0.522907      0.445488
    13     2      0.160771      0.328189      0.656555
    14     2      0.856479      0.152841      0.104682
    15     2      0.322550      0.670405      1.045469
    16     2      0.922511      0.723263      0.580641
ITEM: TIMESTEP
1804
ITEM: NUMBER OF ATOMS
16
ITEM: BOX BOUNDS xy xz yz  pp  pp  pp
     -0.300000      4.040544      0.000000
     -0.300000      4.040544      0.000000
     -0.300000      2.769228      0.000000
ITEM: ATOMS id type xs ys zs
     1     1      0.220364      0.222251      0.169264
     2     1      0.650230      0.262892      0.615766
     3     1      0.318167      0.799950      0.513863
     4     1      0.822038      0.711834      1.036703
     5     2      0.862095      1.028732      0.193739
     6     2      0.531216      1.018000      1.049424
     7     2      0.991721      0.464086      0.236619
     8     2      0.504955      0.701523      1.039303
     9     2      0.923496      0.226894      0.766208
    10     2      0.386909      1.053201      0.760597
    11     2      0.169034      0.493095      0.699771
    12     2      0.498215      0.522524      0.445806
    13     2      0.161453      0.326992      0.656676
    14     2      0.856398      0.152671      0.105260
    15     2      0.323014      0.670910      1.045885
    16     2      0.921974      0.723318      0.580063
ITEM: TIMESTEP
1805
ITEM: NUMBER OF ATOMS
16
ITEM: BOX BOUNDS xy xz yz  pp  pp  pp
     -0.300000      4.040544      0.000000
     -0.300000      4.040544      0.000000
     -0.300000      2.769228      0.000000
ITEM: ATOMS id type xs ys zs
     1     1      0.220168      0.222637      0.169721
     2     1      0.650374      0.263631      0.615201
     3     1      0.318005      0.799912      0.515071
     4     1      0.822524      0.711469      1.035676
     5     2      0.862293      1.029090      0.193399
     6     2      0.531564      1.017596      1.049051
     7     2      0.991184      0.464282      0.236993
     8     2      0.504726      0.701087      1.039418
     9     2      0.923991      0.226853      0.766049
    10     2      0.386413      1.053028      0.760966
    11     2      0.169137      0.493004      0.698844
    12     2      0.497628      0.522260      0.446322
    13     2      0.161695      0.326714      0.656806
    14     2      0.856450      0.152498      0.105164
    15     2      0.322975      0.670948      1.045583
    16     2      0.921794      0.722888      0.580260
ITEM: TIMESTEP
1806
ITEM: NUMBER OF ATOMS
16
ITEM: BOX BOUNDS xy xz yz  pp  pp  pp
     -0.300000      4.040544      0.000000
     -0.300000      4.040544      0.000000
     -0.300000      2.769228      0.000000
ITEM: ATOMS id type xs ys zs
     1     1      0.220517      0.222970      0.170190
     2     1      0.650155      0.264088      0.613960
     3     1      0.317991      0.799530      0.515792
     4     1      0.822269      0.710772      1.035940
     5     2      0.862960      1.029176      0.193261
     6     2      0.531558      1.017934      1.049188
     7     2      0.990776      0.464482      0.237345
     8     2      0.504914      0.700678      1.039086
     9     2      0.924217      0.226791      0.766537
    10     2      0.386416      1.053923      0.761727
    11     2      0.168549      0.493502      0.698634
    12     2      0.497502      0.522414      0.446065
    13     2      0.161860      0.326508      0.657156
    14     2      0.856108      0.153173      0.105477
    15     2      0.322605      0.671253      1.045762
    16     2      0.921489      0.722848      0.580574
ITEM: TIMESTEP
1807
ITEM: NUMBER OF ATOMS
16
ITEM: BOX BOUNDS xy xz yz  pp  pp  pp
     -0.300000      4.040544      0.000000
     -0.300000      4.040544      0.000000
     -0.300000      2.769228      0.000000
ITEM: ATOMS id type xs ys zs
     1     1      0.221093      0.222952      0.170425
     2     1      0.649932      0.263932      0.613632
     3     1      0.317782      0.799936      0.515898
     4     1      0.822040      0.710617      1.035575
     5     2      0.862872      1.029720      0.192486
     6     2      0.531355      1.018528      1.049635
     7     2      0.990599      0.464330      0.237326
     8     2      0.504955      0.700624      1.039641
     9     2      0.925262      0.226808      0.767183
    10     2      0.386050      1.054551      0.762701
    11     2      0.169455      0.493118      0.697979
    12     2      0.496905      0.522600      0.445944
    13     2      0.161593      0.326342      0.657449
    14     2      0.855506      0.153022      0.105016
    15     2      0.322200      0.671419      1.046280
    16     2      0.920784      0.722878      0.580676
ITEM: TIMESTEP
1808
ITEM: NUMBER OF ATOMS
16
ITEM: BOX BOUNDS xy xz yz  pp  pp  pp
     -0.300000      4.040544      0.000000
     -0.300000      4.040544      0.000000
     -0.300000      2.769228      0.000000
ITEM: ATOMS id type xs ys zs
     1     1      0.221802      0.222850      0.170259
     2     1      0.649466      0.263877      0.613497
     3     1      0.317472      0.799413      0.516026
     4     1      0.822349      0.710076      1.035472
     5     2      0.863164      1.029517      0.191740
     6     2      0.531025      1.018417      1.049621
     7     2      0.990585      0.463785      0.237057
     8     2      0.504935      0.700230      1.039616
     9     2      0.925475      0.226726      0.768028
    10     2      0.385681      1.054717      0.762753
    11     2      0.169388      0.492921      0.697685
    12     2      0.496942      0.522738      0.445807
    13     2      0.162409      0.326099      0.657305
    14     2      0.855250      0.153615      0.105300
    15     2      0.322936      0.671096      1.045923
    16     2      0.920855      0.722445      0.580997
ITEM: TIMESTEP
1809
ITEM: NUMBER OF ATOMS
16
ITEM: BOX BOUNDS xy xz yz  pp  pp  pp
     -0.300000      4.040544      0.000000
     -0.300000      4.040544      0.000000
     -0.300000      2.769228      0.000000
ITEM: ATOMS id type xs ys zs
     1     1      0.222112      0.223066      0.170855
     2     1      0.649797      0.263737      0.613742
     3     1      0.317801      0.799400      0.515368
     4     1      0.821875      0.709914      1.034779
     5     2      0.862816      1.029598      0.190898
     6     2      0.530796      1.018394      1.049749
     7     2      0.990646      0.463801      0.236428
     8     2      0.505093      0.699621      1.039952
     9     2      0.925157      0.226745      0.768445
    10     2      0.385454      1.054720      0.762619
    11     2      0.168927      0.493102      0.697296
    12     2      0.496493      0.523035      0.445716
    13     2      0.162633      0.325690      0.656615
    14     2      0.855040      0.154507      0.105336
    15     2      0.322909      0.671056      1.045001
    16     2      0.920004      0.723255      0.580537
ITEM: TIMESTEP
1810
ITEM: NUMBER OF ATOMS
16
ITEM: BOX BOUNDS xy xz yz  pp  pp  pp
     -0.300000      4.040544      0.000000
     -0.300000      4.040544      0.000000
     -0.300000      2.769228      0.000000
ITEM: ATOMS id type xs ys zs
     1     1      0.222403      0.223351      0.170832
     2     1      0.649871      0.264186      0.613688
     3     1      0.317665      0.799245      0.515313
     4     1      0.821646      0.709627      1.034702
     5     2      0.862727      1.029746      0.190422
     6     2      0.530704      1.018153      1.049102
     7     2      0.989926      0.463528      0.235750
     8     2      0.504496      0.699277      1.039520
     9     2      0.925604      0.226079      0.768479
    10     2      0.385748      1.054755      0.763390
    11     2      0.168888      0.493136      0.697260
    12     2      0.496645      0.523158      0.445861
    13     2      0.162491      0.325196      0.657092
    14     2      0.854733      0.154539      0.106025
    15     2      0.322456      0.670915      1.044017
    16     2      0.919985      0.723141      0.580954
ITEM: TIMESTEP
1811
ITEM: NUMBER OF ATOMS
16
ITEM: BOX BOUNDS xy xz yz  pp  pp  pp
     -0.300000      4.040544      0.000000
     -0.300000      4.040544      0.000000
     -0.300000      2.769228      0.000000
ITEM: ATOMS id type xs ys zs
     1     1      0.222232      0.223919      0.171749
     2     1      0.649975      0.264527      0.613027
     3     1      0.317343      0.799420      0.514783
     4     1      0.821871      0.709233      1.034529
     5     2      0.862363      1.029322      0.190793
     6     2      0.530752      1.018541      1.049200
     7     2      0.989719      0.463708      0.235331
     8     2      0.505138      0.699057      1.039185
     9     2      0.926701      0.226004      0.768932
    10     2      0.385784      1.054939      0.762874
    11     2      0.168992      0.492749      0.696448
    12     2      0.496772      0.522939      0.446084
    13     2      0.162404      0.324577      0.656544
    14     2      0.854919      0.154958      0.105432
    15     2      0.322488      0.671301      1.043121
    16     2      0.919518      0.723601      0.581271
ITEM: TIMESTEP
1812
ITEM: NUMBER OF ATOMS
16
ITEM: BOX BOUNDS xy xz yz  pp  pp  pp
     -0.300000      4.040544      0.000000
     -0.300000      4.040544      0.000000
     -0.300000      2.769228      0.000000
ITEM: ATOMS id type xs ys zs
     1     1      0.222974      0.224195      0.171800
     2     1      0.650619      0.265061      0.613908
     3     1      0.317125      0.799069      0.514795
     4     1      0.822295      0.708990      1.034680
     5     2      0.862492      1.029464      0.189730
     6     2      0.531030      1.019091      1.049037
     7     2      0.989682      0.463796      0.235445
     8     2      0.504969      0.699168      1.039026
     9     2      0.927058      0.226356      0.768522
    10     2      0.385924      1.054604      0.762765
    11     2      0.169197      0.493243      0.695367
    12     2      0.496164      0.522927      0.446559
    13     2      0.162757      0.324227      0.656384
    14     2      0.855075      0.155213      0.105748
    15     2      0.322777      0.671984      1.042042
    16     2      0.919281      0.723785      0.581244
ITEM: TIMESTEP
1813
ITEM: NUMBER OF ATOMS
16
ITEM: BOX BOUNDS xy xz yz  pp  pp  pp
     -0.300000      4.040544      0.000000
     -0.300000      4.040544      0.000000
     -0.300000      2.769228      0.000000
ITEM: ATOMS id type xs ys zs
     1     1      0.222840      0.224620      0.171919
     2     1      0.650855      0.264867      0.614465
     3     1      0.316720      0.798543      0.514162
     4     1      0.822601      0.708437      1.035017
     5     2      0.862798      1.029728      0.189323
     6     2      0.530833      1.019948      1.049655
     7     2      0.989821      0.463343      0.236136
     8     2      0.504800      0.698680      1.039165
     9     2      0.927415      0.225561      0.768862
    10     2      0.385976      1.054554      0.762939
    11     2      0.169062      0.493133      0.695051
    12     2      0.496245      0.523027      0.447130
    13     2      0.162442      0.323659      0.656592
    14     2      0.854839      0.155592      0.105669
    15     2      0.322967      0.672646      1.042530
    16     2      0.919683      0.724189      0.581242
ITEM: TIMESTEP
1814
ITEM: NUMBER OF ATOMS
16
ITEM: BOX BOUNDS xy xz yz  pp  pp  pp
     -0.300000      4.040544      0.000000
     -0.300000      4.040544      0.000000
     -0.300000      2.769228      0.000000
ITEM: ATOMS id type xs ys zs
     1     1      0.222438      0.224601      0.171500
     2     1      0.651562      0.264264      0.613783
     3     1      0.316300      0.798523      0.514433
     4     1      0.822536      0.708490      1.035152
     5     2      0.862714      1.029517      0.189590
     6     2      0.530731      1.020042      1.049633
     7     2      0.989944      0.463670      0.236575
     8     2      0.504498      0.699215      1.039780
     9     2      0.927609      0.225324      0.768958
    10     2      0.385739      1.054431      0.762812
    11     2      0.169502      0.493038      0.694569
    12     2      0.496451      0.523597      0.446758
    13     2      0.162631      0.323545      0.656709
    14     2      0.854677      0.156345      0.105767
    15     2      0.322721      0.673239      1.042173
    16     2      0.919953      0.724361      0.581108
ITEM: TIMESTEP
1815
ITEM: NUMBER OF ATOMS
16
ITEM: BOX BOUNDS xy xz yz  pp  pp  pp
     -0.300000      4.040544      0.000000
     -0.300000      4.040544      0.000000
     -0.300000      2.769228      0.000000
ITEM: ATOMS id type xs ys zs
     1     1      0.222365      0.224436      0.170734
     2     1      0.651068      0.264105      0.613051
     3     1      0.316424      0.797912      0.514692
     4     1      0.822432      0.708076      1.034479
     5     2      0.862361      1.029069      0.189352
     6     2      0.530305      1.020451      1.050151
     7     2      0.989952      0.463856      0.236902
     8     2      0.504768      0.698736      1.039861
     9     2      0.927875      0.225442      0.769172
    10     2      0.386201      1.054789      0.763468
    11     2      0.169415      0.493057      0.694143
    12     2      0.496905      0.523896      0.446281
    13     2      0.162551      0.323142      0.656747
    14     2      0.854379      0.156953      0.106655
    15     2      0.322661      0.673578      1.041207
    16     2      0.919986      0.724256      0.581205
ITEM: TIMESTEP
1816
ITEM: NUMBER OF ATOMS
16
ITEM: BOX BOUNDS xy xz yz  pp  pp  pp
     -0.300000      4.040544      0.000000
     -0.300000      4.040544      0.000000
     -0.300000      2.769228      0.000000
ITEM: ATOMS id type xs ys zs
     1     1      0.222021      0.224979      0.169856
     2     1      0.650998      0.263334      0.612321
     3     1      0.316751      0.797409      0.515216
     4     1      0.821678      0.708104      1.034122
     5     2      0.862465      1.029334      0.188471
     6     2      0.530212      1.020301      1.050361
     7     2      0.990170      0.464273      0.237662
     8     2      0.504222      0.698827      1.039318
     9     2      0.928361      0.225466      0.769679
    10     2      0.386135      1.055029      0.763467
    11     2      0.169656      0.493319      0.693706
    12     2      0.497031      0.523757      0.446115
    13     2      0.162699      0.322137      0.657120
    14     2      0.853977      0.156369      0.106368
    15     2      0.322170      0.674115      1.040179
    16     2      0.919759      0.724131      0.581587
ITEM: TIMESTEP
1817
ITEM: NUMBER OF ATOMS
16
ITEM: BOX BOUNDS xy xz yz  pp  pp  pp
     -0.300000      4.040544      0.000000
     -0.300000      4.040544      0.000000
     -0.300000      2.769228      0.000000
ITEM: ATOMS id type xs ys zs
     1     1      0.222048      0.225161      0.169820
     2     1      0.651115      0.263236      0.611781
     3     1      0.316333      0.797570      0.516527
     4     1      0.821828      0.707996      1.034205
     5     2      0.862318      1.029320      0.189018
     6     2      0.530095      1.020016      1.050722
     7     2      0.991053      0.464836      0.237903
     8     2      0.503814      0.698770      1.039537
     9     2      0.928594      0.225504      0.769939
    10     2      0.385951      1.054942      0.763702
    11     2      0.169630      0.492936      0.692591
    12     2      0.497748      0.523980      0.446246
    13     2      0.163083      0.321314      0.656804
    14     2      0.853912      0.156633      0.106710
    15     2      0.322393      0.674287      1.039980
    16     2      0.920003      0.723952      0.581100
ITEM: TIMESTEP
1818
ITEM: NUMBER OF ATOMS
16
ITEM: BOX BOUNDS xy xz yz  pp  pp  pp
     -0.300000      4.040544      0.000000
     -0.300000      4.040544      0.000000
     -0.300000      2.769228      0.000000
ITEM: ATOMS id type xs ys zs
     1     1      0.222445      0.224881      0.169967
     2     1      0.650883      0.262744      0.611796
     3     1      0.315977      0.797470      0.516458
     4     1      0.821147      0.707601      1.034398
     5     2      0.862797      1.028995      0.188713
     6     2      0.529839      1.020083      1.051251
     7     2      0.991185      0.465078      0.237918
     8     2      0.503721      0.698275      1.039862
     9     2      0.928860      0.225819      0.770197
    10     2      0.385693      1.054623      0.763885
    11     2      0.169573      0.492625      0.692143
    12     2      0.497715      0.524127      0.446090
    13     2      0.163858      0.320391      0.657660
    14     2      0.853411      0.156860      0.106447
    15     2      0.322613      0.674698      1.040118
    16     2      0.919833      0.724271      0.581121
ITEM: TIMESTEP
1819
ITEM: NUMBER OF ATOMS
16
ITEM: BOX BOUNDS xy xz yz  pp  pp  pp
     -0.300000      4.040544      0.000000
     -0.300000      4.040544      0.000000
     -0.300000      2.769228      0.000000
ITEM: ATOMS id type xs ys zs
     1     1      0.222671      0.225084      0.170085
     2     1      0.651522      0.262528      0.611868
     3     1      0.315647      0.797073      0.515697
     4     1      0.821013      0.707823      1.033903
     5     2      0.863009      1.028604      0.188143
     6     2      0.529295      1.020354      1.051156
     7     2      0.991083      0.465193      0.238416
     8     2      0.503313      0.698694      1.040670
     9     2      0.929655      0.225517      0.769973
    10     2      0.385681      1.054421      0.763712
    11     2      0.169917      0.492737      0.691238
    12     2      0.497994      0.523545      0.445784
    13     2      0.164338      0.320017      0.657642
    14     2      0.853492      0.157235      0.105785
    15     2      0.322092      0.675369      1.039397
    16     2      0.920389      0.724422      0.581521
ITEM: TIMESTEP
1820
ITEM: NUMBER OF ATOMS
16
ITEM: BOX BOUNDS xy xz yz  pp  pp  pp
     -0.300000      4.040544      0.000000
     -0.300000      4.040544      0.000000
     -0.300000      2.769228      0.000000
ITEM: ATOMS id type xs ys zs
     1     1      0.222808      0.224985      0.169893
     2     1      0.651191      0.262806      0.611501
     3     1      0.315251      0.796214      0.516848
     4     1      0.820840      0.707528      1.033754
     5     2      0.863099      1.028425      0.188226
     6     2      0.529382      1.020179      1.051430
     7     2      0.990673      0.464511      0.238335
     8     2      0.503287      0.698261      1.041166
     9     2      0.930277      0.225475      0.769851
    10     2      0.385396      1.054404      0.764224
    11     2      0.169154      0.492800      0.690548
    12     2      0.497820      0.523890      0.446849
    13     2      0.164408      0.319057      0.658780
    14     2      0.853334      0.157630      0.105689
    15     2      0.322385      0.675652      1.039215
    16     2      0.920701      0.724309      0.582140
ITEM: TIMESTEP
1821
ITEM: NUMBER OF ATOMS
16
ITEM: BOX BOUNDS xy xz yz  pp  pp  pp
     -0.300000      4.040544      0.000000
     -0.300000      4.040544      0.000000
     -0.300000      2.769228      0.000000
ITEM: ATOMS id type xs ys zs
     1     1      0.222759      0.225314      0.169779
     2     1      0.651255      0.262874      0.611708
     3     1      0.315484      0.796458      0.517168
     4     1      0.820675      0.706969      1.033891
     5     2      0.863283      1.027732      0.187548
     6     2      0.529146      1.020567      1.050982
     7     2      0.990777      0.464588      0.238914
     8     2      0.503827      0.698288      1.041804
     9     2      0.931373      0.225506      0.769721
    10     2      0.385100      1.054643      0.764758
    11     2      0.168848      0.493206      0.690190
    12     2      0.498287      0.523940      0.446639
    13     2      0.164827      0.318444      0.659027
    14     2      0.853117      0.157375      0.105302
    15     2      0.322141      0.675494      1.039178
    16     2      0.920709      0.724198      0.581649
ITEM: TIMESTEP
1822
ITEM: NUMBER OF ATOMS
16
ITEM: BOX BOUNDS xy xz yz  pp  pp  pp
     -0.300000      4.040544      0.000000
     -0.300000      4.040544      0.000000
     -0.300000      2.769228      0.000000
ITEM: ATOMS id type xs ys zs
     1     1      0.222496      0.225397      0.169883
     2     1      0.652033      0.262839      0.611954
     3     1      0.314862      0.796280      0.517361
     4     1      0.820382      0.706970      1.033591
     5     2      0.863806      1.027450      0.187522
     6     2      0.528722      1.020794      1.050792
     7     2      0.990921      0.465023      0.238845
     8     2      0.504236      0.698129      1.041511
     9     2      0.931436      0.224981      0.770318
    10     2      0.385020      1.053947      0.765192
    11     2      0.169319      0.493133      0.689449
    12     2      0.498490      0.523534      0.446703
    13     2      0.164634      0.318496      0.659202
    14     2      0.852818      0.157483      0.105442
    15     2      0.321977      0.675569      1.038426
    16     2      0.920750      0.724436      0.581221
ITEM: TIMESTEP
1823
ITEM: NUMBER OF ATOMS
16
ITEM: BOX BOUNDS xy xz yz  pp  pp  pp
     -0.300000      4.040544      0.000000
     -0.300000      4.040544      0.000000
     -0.300000      2.769228      0.000000
ITEM: ATOMS id type xs ys zs
     1     1      0.222603      0.225353      0.170661
     2     1      0.652090      0.262635      0.611868
     3     1      0.314821      0.796151      0.517889
     4     1      0.820519      0.706975      1.033368
     5     2      0.864449      1.027467      0.187502
     6     2      0.528849      1.020920      1.051057
     7     2      0.991598      0.465101      0.239147
     8     2      0.504026      0.698278      1.042179
     9     2      0.931635      0.225302      0.769651
    10     2      0.385022      1.053866      0.765169
    11     2      0.168993      0.493424      0.689523
    12     2      0.498253      0.523433      0.446987
    13     2      0.165199      0.317837      0.658541
    14     2      0.852798      0.157934      0.104639
    15     2      0.322376      0.675778      1.038577
    16     2      0.920668      0.724513      0.581654
ITEM: TIMESTEP
1824
ITEM: NUMBER OF ATOMS
16
ITEM: BOX BOUNDS xy xz yz  pp  pp  pp
     -0.300000      4.040544      0.000000
     -0.300000      4.040544      0.000000
     -0.300000      2.769228      0.000000
ITEM: ATOMS id type xs ys zs
     1     1      0.222744      0.225413      0.170225
     2     1      0.652583      0.262398      0.611979
     3     1      0.315095      0.795706      0.518490
     4     1      0.820294      0.706691      1.032700
     5     2      0.864524      1.027691      0.186828
     6     2      0.528958      1.020712      1.051880
     7     2      0.991230      0.464933      0.239851
     8     2      0.503565      0.698137      1.042134
     9     2      0.931400      0.224880      0.768418
    10     2      0.384659      1.053753      0.766358
    11     2      0.168727      0.493238      0.689572
    12     2      0.498400      0.522858      0.447262
    13     2      0.165857      0.317496      0.658562
    14     2      0.852728      0.158049      0.104228
    15     2      0.321604      0.675767      1.038740
    16     2      0.920375      0.724477      0.581805
ITEM: TIMESTEP
1825
ITEM: NUMBER OF ATOMS
16
ITEM: BOX BOUNDS xy xz yz  pp  pp  pp
     -0.300000      4.040544      0.000000
     -0.300000      4.040544      0.000000
     -0.300000      2.769228      0.000000
ITEM: ATOMS id type xs ys zs
     1     1      0.222827      0.225726      0.170520
     2     1      0.652487      0.262546      0.611728
     3     1      0.314614      0.795662      0.518416
     4     1      0.820227      0.706119      1.031875
     5     2      0.864349      1.027608      0.186655
     6     2      0.528703      1.021117      1.052192
     7     2      0.991068      0.464419      0.240003
     8     2      0.503216      0.698590      1.042002
     9     2      0.931932      0.224961      0.768114
    10     2      0.384647      1.053552      0.765433
    11     2      0.168695      0.493510      0.688582
    12     2      0.498444      0.523150      0.447892
    13     2      0.165787      0.317201      0.657957
    14     2      0.852587      0.157499      0.103802
    15     2      0.321147      0.675925      1.038896
    16     2      0.920966      0.724158      0.581885
ITEM: TIMESTEP
1826
ITEM: NUMBER OF ATOMS
16
ITEM: BOX BOUNDS xy xz yz  pp  pp  pp
     -0.300000      4.040544      0.000000
     -0.300000      4.040544      0.000000
     -0.300000      2.769228      0.000000
ITEM: ATOMS id type xs ys zs
     1     1      0.223228      0.226218      0.170804
     2     1      0.652970      0.262156      0.610967
     3     1      0.314973      0.795477      0.519479
     4     1      0.820113      0.705574      1.031961
     5     2      0.864275      1.027749      0.186315
     6     2      0.528814      1.021361      1.052590
     7     2      0.991286      0.464630      0.240016
     8     2      0.503706      0.698044      1.041505
     9     2      0.932073      0.225060      0.767735
    10     2      0.385301      1.053631      0.764996
    11     2      0.167931      0.493999      0.689230
    12     2      0.498156      0.523284      0.448533
    13     2      0.165733      0.317255      0.658047
    14     2      0.852359      0.157636      0.104399
    15     2      0.321281      0.675833      1.039013
    16     2      0.920300      0.723959      0.581828
ITEM: TIMESTEP
1827
ITEM: NUMBER OF ATOMS
16
ITEM: BOX BOUNDS xy xz yz  pp  pp  pp
     -0.300000      4.040544      0.000000
     -0.300000      4.040544      0.000000
     -0.300000      2.769228      0.000000
ITEM: ATOMS id type xs ys zs
     1     1      0.223552      0.225682      0.171200
     2     1      0.653234      0.261881      0.611320
     3     1      0.314859      0.795545      0.519914
     4     1      0.820544      0.705740      1.032247
     5     2      0.863571      1.027787      0.186211
     6     2      0.528954      1.021370      1.052877
     7     2      0.991223      0.464217      0.240646
     8     2      0.504171      0.698191      1.041386
     9     2      0.932657      0.224942      0.767310
    10     2      0.385091      1.053623      0.765158
    11     2      0.167563      0.493911      0.689311