ITEM: TIMESTEP
1801
ITEM: NUMBER OF ATOMS
16
ITEM: BOX BOUNDS xy xz yz  pp  pp  pp
     -0.300000      4.040544      0.000000
     -0.300000      4.040544      0.000000
     -0.300000      2.769228      0.000000
ITEM: ATOMS id type xs ys zs
     1     1      0.218681      0.221869      0.170967
     2     1      0.652011      0.262039      0.617571
     3     1      0.318170      0.801541      0.513770
     4     1      0.823006      0.712984      1.037260
     5     2      0.861318      1.028735      0.194182
     6     2      0.532047      1.017355      1.048434
     7     2      0.990601      0.464729      0.236069
     8     2      0.504730      0.701829      1.040035
     9     2      0.920869      0.228932      0.765431
    10     2      0.387159      1.052973      0.761656
    11     2      0.169136      0.493485      0.702464
    12     2      0.497450      0.522813      0.445497
    13     2      0.160566      0.329420      0.656068
    14     2      0.856871      0.152366      0.103984
    15     2      0.323203      0.669556      1.046126
    16     2      0.922556      0.723565      0.581273
ITEM: TIMESTEP
1802
ITEM: NUMBER OF ATOMS
16
ITEM: BOX BOUNDS xy xz yz  pp  pp  pp
     -0.300000      4.040544      0.000000
     -0.300000      4.040544      0.000000
     -0.300000      2.769228      0.000000
ITEM: ATOMS id type xs ys zs
     1     1      0.219489      0.222214      0.170018
     2     1      0.651740      0.262468      0.616817
     3     1      0.317576      0.800929      0.513615
     4     1      0.823351      0.712196      1.036465
     5     2      0.860547      1.028536      0.193993
     6     2      0.532416      1.017499      1.048355
     7     2      0.990469      0.464745      0.235964
     8     2      0.504837      0.701605      1.039997
     9     2      0.921122      0.228196      0.765117
    10     2      0.387810      1.053384      0.762237
    11     2      0.169017      0.493374      0.702473
    12     2      0.497189      0.522767      0.445710
    13     2      0.160753      0.329696      0.656716
    14     2      0.856667      0.152883      0.104234
    15     2      0.322730      0.669418      1.046240
    16     2      0.922387      0.723698      0.580747
ITEM: TIMESTEP
1803
ITEM: NUMBER OF ATOMS
16
ITEM: BOX BOUNDS xy xz yz  pp  pp  pp
     -0.300000      4.040544      0.000000
     -0.300000      4.040544      0.000000
     -0.300000      2.769228      0.000000
ITEM: ATOMS id type xs ys zs
     1     1      0.219604      0.222709      0.169646
     2     1      0.651719      0.262828      0.616721
     3     1      0.317758      0.801004      0.514259
     4     1      0.823221      0.711571      1.036391
     5     2      0.860954      1.028371      0.194074
     6     2      0.532155      1.018099      1.048923
     7     2      0.990031      0.464908      0.235803
     8     2      0.505250      0.701389      1.039032
     9     2      0.921662      0.228108      0.764542
    10     2      0.387799      1.053648      0.761576
    11     2      0.168889      0.493185      0.701837
    12     2      0.496388      0.522564      0.445506
    13     2      0.160987      0.329875      0.656824
    14     2      0.856059      0.153027      0.104406
    15     2      0.323018      0.669652      1.045264
    16     2      0.921891      0.723507      0.580233
ITEM: TIMESTEP
1804
ITEM: NUMBER OF ATOMS
16
ITEM: BOX BOUNDS xy xz yz  pp  pp  pp
     -0.300000      4.040544      0.000000
     -0.300000      4.040544      0.000000
     -0.300000      2.769228      0.000000
ITEM: ATOMS id type xs ys zs
     1     1      0.219864      0.222856      0.169890
     2     1      0.651594      0.262455      0.615829
     3     1      0.317655      0.800527      0.513954
     4     1      0.823217      0.710597      1.036006
     5     2      0.861215      1.028338      0.193739
     6     2      0.531761      1.018301      1.049302
     7     2      0.989454      0.465187      0.235236
     8     2      0.505328      0.700901      1.038970
     9     2      0.921833      0.227493      0.765010
    10     2      0.388110      1.053863      0.761679
    11     2      0.168875      0.492653      0.702182
    12     2      0.496700      0.522569      0.446000
    13     2      0.160821      0.329244      0.656565
    14     2      0.855344      0.153190      0.104344
    15     2      0.322906      0.669593      1.045435
    16     2      0.921784      0.723672      0.580414
ITEM: TIMESTEP
1805
ITEM: NUMBER OF ATOMS
16
ITEM: BOX BOUNDS xy xz yz  pp  pp  pp
     -0.300000      4.040544      0.000000
     -0.300000      4.040544      0.000000
     -0.300000      2.769228      0.000000
ITEM: ATOMS id type xs ys zs
     1     1      0.220096      0.222917      0.170461
     2     1      0.651373      0.262334      0.615566
     3     1      0.317292      0.800375      0.513491
     4     1      0.823350      0.710038      1.035156
     5     2      0.860951      1.028953      0.193565
     6     2      0.532318      1.018436      1.049624
     7     2      0.988872      0.465141      0.235222
     8     2      0.505243      0.700825      1.038613
     9     2      0.922177      0.227252      0.765332
    10     2      0.387794      1.054776      0.762171
    11     2      0.168213      0.492554      0.701539
    12     2      0.496706      0.522056      0.446163
    13     2      0.161132      0.329467      0.656486
    14     2      0.855243      0.153442      0.104211
    15     2      0.322710      0.669745      1.045422
    16     2      0.921804      0.723883      0.580626
ITEM: TIMESTEP
1806
ITEM: NUMBER OF ATOMS
16
ITEM: BOX BOUNDS xy xz yz  pp  pp  pp
     -0.300000      4.040544      0.000000
     -0.300000      4.040544      0.000000
     -0.300000      2.769228      0.000000
ITEM: ATOMS id type xs ys zs
     1     1      0.220176      0.222797      0.169884
     2     1      0.651493      0.263202      0.614648
     3     1      0.316952      0.799598      0.513486
     4     1      0.823143      0.709683      1.034732
     5     2      0.860846      1.028952      0.193133
     6     2      0.531795      1.018602      1.049936
     7     2      0.989181      0.465183      0.235271
     8     2      0.504686      0.701166      1.038385
     9     2      0.921916      0.226935      0.765413
    10     2      0.387766      1.054984      0.762278
    11     2      0.168068      0.493047      0.700665
    12     2      0.496953      0.522166      0.446805
    13     2      0.161138      0.329640      0.656988
    14     2      0.855298      0.153353      0.105700
    15     2      0.322330      0.669836      1.045783
    16     2      0.921094      0.723897      0.581203
ITEM: TIMESTEP
1807
ITEM: NUMBER OF ATOMS
16
ITEM: BOX BOUNDS xy xz yz  pp  pp  pp
     -0.300000      4.040544      0.000000
     -0.300000      4.040544      0.000000
     -0.300000      2.769228      0.000000
ITEM: ATOMS id type xs ys zs
     1     1      0.220318      0.223004      0.170094
     2     1      0.650928      0.263750      0.614213
     3     1      0.316774      0.799430      0.513458
     4     1      0.823236      0.709467      1.035199
     5     2      0.861217      1.029220      0.192536
     6     2      0.531416      1.018670      1.049810
     7     2      0.988617      0.464940      0.235070
     8     2      0.504349      0.701160      1.039726
     9     2      0.922332      0.226232      0.765332
    10     2      0.388106      1.055691      0.762610
    11     2      0.168197      0.493065      0.699723
    12     2      0.496942      0.522337      0.446957
    13     2      0.161798      0.329331      0.657983
    14     2      0.855223      0.153326      0.105274
    15     2      0.322759      0.670178      1.045537
    16     2      0.920859      0.723875      0.580826
ITEM: TIMESTEP
1808
ITEM: NUMBER OF ATOMS
16
ITEM: BOX BOUNDS xy xz yz  pp  pp  pp
     -0.300000      4.040544      0.000000
     -0.300000      4.040544      0.000000
     -0.300000      2.769228      0.000000
ITEM: ATOMS id type xs ys zs
     1     1      0.220939      0.223203      0.170207
     2     1      0.650644      0.264016      0.613275
     3     1      0.316252      0.799454      0.513172
     4     1      0.823678      0.709499      1.035427
     5     2      0.861108      1.028921      0.192478
     6     2      0.531348      1.018553      1.049793
     7     2      0.988398      0.464963      0.235133
     8     2      0.504882      0.701138      1.039756
     9     2      0.922795      0.226234      0.764893
    10     2      0.388207      1.056092      0.763404
    11     2      0.167429      0.493101      0.699232
    12     2      0.496641      0.522443      0.447689
    13     2      0.161401      0.328901      0.658285
    14     2      0.855117      0.153847      0.105419
    15     2      0.323338      0.670753      1.044539
    16     2      0.920262      0.724030      0.580642
ITEM: TIMESTEP
1809
ITEM: NUMBER OF ATOMS
16
ITEM: BOX BOUNDS xy xz yz  pp  pp  pp
     -0.300000      4.040544      0.000000
     -0.300000      4.040544      0.000000
     -0.300000      2.769228      0.000000
ITEM: ATOMS id type xs ys zs
     1     1      0.220755      0.223724      0.170787
     2     1      0.650675      0.264139      0.613014
     3     1      0.316088      0.799667      0.513505
     4     1      0.823709      0.708824      1.034475
     5     2      0.860860      1.029316      0.192234
     6     2      0.530783      1.018437      1.049239
     7     2      0.987982      0.464588      0.235850
     8     2      0.504404      0.700729      1.040291
     9     2      0.923153      0.225953      0.764797
    10     2      0.387904      1.055588      0.764311
    11     2      0.167466      0.492783      0.698917
    12     2      0.496959      0.522822      0.448525
    13     2      0.161853      0.328880      0.657907
    14     2      0.854481      0.154172      0.105558
    15     2      0.323003      0.670672      1.044919
    16     2      0.920838      0.723851      0.580491
ITEM: TIMESTEP
1810
ITEM: NUMBER OF ATOMS
16
ITEM: BOX BOUNDS xy xz yz  pp  pp  pp
     -0.300000      4.040544      0.000000
     -0.300000      4.040544      0.000000
     -0.300000      2.769228      0.000000
ITEM: ATOMS id type xs ys zs
     1     1      0.221221      0.224069      0.170815
     2     1      0.650630      0.263863      0.612187
     3     1      0.315756      0.799969      0.514437
     4     1      0.823746      0.708564      1.035233
     5     2      0.860536      1.029139      0.192118
     6     2      0.530344      1.019249      1.049510
     7     2      0.987682      0.464271      0.235742
     8     2      0.504716      0.700858      1.039693
     9     2      0.923475      0.225869      0.764872
    10     2      0.387361      1.055464      0.764240
    11     2      0.167782      0.492980      0.698621
    12     2      0.496965      0.522786      0.448716
    13     2      0.162159      0.328811      0.658347
    14     2      0.854829      0.154211      0.106208
    15     2      0.323182      0.670691      1.044682
    16     2      0.920681      0.723792      0.579859
ITEM: TIMESTEP
1811
ITEM: NUMBER OF ATOMS
16
ITEM: BOX BOUNDS xy xz yz  pp  pp  pp
     -0.300000      4.040544      0.000000
     -0.300000      4.040544      0.000000
     -0.300000      2.769228      0.000000
ITEM: ATOMS id type xs ys zs
     1     1      0.221076      0.224388      0.171153
     2     1      0.650736      0.264033      0.612578
     3     1      0.315696      0.799957      0.515638
     4     1      0.823575      0.708544      1.035583
     5     2      0.860724      1.029516      0.192682
     6     2      0.530672      1.019162      1.049691
     7     2      0.988015      0.464648      0.236009
     8     2      0.504884      0.699900      1.039128
     9     2      0.923244      0.226021      0.764318
    10     2      0.387140      1.056105      0.764724
    11     2      0.168128      0.492817      0.698526
    12     2      0.497460      0.522235      0.449427
    13     2      0.162261      0.328792      0.658838
    14     2      0.854711      0.154588      0.105832
    15     2      0.322804      0.670809      1.044201
    16     2      0.920919      0.723144      0.579528
ITEM: TIMESTEP
1812
ITEM: NUMBER OF ATOMS
16
ITEM: BOX BOUNDS xy xz yz  pp  pp  pp
     -0.300000      4.040544      0.000000
     -0.300000      4.040544      0.000000
     -0.300000      2.769228      0.000000
ITEM: ATOMS id type xs ys zs
     1     1      0.221329      0.224304      0.170640
     2     1      0.651378      0.264029      0.612657
     3     1      0.315710      0.799902      0.515509
     4     1      0.823447      0.708410      1.035284
     5     2      0.860857      1.029618      0.191892
     6     2      0.530752      1.019164      1.049292
     7     2      0.987927      0.464994      0.237097
     8     2      0.504624      0.699431      1.039744
     9     2      0.923825      0.225827      0.764022
    10     2      0.387027      1.056163      0.765562
    11     2      0.167860      0.492364      0.698113
    12     2      0.497470      0.522310      0.450079
    13     2      0.162456      0.327938      0.658519
    14     2      0.854514      0.154766      0.106216
    15     2      0.323018      0.671277      1.044156
    16     2      0.920667      0.722897      0.579904
ITEM: TIMESTEP
1813
ITEM: NUMBER OF ATOMS
16
ITEM: BOX BOUNDS xy xz yz  pp  pp  pp
     -0.300000      4.040544      0.000000
     -0.300000      4.040544      0.000000
     -0.300000      2.769228      0.000000
ITEM: ATOMS id type xs ys zs
     1     1      0.221509      0.223973      0.170600
     2     1      0.651108      0.263745      0.611873
     3     1      0.315792      0.800119      0.516321
     4     1      0.822949      0.708264      1.034929
     5     2      0.861332      1.029556      0.191894
     6     2      0.530877      1.019807      1.049631
     7     2      0.988347      0.464781      0.237508
     8     2      0.505023      0.699150      1.039044
     9     2      0.923957      0.225423      0.763274
    10     2      0.386931      1.056093      0.765792
    11     2      0.167824      0.492197      0.698187
    12     2      0.497533      0.522898      0.450044
    13     2      0.162216      0.327310      0.657622
    14     2      0.854730      0.155125      0.106704
    15     2      0.322331      0.671879      1.043494
    16     2      0.920443      0.722773      0.579945
ITEM: TIMESTEP
1814
ITEM: NUMBER OF ATOMS
16
ITEM: BOX BOUNDS xy xz yz  pp  pp  pp
     -0.300000      4.040544      0.000000
     -0.300000      4.040544      0.000000
     -0.300000      2.769228      0.000000
ITEM: ATOMS id type xs ys zs
     1     1      0.221664      0.224786      0.170657
     2     1      0.650235      0.264115      0.611736
     3     1      0.315604      0.799570      0.516525
     4     1      0.823326      0.708007      1.034359
     5     2      0.860950      1.029887      0.191995
     6     2      0.530534      1.019620      1.049467
     7     2      0.988184      0.464531      0.238094
     8     2      0.505197      0.699300      1.039012
     9     2      0.924425      0.225556      0.762932
    10     2      0.387059      1.056250      0.766054
    11     2      0.167546      0.492486      0.697907
    12     2      0.497842      0.522800      0.450711
    13     2      0.162492      0.327234      0.657605
    14     2      0.854758      0.155846      0.106540
    15     2      0.322010      0.672306      1.043449
    16     2      0.920527      0.722767      0.580070
ITEM: TIMESTEP
1815
ITEM: NUMBER OF ATOMS
16
ITEM: BOX BOUNDS xy xz yz  pp  pp  pp
     -0.300000      4.040544      0.000000
     -0.300000      4.040544      0.000000
     -0.300000      2.769228      0.000000
ITEM: ATOMS id type xs ys zs
     1     1      0.221501      0.224846      0.170155
     2     1      0.650162      0.263628      0.610427
     3     1      0.315498      0.800021      0.517322
     4     1      0.823215      0.707500      1.034049
     5     2      0.861393      1.029988      0.191895
     6     2      0.530348      1.020070      1.049910
     7     2      0.987896      0.464534      0.238132
     8     2      0.505545      0.699399      1.039751
     9     2      0.924790      0.225260      0.762392
    10     2      0.386860      1.056000      0.766705
    11     2      0.167872      0.492729      0.697116
    12     2      0.497402      0.522672      0.451180
    13     2      0.162450      0.326561      0.657809
    14     2      0.855106      0.156415      0.106478
    15     2      0.322159      0.673009      1.043066
    16     2      0.920591      0.723176      0.580250
ITEM: TIMESTEP
1816
ITEM: NUMBER OF ATOMS
16
ITEM: BOX BOUNDS xy xz yz  pp  pp  pp
     -0.300000      4.040544      0.000000
     -0.300000      4.040544      0.000000
     -0.300000      2.769228      0.000000
ITEM: ATOMS id type xs ys zs
     1     1      0.221507      0.225119      0.170384
     2     1      0.650221      0.263922      0.610091
     3     1      0.315185      0.800230      0.516733
     4     1      0.824108      0.707649      1.033295
     5     2      0.861555      1.029879      0.192224
     6     2      0.530250      1.020857      1.050383
     7     2      0.987948      0.464538      0.238025
     8     2      0.506297      0.699132      1.039805
     9     2      0.925247      0.224485      0.763160
    10     2      0.386657      1.056298      0.766657
    11     2      0.167966      0.492574      0.696843
    12     2      0.497688      0.522819      0.451467
    13     2      0.162992      0.326258      0.657676
    14     2      0.854761      0.156343      0.106681
    15     2      0.321879      0.673108      1.043863
    16     2      0.920412      0.723629      0.580809
ITEM: TIMESTEP
1817
ITEM: NUMBER OF ATOMS
16
ITEM: BOX BOUNDS xy xz yz  pp  pp  pp
     -0.300000      4.040544      0.000000
     -0.300000      4.040544      0.000000
     -0.300000      2.769228      0.000000
ITEM: ATOMS id type xs ys zs
     1     1      0.221525      0.226311      0.170509
     2     1      0.649769      0.263833      0.609909
     3     1      0.314785      0.800242      0.516871
     4     1      0.824676      0.707682      1.033804
     5     2      0.861916      1.030593      0.192486
     6     2      0.530532      1.020859      1.050551
     7     2      0.987631      0.464020      0.238018
     8     2      0.506426      0.699459      1.039983
     9     2      0.925685      0.224042      0.763913
    10     2      0.386600      1.056547      0.766248
    11     2      0.168412      0.492337      0.696253
    12     2      0.497948      0.523061      0.452367
    13     2      0.162738      0.325528      0.657966
    14     2      0.854828      0.156559      0.106583
    15     2      0.322060      0.674513      1.044808
    16     2      0.920083      0.723402      0.580238
ITEM: TIMESTEP
1818
ITEM: NUMBER OF ATOMS
16
ITEM: BOX BOUNDS xy xz yz  pp  pp  pp
     -0.300000      4.040544      0.000000
     -0.300000      4.040544      0.000000
     -0.300000      2.769228      0.000000
ITEM: ATOMS id type xs ys zs
     1     1      0.221395      0.226714      0.171213
     2     1      0.650017      0.264042      0.609327
     3     1      0.315415      0.799781      0.517008
     4     1      0.824724      0.707587      1.032991
     5     2      0.861892      1.030178      0.192406
     6     2      0.529985      1.021157      1.050058
     7     2      0.987472      0.463946      0.237227
     8     2      0.506521      0.699607      1.039925
     9     2      0.927143      0.223584      0.763736
    10     2      0.387101      1.056713      0.766206
    11     2      0.168481      0.492162      0.696759
    12     2      0.497936      0.523167      0.453520
    13     2      0.163631      0.325402      0.657987
    14     2      0.854947      0.157085      0.107195
    15     2      0.321745      0.674746      1.045026
    16     2      0.920143      0.723592      0.581257
ITEM: TIMESTEP
1819
ITEM: NUMBER OF ATOMS
16
ITEM: BOX BOUNDS xy xz yz  pp  pp  pp
     -0.300000      4.040544      0.000000
     -0.300000      4.040544      0.000000
     -0.300000      2.769228      0.000000
ITEM: ATOMS id type xs ys zs
     1     1      0.221458      0.227127      0.170920
     2     1      0.650094      0.263763      0.609092
     3     1      0.314850      0.799814      0.517011
     4     1      0.824392      0.707970      1.033219
     5     2      0.861454      1.030004      0.191653
     6     2      0.529606      1.020613      1.050566
     7     2      0.987719      0.463538      0.237566
     8     2      0.506440      0.699039      1.040640
     9     2      0.927709      0.223731      0.763403
    10     2      0.387442      1.056518      0.766779
    11     2      0.168717      0.492828      0.696348
    12     2      0.498009      0.523044      0.454308
    13     2      0.163474      0.324983      0.658506
    14     2      0.854964      0.157561      0.106768
    15     2      0.321488      0.675243      1.044911
    16     2      0.919990      0.723704      0.581076
ITEM: TIMESTEP
1820
ITEM: NUMBER OF ATOMS
16
ITEM: BOX BOUNDS xy xz yz  pp  pp  pp
     -0.300000      4.040544      0.000000
     -0.300000      4.040544      0.000000
     -0.300000      2.769228      0.000000
ITEM: ATOMS id type xs ys zs
     1     1      0.221978      0.227931      0.171184
     2     1      0.650524      0.264519      0.609064
     3     1      0.314592      0.799257      0.517238
     4     1      0.824875      0.707961      1.032752
     5     2      0.861168      1.029929      0.191262
     6     2      0.529115      1.020597      1.051134
     7     2      0.987949      0.463420      0.237264
     8     2      0.506047      0.699365      1.041067
     9     2      0.928264      0.223387      0.763017
    10     2      0.387537      1.056498      0.767088
    11     2      0.168575      0.493182      0.696359
    12     2      0.497965      0.522962      0.453824
    13     2      0.163706      0.325117      0.657860
    14     2      0.855408      0.157900      0.106997
    15     2      0.321200      0.675824      1.045328
    16     2      0.919534      0.723614      0.580423
ITEM: TIMESTEP
1821
ITEM: NUMBER OF ATOMS
16
ITEM: BOX BOUNDS xy xz yz  pp  pp  pp
     -0.300000      4.040544      0.000000
     -0.300000      4.040544      0.000000
     -0.300000      2.769228      0.000000
ITEM: ATOMS id type xs ys zs
     1     1      0.222034      0.228128      0.171121
     2     1      0.650312      0.263949      0.609319
     3     1      0.314125      0.798280      0.517135
     4     1      0.824992      0.708051      1.033197
     5     2      0.861216      1.029736      0.191449
     6     2      0.528877      1.020459      1.050928
     7     2      0.987702      0.463876      0.237736
     8     2      0.506168      0.698733      1.040815
     9     2      0.928244      0.222667      0.763079
    10     2      0.387765      1.056510      0.766004
    11     2      0.168588      0.492831      0.696874
    12     2      0.497662      0.523699      0.453924
    13     2      0.163487      0.324703      0.657093
    14     2      0.855436      0.157678      0.107125
    15     2      0.320755      0.676052      1.045043
    16     2      0.920108      0.723713      0.580422
ITEM: TIMESTEP
1822
ITEM: NUMBER OF ATOMS
16
ITEM: BOX BOUNDS xy xz yz  pp  pp  pp
     -0.300000      4.040544      0.000000
     -0.300000      4.040544      0.000000
     -0.300000      2.769228      0.000000
ITEM: ATOMS id type xs ys zs
     1     1      0.221876      0.228363      0.171542
     2     1      0.650150      0.264343      0.609789
     3     1      0.313497      0.798338      0.516881
     4     1      0.824309      0.708293      1.033413
     5     2      0.861780      1.029149      0.190296
     6     2      0.528996      1.020920      1.050808
     7     2      0.988668      0.463763      0.238116
     8     2      0.506049      0.698911      1.040555
     9     2      0.928690      0.223186      0.763353
    10     2      0.387647      1.056224      0.767109
    11     2      0.168754      0.492367      0.696153
    12     2      0.498009      0.523548      0.454224
    13     2      0.163492      0.324317      0.656559
    14     2      0.855162      0.158169      0.106297
    15     2      0.320670      0.676585      1.045171
    16     2      0.919507      0.724043      0.580383
ITEM: TIMESTEP
1823
ITEM: NUMBER OF ATOMS
16
ITEM: BOX BOUNDS xy xz yz  pp  pp  pp
     -0.300000      4.040544      0.000000
     -0.300000      4.040544      0.000000
     -0.300000      2.769228      0.000000
ITEM: ATOMS id type xs ys zs
     1     1      0.221160      0.228654      0.171365
     2     1      0.649884      0.264733      0.609804
     3     1      0.313334      0.798656      0.517920
     4     1      0.824190      0.708300      1.032951
     5     2      0.861815      1.029070      0.190849
     6     2      0.528778      1.021132      1.050770
     7     2      0.988936      0.464304      0.239003
     8     2      0.506117      0.698437      1.040684
     9     2      0.928899      0.223652      0.763243
    10     2      0.387493      1.056967      0.767713
    11     2      0.168578      0.492820      0.695211
    12     2      0.498131      0.523671      0.453361
    13     2      0.163541      0.323881      0.656232
    14     2      0.855050      0.158540      0.105922
    15     2      0.320717      0.676711      1.045023
    16     2      0.919014      0.724509      0.580343
ITEM: TIMESTEP
1824
ITEM: NUMBER OF ATOMS
16
ITEM: BOX BOUNDS xy xz yz  pp  pp  pp
     -0.300000      4.040544      0.000000
     -0.300000      4.040544      0.000000
     -0.300000      2.769228      0.000000
ITEM: ATOMS id type xs ys zs
     1     1      0.221605      0.228940      0.171224
     2     1      0.649378      0.264615      0.609485
     3     1      0.313245      0.798888      0.517794
     4     1      0.824589      0.708005      1.032980
     5     2      0.862389      1.028978      0.191172
     6     2      0.528502      1.021427      1.050522
     7     2      0.988639      0.464717      0.239780
     8     2      0.505759      0.698024      1.040432
     9     2      0.928837      0.223483      0.763915
    10     2      0.387443      1.057012      0.768011
    11     2      0.168595      0.493119      0.695797
    12     2      0.498282      0.523429      0.452791
    13     2      0.163710      0.323425      0.655279
    14     2      0.854791      0.158363      0.105538
    15     2      0.320605      0.677096      1.044136
    16     2      0.918557      0.724455      0.579708
ITEM: TIMESTEP
1825
ITEM: NUMBER OF ATOMS
16
ITEM: BOX BOUNDS xy xz yz  pp  pp  pp
     -0.300000      4.040544      0.000000
     -0.300000      4.040544      0.000000
     -0.300000      2.769228      0.000000
ITEM: ATOMS id type xs ys zs
     1     1      0.221635      0.229210      0.170716
     2     1      0.649116      0.264938      0.610430
     3     1      0.313299      0.798829      0.518514
     4     1      0.824294      0.707757      1.033954
     5     2      0.862369      1.029177      0.191144
     6     2      0.528173      1.021275      1.050026
     7     2      0.988858      0.465047      0.239552
     8     2      0.505696      0.698018      1.041153
     9     2      0.929672      0.223203      0.764187
    10     2      0.388027      1.056912      0.767574
    11     2      0.168472      0.493412      0.696303
    12     2      0.498335      0.523623      0.452790
    13     2      0.164028      0.323036      0.655597
    14     2      0.855024      0.158459      0.105304
    15     2      0.320976      0.677579      1.043574
    16     2      0.918476      0.724231      0.579444
ITEM: TIMESTEP
1826
ITEM: NUMBER OF ATOMS
16
ITEM: BOX BOUNDS xy xz yz  pp  pp  pp
     -0.300000      4.040544      0.000000
     -0.300000      4.040544      0.000000
     -0.300000      2.769228      0.000000
ITEM: ATOMS id type xs ys zs
     1     1      0.221706      0.229248      0.171434
     2     1      0.649523      0.264739      0.610962
     3     1      0.313650      0.798812      0.518864
     4     1      0.823848      0.707894      1.034320
     5     2      0.862398      1.028940      0.190791
     6     2      0.527829      1.021170      1.050606
     7     2      0.988688      0.464611      0.239795
     8     2      0.505625      0.698102      1.040314
     9     2      0.930295      0.222783      0.764013
    10     2      0.388259      1.057120      0.767985
    11     2      0.168998      0.493248      0.695893
    12     2      0.498225      0.523469      0.452679
    13     2      0.164513      0.322533      0.656066
    14     2      0.854324      0.157895      0.105349
    15     2      0.321549      0.678098      1.043164
    16     2      0.918243      0.724029      0.579076
ITEM: TIMESTEP
1827
ITEM: NUMBER OF ATOMS
16
ITEM: BOX BOUNDS xy xz yz  pp  pp  pp
     -0.300000      4.040544      0.000000
     -0.300000      4.040544      0.000000
     -0.300000      2.769228      0.000000
ITEM: ATOMS id type xs ys zs
     1     1      0.221895      0.229634      0.170541
     2     1      0.650150      0.264512      0.611246
     3     1      0.314013      0.798430      0.518561
     4     1      0.823774      0.708069      1.034434
     5     2      0.862678      1.028637      0.190170
     6     2      0.527370      1.020733      1.050802
     7     2      0.988681      0.464361      0.240392
     8     2      0.505496      0.697777      1.040225
     9     2      0.930657      0.222328      0.763676
    10     2      0.388075      1.057855      0.768435
    11     2      0.168844      0.493233      0.696469