ITEM: TIMESTEP
1801
ITEM: NUMBER OF ATOMS
16
ITEM: BOX BOUNDS xy xz yz  pp  pp  pp
     -0.300000      4.040544      0.000000
     -0.300000      4.040544      0.000000
     -0.300000      2.769228      0.000000
ITEM: ATOMS id type xs ys zs
     1     1      0.218301      0.222690      0.171624
     2     1      0.652275      0.261912      0.617343
     3     1      0.318262      0.801552      0.513910
     4     1      0.822775      0.712683      1.036661
     5     2      0.860679      1.028870      0.193808
     6     2      0.531592      1.017750      1.046834
     7     2      0.990333      0.464040      0.236196
     8     2      0.504449      0.701346      1.039132
     9     2      0.921376      0.229502      0.765813
    10     2      0.387132      1.053371      0.761635
    11     2      0.169971      0.493572      0.702823
    12     2      0.497764      0.522916      0.446528
    13     2      0.160709      0.329691      0.656974
    14     2      0.856750      0.152347      0.104403
    15     2      0.322411      0.669743      1.046480
    16     2      0.922622      0.722620      0.580439
ITEM: TIMESTEP
1802
ITEM: NUMBER OF ATOMS
16
ITEM: BOX BOUNDS xy xz yz  pp  pp  pp
     -0.300000      4.040544      0.000000
     -0.300000      4.040544      0.000000
     -0.300000      2.769228      0.000000
ITEM: ATOMS id type xs ys zs
     1     1      0.218327      0.222410      0.171599
     2     1      0.652333      0.261716      0.618268
     3     1      0.318200      0.801108      0.513632
     4     1      0.822230      0.712154      1.036448
     5     2      0.860486      1.029465      0.193117
     6     2      0.531640      1.018185      1.047005
     7     2      0.990262      0.463935      0.237000
     8     2      0.504327      0.701658      1.038307
     9     2      0.921942      0.229983      0.765316
    10     2      0.387556      1.053917      0.762045
    11     2      0.169645      0.493485      0.702598
    12     2      0.497506      0.523441      0.447304
    13     2      0.161179      0.329768      0.656927
    14     2      0.856289      0.151959      0.103953
    15     2      0.322515      0.669703      1.046864
    16     2      0.922226      0.722568      0.580709
ITEM: TIMESTEP
1803
ITEM: NUMBER OF ATOMS
16
ITEM: BOX BOUNDS xy xz yz  pp  pp  pp
     -0.300000      4.040544      0.000000
     -0.300000      4.040544      0.000000
     -0.300000      2.769228      0.000000
ITEM: ATOMS id type xs ys zs
     1     1      0.218742      0.222356      0.171149
     2     1      0.652174      0.261703      0.618913
     3     1      0.317686      0.800797      0.512547
     4     1      0.821738      0.712088      1.036318
     5     2      0.860990      1.029410      0.192668
     6     2      0.531360      1.018709      1.046805
     7     2      0.990040      0.464348      0.237558
     8     2      0.504180      0.701230      1.037849
     9     2      0.922906      0.230099      0.765551
    10     2      0.388066      1.054376      0.762615
    11     2      0.169931      0.493558      0.702137
    12     2      0.498065      0.523135      0.447070
    13     2      0.161373      0.329678      0.656471
    14     2      0.856724      0.152203      0.103346
    15     2      0.323159      0.669634      1.046895
    16     2      0.922139      0.722349      0.581051
ITEM: TIMESTEP
1804
ITEM: NUMBER OF ATOMS
16
ITEM: BOX BOUNDS xy xz yz  pp  pp  pp
     -0.300000      4.040544      0.000000
     -0.300000      4.040544      0.000000
     -0.300000      2.769228      0.000000
ITEM: ATOMS id type xs ys zs
     1     1      0.219082      0.222965      0.170783
     2     1      0.652169      0.261359      0.618633
     3     1      0.316936      0.800842      0.512097
     4     1      0.821967      0.711200      1.036011
     5     2      0.860846      1.029439      0.192253
     6     2      0.531127      1.018730      1.046106
     7     2      0.990301      0.464531      0.238571
     8     2      0.503671      0.701919      1.037992
     9     2      0.923642      0.230194      0.766715
    10     2      0.388550      1.054813      0.761904
    11     2      0.170139      0.493777      0.701668
    12     2      0.498020      0.522790      0.447675
    13     2      0.161299      0.329693      0.656419
    14     2      0.856270      0.152702      0.104091
    15     2      0.323404      0.670342      1.046696
    16     2      0.921753      0.721447      0.581436
ITEM: TIMESTEP
1805
ITEM: NUMBER OF ATOMS
16
ITEM: BOX BOUNDS xy xz yz  pp  pp  pp
     -0.300000      4.040544      0.000000
     -0.300000      4.040544      0.000000
     -0.300000      2.769228      0.000000
ITEM: ATOMS id type xs ys zs
     1     1      0.219100      0.223347      0.170495
     2     1      0.651933      0.261027      0.618325
     3     1      0.316540      0.800548      0.511908
     4     1      0.822782      0.710746      1.035709
     5     2      0.860630      1.029549      0.192598
     6     2      0.530416      1.018368      1.046572
     7     2      0.990267      0.464670      0.239153
     8     2      0.503909      0.701326      1.037918
     9     2      0.923712      0.229982      0.767298
    10     2      0.387771      1.054957      0.761601
    11     2      0.169736      0.493895      0.701373
    12     2      0.497770      0.522249      0.448682
    13     2      0.161307      0.329665      0.656212
    14     2      0.855727      0.152789      0.104461
    15     2      0.323689      0.670670      1.047706
    16     2      0.921604      0.721236      0.580787
ITEM: TIMESTEP
1806
ITEM: NUMBER OF ATOMS
16
ITEM: BOX BOUNDS xy xz yz  pp  pp  pp
     -0.300000      4.040544      0.000000
     -0.300000      4.040544      0.000000
     -0.300000      2.769228      0.000000
ITEM: ATOMS id type xs ys zs
     1     1      0.218982      0.223337      0.169965
     2     1      0.651753      0.260563      0.617613
     3     1      0.316609      0.800255      0.512508
     4     1      0.823491      0.710933      1.034836
     5     2      0.860875      1.029095      0.192518
     6     2      0.530174      1.018572      1.046905
     7     2      0.990562      0.464763      0.239563
     8     2      0.504014      0.701986      1.038201
     9     2      0.923864      0.229730      0.767246
    10     2      0.387667      1.054498      0.762499
    11     2      0.169646      0.494085      0.701982
    12     2      0.497282      0.522083      0.449301
    13     2      0.161272      0.329082      0.656816
    14     2      0.855771      0.152617      0.103886
    15     2      0.323661      0.670605      1.047483
    16     2      0.921572      0.720741      0.581126
ITEM: TIMESTEP
1807
ITEM: NUMBER OF ATOMS
16
ITEM: BOX BOUNDS xy xz yz  pp  pp  pp
     -0.300000      4.040544      0.000000
     -0.300000      4.040544      0.000000
     -0.300000      2.769228      0.000000
ITEM: ATOMS id type xs ys zs
     1     1      0.219078      0.224003      0.169925
     2     1      0.651799      0.260616      0.617262
     3     1      0.316619      0.799775      0.512316
     4     1      0.823475      0.710460      1.035149
     5     2      0.861261      1.028783      0.192460
     6     2      0.530509      1.018920      1.048211
     7     2      0.990433      0.464544      0.238761
     8     2      0.503732      0.701742      1.038806
     9     2      0.924708      0.229873      0.766873
    10     2      0.387849      1.054407      0.762965
    11     2      0.169793      0.494424      0.701027
    12     2      0.496377      0.521789      0.449957
    13     2      0.161783      0.329155      0.656625
    14     2      0.855305      0.152942      0.104446
    15     2      0.323745      0.670952      1.047265
    16     2      0.921333      0.720599      0.581129
ITEM: TIMESTEP
1808
ITEM: NUMBER OF ATOMS
16
ITEM: BOX BOUNDS xy xz yz  pp  pp  pp
     -0.300000      4.040544      0.000000
     -0.300000      4.040544      0.000000
     -0.300000      2.769228      0.000000
ITEM: ATOMS id type xs ys zs
     1     1      0.219277      0.223855      0.170502
     2     1      0.651924      0.260739      0.616669
     3     1      0.316344      0.799845      0.512186
     4     1      0.823393      0.710765      1.035223
     5     2      0.861667      1.028225      0.192577
     6     2      0.530075      1.019140      1.048876
     7     2      0.990433      0.463901      0.239209
     8     2      0.504246      0.701763      1.039440
     9     2      0.924969      0.229347      0.767136
    10     2      0.387768      1.054622      0.763141
    11     2      0.169517      0.493748      0.701107
    12     2      0.495531      0.522092      0.450343
    13     2      0.162358      0.328322      0.656113
    14     2      0.855048      0.152943      0.103760
    15     2      0.323620      0.670804      1.047225
    16     2      0.921155      0.720087      0.581722
ITEM: TIMESTEP
1809
ITEM: NUMBER OF ATOMS
16
ITEM: BOX BOUNDS xy xz yz  pp  pp  pp
     -0.300000      4.040544      0.000000
     -0.300000      4.040544      0.000000
     -0.300000      2.769228      0.000000
ITEM: ATOMS id type xs ys zs
     1     1      0.219461      0.223971      0.169968
     2     1      0.651821      0.260789      0.615886
     3     1      0.315743      0.799223      0.512807
     4     1      0.823456      0.710563      1.034673
     5     2      0.861104      1.027960      0.192625
     6     2      0.529736      1.019119      1.049650
     7     2      0.990708      0.463631      0.239141
     8     2      0.504574      0.701913      1.039333
     9     2      0.925679      0.229085      0.766389
    10     2      0.387313      1.055083      0.763318
    11     2      0.169197      0.493898      0.700507
    12     2      0.495598      0.522330      0.450373
    13     2      0.161896      0.328391      0.656639
    14     2      0.854789      0.152558      0.103993
    15     2      0.323827      0.671315      1.047749
    16     2      0.921126      0.719749      0.582704
ITEM: TIMESTEP
1810
ITEM: NUMBER OF ATOMS
16
ITEM: BOX BOUNDS xy xz yz  pp  pp  pp
     -0.300000      4.040544      0.000000
     -0.300000      4.040544      0.000000
     -0.300000      2.769228      0.000000
ITEM: ATOMS id type xs ys zs
     1     1      0.219888      0.224848      0.170035
     2     1      0.651749      0.261242      0.615051
     3     1      0.315679      0.798620      0.512613
     4     1      0.823268      0.709992      1.034636
     5     2      0.861268      1.027637      0.192675
     6     2      0.529476      1.019357      1.050306
     7     2      0.990650      0.463544      0.239606
     8     2      0.504482      0.701077      1.038899
     9     2      0.926578      0.229248      0.766340
    10     2      0.387272      1.055178      0.763803
    11     2      0.168748      0.493316      0.699681
    12     2      0.495272      0.522166      0.450997
    13     2      0.161353      0.328142      0.656909
    14     2      0.855027      0.152870      0.103747
    15     2      0.323748      0.671445      1.047374
    16     2      0.921267      0.719421      0.583076
ITEM: TIMESTEP
1811
ITEM: NUMBER OF ATOMS
16
ITEM: BOX BOUNDS xy xz yz  pp  pp  pp
     -0.300000      4.040544      0.000000
     -0.300000      4.040544      0.000000
     -0.300000      2.769228      0.000000
ITEM: ATOMS id type xs ys zs
     1     1      0.220420      0.225358      0.170206
     2     1      0.651029      0.261032      0.615045
     3     1      0.315580      0.798903      0.512935
     4     1      0.823380      0.709803      1.034847
     5     2      0.861629      1.027378      0.192396
     6     2      0.529640      1.019730      1.050730
     7     2      0.990740      0.463674      0.238828
     8     2      0.504814      0.701448      1.038695
     9     2      0.926895      0.228818      0.766579
    10     2      0.386951      1.054959      0.764582
    11     2      0.168162      0.493486      0.699909
    12     2      0.495380      0.522276      0.450715
    13     2      0.161639      0.328089      0.657226
    14     2      0.854930      0.153314      0.104135
    15     2      0.323646      0.672012      1.047947
    16     2      0.921357      0.719570      0.583502
ITEM: TIMESTEP
1812
ITEM: NUMBER OF ATOMS
16
ITEM: BOX BOUNDS xy xz yz  pp  pp  pp
     -0.300000      4.040544      0.000000
     -0.300000      4.040544      0.000000
     -0.300000      2.769228      0.000000
ITEM: ATOMS id type xs ys zs
     1     1      0.220362      0.225609      0.170434
     2     1      0.651052      0.261653      0.614943
     3     1      0.315114      0.798908      0.513398
     4     1      0.823649      0.708517      1.034990
     5     2      0.861483      1.027729      0.191951
     6     2      0.529404      1.020253      1.050672
     7     2      0.990974      0.463644      0.238620
     8     2      0.505006      0.701533      1.038625
     9     2      0.927400      0.228666      0.766998
    10     2      0.386721      1.055608      0.764586
    11     2      0.168182      0.493794      0.699897
    12     2      0.495888      0.521868      0.450481
    13     2      0.162063      0.328313      0.657370
    14     2      0.855269      0.153625      0.104308
    15     2      0.324078      0.673195      1.047475
    16     2      0.921315      0.719689      0.583216
ITEM: TIMESTEP
1813
ITEM: NUMBER OF ATOMS
16
ITEM: BOX BOUNDS xy xz yz  pp  pp  pp
     -0.300000      4.040544      0.000000
     -0.300000      4.040544      0.000000
     -0.300000      2.769228      0.000000
ITEM: ATOMS id type xs ys zs
     1     1      0.220615      0.226155      0.170816
     2     1      0.651051      0.261979      0.614170
     3     1      0.314830      0.798759      0.512713
     4     1      0.823794      0.708835      1.034486
     5     2      0.861833      1.027794      0.190746
     6     2      0.529381      1.021119      1.050773
     7     2      0.990526      0.463000      0.238280
     8     2      0.505186      0.701341      1.038784
     9     2      0.927462      0.228691      0.767317
    10     2      0.387418      1.055785      0.764978
    11     2      0.168517      0.493703      0.699182
    12     2      0.496290      0.522260      0.451498
    13     2      0.162739      0.328172      0.657781
    14     2      0.855733      0.154160      0.105269
    15     2      0.324041      0.673457      1.047553
    16     2      0.921347      0.719928      0.583449
ITEM: TIMESTEP
1814
ITEM: NUMBER OF ATOMS
16
ITEM: BOX BOUNDS xy xz yz  pp  pp  pp
     -0.300000      4.040544      0.000000
     -0.300000      4.040544      0.000000
     -0.300000      2.769228      0.000000
ITEM: ATOMS id type xs ys zs
     1     1      0.220771      0.225979      0.171006
     2     1      0.651058      0.261770      0.612876
     3     1      0.314225      0.799095      0.513248
     4     1      0.823779      0.708439      1.034200
     5     2      0.862337      1.028309      0.189760
     6     2      0.529123      1.021627      1.050209
     7     2      0.990052      0.462539      0.239128
     8     2      0.504868      0.701401      1.038104
     9     2      0.928164      0.228390      0.766352
    10     2      0.387859      1.056054      0.765490
    11     2      0.168509      0.493884      0.698162
    12     2      0.496702      0.522970      0.452160
    13     2      0.162651      0.327653      0.656970
    14     2      0.855395      0.154838      0.104180
    15     2      0.323586      0.673765      1.047319
    16     2      0.921622      0.720146      0.583794
ITEM: TIMESTEP
1815
ITEM: NUMBER OF ATOMS
16
ITEM: BOX BOUNDS xy xz yz  pp  pp  pp
     -0.300000      4.040544      0.000000
     -0.300000      4.040544      0.000000
     -0.300000      2.769228      0.000000
ITEM: ATOMS id type xs ys zs
     1     1      0.221292      0.226325      0.170858
     2     1      0.651367      0.262431      0.613070
     3     1      0.314610      0.799171      0.513091
     4     1      0.823564      0.708090      1.033899
     5     2      0.862655      1.028271      0.189829
     6     2      0.528559      1.021965      1.050514
     7     2      0.989983      0.462456      0.239845
     8     2      0.504665      0.701333      1.037951
     9     2      0.928361      0.227838      0.766594
    10     2      0.387780      1.056355      0.766149
    11     2      0.168493      0.493891      0.697819
    12     2      0.496291      0.522702      0.451945
    13     2      0.162714      0.327710      0.656898
    14     2      0.855184      0.154372      0.104499
    15     2      0.323348      0.673898      1.046974
    16     2      0.921883      0.719881      0.584557
ITEM: TIMESTEP
1816
ITEM: NUMBER OF ATOMS
16
ITEM: BOX BOUNDS xy xz yz  pp  pp  pp
     -0.300000      4.040544      0.000000
     -0.300000      4.040544      0.000000
     -0.300000      2.769228      0.000000
ITEM: ATOMS id type xs ys zs
     1     1      0.221624      0.226297      0.171074
     2     1      0.650824      0.262146      0.612697
     3     1      0.314306      0.799538      0.512602
     4     1      0.823480      0.707549      1.032990
     5     2      0.862060      1.027942      0.189313
     6     2      0.528535      1.021574      1.050280
     7     2      0.990186      0.462353      0.240356
     8     2      0.504288      0.701044      1.038403
     9     2      0.928232      0.228082      0.766650
    10     2      0.388476      1.056245      0.766901
    11     2      0.168621      0.494108      0.697153
    12     2      0.496617      0.523002      0.452302
    13     2      0.164022      0.327552      0.656900
    14     2      0.855272      0.154121      0.104140
    15     2      0.323108      0.674512      1.046988
    16     2      0.922393      0.719753      0.584963
ITEM: TIMESTEP
1817
ITEM: NUMBER OF ATOMS
16
ITEM: BOX BOUNDS xy xz yz  pp  pp  pp
     -0.300000      4.040544      0.000000
     -0.300000      4.040544      0.000000
     -0.300000      2.769228      0.000000
ITEM: ATOMS id type xs ys zs
     1     1      0.221912      0.226810      0.170357
     2     1      0.650698      0.262319      0.612810
     3     1      0.313867      0.799280      0.512179
     4     1      0.823455      0.707046      1.032912
     5     2      0.861922      1.027864      0.189349
     6     2      0.528178      1.021466      1.051228
     7     2      0.989684      0.463022      0.240772
     8     2      0.504696      0.700696      1.037956
     9     2      0.928324      0.227354      0.766626
    10     2      0.389020      1.056152      0.767855
    11     2      0.168469      0.494226      0.697086
    12     2      0.496815      0.523134      0.452573
    13     2      0.164032      0.327186      0.657522
    14     2      0.854880      0.154518      0.104163
    15     2      0.322589      0.674795      1.047671
    16     2      0.921939      0.720139      0.584347
ITEM: TIMESTEP
1818
ITEM: NUMBER OF ATOMS
16
ITEM: BOX BOUNDS xy xz yz  pp  pp  pp
     -0.300000      4.040544      0.000000
     -0.300000      4.040544      0.000000
     -0.300000      2.769228      0.000000
ITEM: ATOMS id type xs ys zs
     1     1      0.222200      0.226698      0.169930
     2     1      0.651259      0.261816      0.612989
     3     1      0.313406      0.798689      0.511915
     4     1      0.823123      0.706857      1.033617
     5     2      0.862028      1.027719      0.188650
     6     2      0.528257      1.020782      1.051913
     7     2      0.989708      0.462859      0.240963
     8     2      0.504889      0.700670      1.037088
     9     2      0.929113      0.226763      0.767222
    10     2      0.388848      1.055886      0.768635
    11     2      0.168270      0.493570      0.696826
    12     2      0.497004      0.522995      0.452330
    13     2      0.164162      0.327368      0.658164
    14     2      0.854924      0.154329      0.104027
    15     2      0.322449      0.674403      1.047873
    16     2      0.922245      0.720694      0.584365
ITEM: TIMESTEP
1819
ITEM: NUMBER OF ATOMS
16
ITEM: BOX BOUNDS xy xz yz  pp  pp  pp
     -0.300000      4.040544      0.000000
     -0.300000      4.040544      0.000000
     -0.300000      2.769228      0.000000
ITEM: ATOMS id type xs ys zs
     1     1      0.222975      0.226730      0.170170
     2     1      0.652152      0.262190      0.612123
     3     1      0.314185      0.798498      0.511920
     4     1      0.823581      0.706714      1.032997
     5     2      0.861779      1.027896      0.187685
     6     2      0.528116      1.020779      1.052171
     7     2      0.990326      0.462534      0.241438
     8     2      0.504996      0.701372      1.036566
     9     2      0.929630      0.226554      0.766877
    10     2      0.389237      1.055901      0.769255
    11     2      0.168371      0.493007      0.696163
    12     2      0.497170      0.523377      0.452332
    13     2      0.164203      0.326722      0.658426
    14     2      0.854362      0.154502      0.105025
    15     2      0.322251      0.674643      1.047720
    16     2      0.922559      0.720252      0.584311
ITEM: TIMESTEP
1820
ITEM: NUMBER OF ATOMS
16
ITEM: BOX BOUNDS xy xz yz  pp  pp  pp
     -0.300000      4.040544      0.000000
     -0.300000      4.040544      0.000000
     -0.300000      2.769228      0.000000
ITEM: ATOMS id type xs ys zs
     1     1      0.223032      0.227419      0.169891
     2     1      0.652190      0.262536      0.611774
     3     1      0.313604      0.798414      0.512437
     4     1      0.823074      0.706388      1.032970
     5     2      0.862160      1.027707      0.187182
     6     2      0.527530      1.020670      1.052763
     7     2      0.990115      0.462046      0.241594
     8     2      0.505160      0.701637      1.036743
     9     2      0.929490      0.226390      0.767165
    10     2      0.389117      1.055091      0.769290
    11     2      0.167966      0.493090      0.695618
    12     2      0.496694      0.522827      0.452839
    13     2      0.164111      0.326393      0.658114
    14     2      0.853916      0.155180      0.105750
    15     2      0.322291      0.674478      1.047700
    16     2      0.922908      0.720097      0.584754
ITEM: TIMESTEP
1821
ITEM: NUMBER OF ATOMS
16
ITEM: BOX BOUNDS xy xz yz  pp  pp  pp
     -0.300000      4.040544      0.000000
     -0.300000      4.040544      0.000000
     -0.300000      2.769228      0.000000
ITEM: ATOMS id type xs ys zs
     1     1      0.223861      0.227545      0.169758
     2     1      0.652486      0.262316      0.610809
     3     1      0.313616      0.798175      0.512274
     4     1      0.823011      0.706117      1.032637
     5     2      0.862076      1.027503      0.186572
     6     2      0.527346      1.021428      1.052976
     7     2      0.989551      0.461565      0.241803
     8     2      0.505211      0.701496      1.037187
     9     2      0.929844      0.226417      0.767350
    10     2      0.389359      1.055008      0.769359
    11     2      0.167358      0.493222      0.695121
    12     2      0.496412      0.522818      0.453184
    13     2      0.164780      0.326548      0.658762
    14     2      0.853670      0.154794      0.106323
    15     2      0.322704      0.674932      1.047715
    16     2      0.922825      0.720383      0.585516
ITEM: TIMESTEP
1822
ITEM: NUMBER OF ATOMS
16
ITEM: BOX BOUNDS xy xz yz  pp  pp  pp
     -0.300000      4.040544      0.000000
     -0.300000      4.040544      0.000000
     -0.300000      2.769228      0.000000
ITEM: ATOMS id type xs ys zs
     1     1      0.223195      0.227909      0.169650
     2     1      0.652373      0.262391      0.610566
     3     1      0.313553      0.798263      0.511897
     4     1      0.823075      0.706265      1.033001
     5     2      0.861824      1.027003      0.185335
     6     2      0.527201      1.021199      1.053902
     7     2      0.989229      0.461240      0.240712
     8     2      0.505422      0.701798      1.036917
     9     2      0.929255      0.226299      0.767878
    10     2      0.389270      1.055361      0.770261
    11     2      0.166995      0.493069      0.694395
    12     2      0.496428      0.523493      0.452956
    13     2      0.165756      0.326180      0.658892
    14     2      0.853305      0.155031      0.106317
    15     2      0.322714      0.675321      1.047797
    16     2      0.923179      0.720390      0.585514
ITEM: TIMESTEP
1823
ITEM: NUMBER OF ATOMS
16
ITEM: BOX BOUNDS xy xz yz  pp  pp  pp
     -0.300000      4.040544      0.000000
     -0.300000      4.040544      0.000000
     -0.300000      2.769228      0.000000
ITEM: ATOMS id type xs ys zs
     1     1      0.223473      0.227897      0.169696
     2     1      0.652794      0.262372      0.610538
     3     1      0.312964      0.798045      0.511190
     4     1      0.823333      0.705564      1.032693
     5     2      0.861944      1.027285      0.185694
     6     2      0.526893      1.021438      1.054238
     7     2      0.988957      0.461234      0.241097
     8     2      0.505791      0.701590      1.037262
     9     2      0.929695      0.226301      0.767275
    10     2      0.388956      1.056190      0.770112
    11     2      0.166427      0.493281      0.693706
    12     2      0.496397      0.523079      0.453044
    13     2      0.165882      0.326702      0.659459
    14     2      0.853346      0.155064      0.106637
    15     2      0.322447      0.675668      1.047733
    16     2      0.923447      0.720046      0.584654
ITEM: TIMESTEP
1824
ITEM: NUMBER OF ATOMS
16
ITEM: BOX BOUNDS xy xz yz  pp  pp  pp
     -0.300000      4.040544      0.000000
     -0.300000      4.040544      0.000000
     -0.300000      2.769228      0.000000
ITEM: ATOMS id type xs ys zs
     1     1      0.223353      0.227679      0.169373
     2     1      0.653372      0.262378      0.611046
     3     1      0.313243      0.798239      0.511783
     4     1      0.822990      0.706261      1.032183
     5     2      0.862459      1.027840      0.185442
     6     2      0.526494      1.021410      1.055335
     7     2      0.988896      0.461190      0.241806
     8     2      0.506091      0.701213      1.037180
     9     2      0.929404      0.226113      0.767521
    10     2      0.388821      1.056062      0.771034
    11     2      0.166398      0.493681      0.693027
    12     2      0.497011      0.522587      0.453499
    13     2      0.166837      0.326587      0.659482
    14     2      0.852794      0.155162      0.106719
    15     2      0.322384      0.676085      1.047864
    16     2      0.923483      0.719497      0.584336
ITEM: TIMESTEP
1825
ITEM: NUMBER OF ATOMS
16
ITEM: BOX BOUNDS xy xz yz  pp  pp  pp
     -0.300000      4.040544      0.000000
     -0.300000      4.040544      0.000000
     -0.300000      2.769228      0.000000
ITEM: ATOMS id type xs ys zs
     1     1      0.223425      0.227893      0.170456
     2     1      0.653474      0.262042      0.611269
     3     1      0.312655      0.798497      0.512532
     4     1      0.823068      0.706690      1.032122
     5     2      0.862954      1.027348      0.184805
     6     2      0.527247      1.021209      1.055537
     7     2      0.988623      0.461277      0.242063
     8     2      0.506008      0.700783      1.037043
     9     2      0.929955      0.226136      0.767616
    10     2      0.388529      1.056013      0.771158
    11     2      0.166061      0.493611      0.691955
    12     2      0.497159      0.523136      0.453433
    13     2      0.167573      0.326237      0.660108
    14     2      0.852270      0.154837      0.106828
    15     2      0.322930      0.675834      1.048155
    16     2      0.923786      0.720096      0.583904
ITEM: TIMESTEP
1826
ITEM: NUMBER OF ATOMS
16
ITEM: BOX BOUNDS xy xz yz  pp  pp  pp
     -0.300000      4.040544      0.000000
     -0.300000      4.040544      0.000000
     -0.300000      2.769228      0.000000
ITEM: ATOMS id type xs ys zs
     1     1      0.223593      0.228026      0.170516
     2     1      0.653381      0.262131      0.611311
     3     1      0.312246      0.798316      0.513069
     4     1      0.822563      0.706044      1.032181
     5     2      0.862999      1.027206      0.184314
     6     2      0.527381      1.020971      1.055352
     7     2      0.988304      0.460806      0.242674
     8     2      0.506205      0.700725      1.036205
     9     2      0.930171      0.226189      0.767918
    10     2      0.388281      1.055899      0.770796
    11     2      0.165782      0.493221      0.692359
    12     2      0.497462      0.522717      0.453734
    13     2      0.167714      0.326107      0.660746
    14     2      0.852078      0.154956      0.106912
    15     2      0.323000      0.676419      1.047965
    16     2      0.923000      0.720203      0.584109
ITEM: TIMESTEP
1827
ITEM: NUMBER OF ATOMS
16
ITEM: BOX BOUNDS xy xz yz  pp  pp  pp
     -0.300000      4.040544      0.000000
     -0.300000      4.040544      0.000000
     -0.300000      2.769228      0.000000
ITEM: ATOMS id type xs ys zs
     1     1      0.224089      0.228231      0.170099
     2     1      0.653663      0.262087      0.611278
     3     1      0.312287      0.798332      0.514086
     4     1      0.822278      0.705673      1.031456
     5     2      0.862895      1.027662      0.183998
     6     2      0.527557      1.021076      1.055790
     7     2      0.987815      0.460984      0.243167
     8     2      0.506440      0.701188      1.036355
     9     2      0.930943      0.225681      0.768237
    10     2      0.388271      1.055839      0.771162
    11     2      0.165795      0.493019      0.691890