ITEM: TIMESTEP
1801
ITEM: NUMBER OF ATOMS
16
ITEM: BOX BOUNDS xy xz yz  pp  pp  pp
     -0.300000      4.040544      0.000000
     -0.300000      4.040544      0.000000
     -0.300000      2.769228      0.000000
ITEM: ATOMS id type xs ys zs
     1     1      0.218601      0.222276      0.171898
     2     1      0.652292      0.262457      0.617459
     3     1      0.317800      0.801299      0.513685
     4     1      0.822776      0.713115      1.037533
     5     2      0.861456      1.028274      0.192959
     6     2      0.532004      1.016977      1.048113
     7     2      0.990072      0.464456      0.235254
     8     2      0.504238      0.701765      1.040040
     9     2      0.921874      0.229116      0.766223
    10     2      0.387453      1.052942      0.762036
    11     2      0.169665      0.493828      0.703355
    12     2      0.497844      0.523016      0.445514
    13     2      0.161116      0.329374      0.656732
    14     2      0.857111      0.152294      0.103931
    15     2      0.322786      0.669672      1.045662
    16     2      0.923054      0.722743      0.580361
ITEM: TIMESTEP
1802
ITEM: NUMBER OF ATOMS
16
ITEM: BOX BOUNDS xy xz yz  pp  pp  pp
     -0.300000      4.040544      0.000000
     -0.300000      4.040544      0.000000
     -0.300000      2.769228      0.000000
ITEM: ATOMS id type xs ys zs
     1     1      0.218654      0.223124      0.171764
     2     1      0.651760      0.262637      0.616933
     3     1      0.317225      0.801232      0.513414
     4     1      0.822337      0.712072      1.037058
     5     2      0.861176      1.028027      0.192581
     6     2      0.531796      1.016644      1.048544
     7     2      0.990214      0.464280      0.235306
     8     2      0.504303      0.701935      1.039677
     9     2      0.922439      0.229025      0.766959
    10     2      0.386888      1.052975      0.761713
    11     2      0.169896      0.493758      0.702308
    12     2      0.498107      0.523617      0.445749
    13     2      0.161722      0.329272      0.657121
    14     2      0.856806      0.152708      0.104416
    15     2      0.322702      0.669689      1.046187
    16     2      0.923297      0.722896      0.579982
ITEM: TIMESTEP
1803
ITEM: NUMBER OF ATOMS
16
ITEM: BOX BOUNDS xy xz yz  pp  pp  pp
     -0.300000      4.040544      0.000000
     -0.300000      4.040544      0.000000
     -0.300000      2.769228      0.000000
ITEM: ATOMS id type xs ys zs
     1     1      0.218354      0.223197      0.171043
     2     1      0.651615      0.262776      0.616304
     3     1      0.316682      0.800775      0.513695
     4     1      0.822320      0.711400      1.037184
     5     2      0.860789      1.028281      0.192674
     6     2      0.531706      1.016084      1.049545
     7     2      0.990539      0.464177      0.235467
     8     2      0.503982      0.701392      1.039709
     9     2      0.922744      0.228685      0.766402
    10     2      0.386687      1.052987      0.761533
    11     2      0.169912      0.493906      0.701734
    12     2      0.498255      0.523919      0.445318
    13     2      0.162114      0.328942      0.657186
    14     2      0.857100      0.152542      0.104763
    15     2      0.322228      0.669651      1.046529
    16     2      0.923333      0.723035      0.580611
ITEM: TIMESTEP
1804
ITEM: NUMBER OF ATOMS
16
ITEM: BOX BOUNDS xy xz yz  pp  pp  pp
     -0.300000      4.040544      0.000000
     -0.300000      4.040544      0.000000
     -0.300000      2.769228      0.000000
ITEM: ATOMS id type xs ys zs
     1     1      0.217915      0.223546      0.170540
     2     1      0.651573      0.263500      0.615671
     3     1      0.316283      0.800941      0.514260
     4     1      0.822226      0.711346      1.037040
     5     2      0.861493      1.028050      0.192060
     6     2      0.531480      1.016438      1.050453
     7     2      0.990994      0.464908      0.235313
     8     2      0.503455      0.701895      1.039675
     9     2      0.923047      0.228739      0.766747
    10     2      0.386690      1.052894      0.761404
    11     2      0.169543      0.493732      0.701292
    12     2      0.498181      0.523576      0.445570
    13     2      0.162386      0.328869      0.658111
    14     2      0.856840      0.152663      0.105337
    15     2      0.322441      0.670236      1.046244
    16     2      0.923364      0.723433      0.580359
ITEM: TIMESTEP
1805
ITEM: NUMBER OF ATOMS
16
ITEM: BOX BOUNDS xy xz yz  pp  pp  pp
     -0.300000      4.040544      0.000000
     -0.300000      4.040544      0.000000
     -0.300000      2.769228      0.000000
ITEM: ATOMS id type xs ys zs
     1     1      0.218148      0.224193      0.170136
     2     1      0.651397      0.263267      0.615605
     3     1      0.316654      0.800997      0.513842
     4     1      0.822122      0.710629      1.036707
     5     2      0.861517      1.028138      0.192075
     6     2      0.530752      1.016611      1.050160
     7     2      0.991525      0.464881      0.235162
     8     2      0.502586      0.702260      1.039819
     9     2      0.923367      0.228798      0.766052
    10     2      0.386780      1.052976      0.761127
    11     2      0.169293      0.493712      0.701028
    12     2      0.498606      0.523651      0.445885
    13     2      0.162019      0.328307      0.658173
    14     2      0.857214      0.153149      0.105167
    15     2      0.321948      0.670328      1.046273
    16     2      0.923415      0.722870      0.580224
ITEM: TIMESTEP
1806
ITEM: NUMBER OF ATOMS
16
ITEM: BOX BOUNDS xy xz yz  pp  pp  pp
     -0.300000      4.040544      0.000000
     -0.300000      4.040544      0.000000
     -0.300000      2.769228      0.000000
ITEM: ATOMS id type xs ys zs
     1     1      0.218698      0.224334      0.170497
     2     1      0.651333      0.263872      0.614574
     3     1      0.316054      0.801449      0.514654
     4     1      0.822276      0.710074      1.036545
     5     2      0.862380      1.028001      0.192285
     6     2      0.531157      1.016713      1.050081
     7     2      0.992060      0.465336      0.235772
     8     2      0.503133      0.701710      1.039986
     9     2      0.923723      0.229230      0.765569
    10     2      0.386843      1.053346      0.761719
    11     2      0.169481      0.494163      0.700784
    12     2      0.498592      0.524230      0.445599
    13     2      0.162634      0.327700      0.658483
    14     2      0.857124      0.153223      0.104561
    15     2      0.322061      0.670776      1.045550
    16     2      0.922928      0.722887      0.580743
ITEM: TIMESTEP
1807
ITEM: NUMBER OF ATOMS
16
ITEM: BOX BOUNDS xy xz yz  pp  pp  pp
     -0.300000      4.040544      0.000000
     -0.300000      4.040544      0.000000
     -0.300000      2.769228      0.000000
ITEM: ATOMS id type xs ys zs
     1     1      0.218814      0.224044      0.171511
     2     1      0.651956      0.263773      0.614224
     3     1      0.315636      0.801568      0.514966
     4     1      0.822358      0.709616      1.036235
     5     2      0.862727      1.028081      0.192784
     6     2      0.531369      1.017047      1.050352
     7     2      0.991620      0.465473      0.237217
     8     2      0.503204      0.701816      1.039984
     9     2      0.924592      0.228909      0.765712
    10     2      0.386852      1.053845      0.762601
    11     2      0.169483      0.494375      0.700390
    12     2      0.498468      0.524099      0.445341
    13     2      0.163270      0.326906      0.658282
    14     2      0.857048      0.153239      0.104445
    15     2      0.322264      0.671147      1.045779
    16     2      0.922865      0.722813      0.581670
ITEM: TIMESTEP
1808
ITEM: NUMBER OF ATOMS
16
ITEM: BOX BOUNDS xy xz yz  pp  pp  pp
     -0.300000      4.040544      0.000000
     -0.300000      4.040544      0.000000
     -0.300000      2.769228      0.000000
ITEM: ATOMS id type xs ys zs
     1     1      0.218508      0.223670      0.171014
     2     1      0.651767      0.264197      0.613685
     3     1      0.315984      0.801066      0.515920
     4     1      0.822465      0.709611      1.035468
     5     2      0.862969      1.028045      0.192514
     6     2      0.530769      1.017043      1.050340
     7     2      0.991722      0.464524      0.237207
     8     2      0.503401      0.701321      1.039790
     9     2      0.925591      0.228741      0.765809
    10     2      0.387199      1.054269      0.763437
    11     2      0.169533      0.493960      0.699296
    12     2      0.498934      0.523828      0.445253
    13     2      0.163724      0.326940      0.658588
    14     2      0.856985      0.153381      0.104039
    15     2      0.322266      0.671735      1.046314
    16     2      0.922888      0.722191      0.581948
ITEM: TIMESTEP
1809
ITEM: NUMBER OF ATOMS
16
ITEM: BOX BOUNDS xy xz yz  pp  pp  pp
     -0.300000      4.040544      0.000000
     -0.300000      4.040544      0.000000
     -0.300000      2.769228      0.000000
ITEM: ATOMS id type xs ys zs
     1     1      0.218446      0.223353      0.170883
     2     1      0.651547      0.264029      0.613373
     3     1      0.315493      0.800794      0.516710
     4     1      0.822598      0.709648      1.035123
     5     2      0.862653      1.028154      0.192746
     6     2      0.530203      1.017339      1.051069
     7     2      0.991809      0.464885      0.237159
     8     2      0.503522      0.701232      1.039265
     9     2      0.925779      0.228775      0.765268
    10     2      0.387121      1.054567      0.762795
    11     2      0.169450      0.493828      0.698473
    12     2      0.498830      0.523661      0.445059
    13     2      0.164096      0.326711      0.659420
    14     2      0.856719      0.153792      0.104243
    15     2      0.322000      0.671638      1.046744
    16     2      0.922748      0.722010      0.582194
ITEM: TIMESTEP
1810
ITEM: NUMBER OF ATOMS
16
ITEM: BOX BOUNDS xy xz yz  pp  pp  pp
     -0.300000      4.040544      0.000000
     -0.300000      4.040544      0.000000
     -0.300000      2.769228      0.000000
ITEM: ATOMS id type xs ys zs
     1     1      0.217979      0.223343      0.171245
     2     1      0.652139      0.264480      0.612542
     3     1      0.314233      0.800780      0.517200
     4     1      0.822292      0.708773      1.034819
     5     2      0.862494      1.028822      0.192231
     6     2      0.530242      1.017202      1.051365
     7     2      0.991305      0.464552      0.237283
     8     2      0.503751      0.700847      1.039128
     9     2      0.926438      0.229073      0.765160
    10     2      0.387245      1.054451      0.763209
    11     2      0.169402      0.493855      0.698608
    12     2      0.499326      0.523828      0.445923
    13     2      0.164353      0.326505      0.660045
    14     2      0.856396      0.153254      0.104490
    15     2      0.322194      0.671916      1.046407
    16     2      0.922630      0.722249      0.581824
ITEM: TIMESTEP
1811
ITEM: NUMBER OF ATOMS
16
ITEM: BOX BOUNDS xy xz yz  pp  pp  pp
     -0.300000      4.040544      0.000000
     -0.300000      4.040544      0.000000
     -0.300000      2.769228      0.000000
ITEM: ATOMS id type xs ys zs
     1     1      0.218353      0.223597      0.171127
     2     1      0.652150      0.264391      0.612403
     3     1      0.314333      0.800375      0.517270
     4     1      0.822596      0.708507      1.034607
     5     2      0.862971      1.028627      0.191949
     6     2      0.530113      1.017769      1.051143
     7     2      0.991268      0.464308      0.237254
     8     2      0.503651      0.701388      1.038880
     9     2      0.926948      0.228470      0.765045
    10     2      0.387743      1.054959      0.763918
    11     2      0.169575      0.493806      0.697773
    12     2      0.499487      0.524315      0.446359
    13     2      0.164326      0.326232      0.660862
    14     2      0.855714      0.153276      0.105485
    15     2      0.322160      0.672259      1.046034
    16     2      0.922094      0.722394      0.582165
ITEM: TIMESTEP
1812
ITEM: NUMBER OF ATOMS
16
ITEM: BOX BOUNDS xy xz yz  pp  pp  pp
     -0.300000      4.040544      0.000000
     -0.300000      4.040544      0.000000
     -0.300000      2.769228      0.000000
ITEM: ATOMS id type xs ys zs
     1     1      0.218487      0.223923      0.171313
     2     1      0.651932      0.264781      0.612533
     3     1      0.313744      0.800415      0.517228
     4     1      0.822906      0.708639      1.034783
     5     2      0.862869      1.028278      0.191447
     6     2      0.529923      1.017908      1.051319
     7     2      0.991418      0.465034      0.236909
     8     2      0.504125      0.701351      1.039384
     9     2      0.927502      0.228137      0.764778
    10     2      0.387799      1.054599      0.764187
    11     2      0.169661      0.493885      0.697533
    12     2      0.499050      0.524434      0.446503
    13     2      0.164347      0.326521      0.660802
    14     2      0.855646      0.153189      0.105666
    15     2      0.321716      0.672530      1.047113
    16     2      0.922175      0.722377      0.582502
ITEM: TIMESTEP
1813
ITEM: NUMBER OF ATOMS
16
ITEM: BOX BOUNDS xy xz yz  pp  pp  pp
     -0.300000      4.040544      0.000000
     -0.300000      4.040544      0.000000
     -0.300000      2.769228      0.000000
ITEM: ATOMS id type xs ys zs
     1     1      0.218296      0.223516      0.171478
     2     1      0.651470      0.264736      0.611908
     3     1      0.313615      0.799681      0.517417
     4     1      0.822388      0.708397      1.033998
     5     2      0.862375      1.028661      0.190590
     6     2      0.529496      1.018198      1.051754
     7     2      0.991160      0.465253      0.237156
     8     2      0.504016      0.701585      1.039213
     9     2      0.927924      0.228427      0.765303
    10     2      0.387642      1.054582      0.764491
    11     2      0.169600      0.494152      0.697026
    12     2      0.498641      0.524352      0.446441
    13     2      0.163958      0.326490      0.660966
    14     2      0.854767      0.152535      0.105877
    15     2      0.321518      0.673425      1.046728
    16     2      0.921489      0.722480      0.582378
ITEM: TIMESTEP
1814
ITEM: NUMBER OF ATOMS
16
ITEM: BOX BOUNDS xy xz yz  pp  pp  pp
     -0.300000      4.040544      0.000000
     -0.300000      4.040544      0.000000
     -0.300000      2.769228      0.000000
ITEM: ATOMS id type xs ys zs
     1     1      0.218525      0.223551      0.171655
     2     1      0.651441      0.264386      0.611533
     3     1      0.313091      0.799389      0.517392
     4     1      0.823147      0.708085      1.033792
     5     2      0.862914      1.028991      0.190126
     6     2      0.529582      1.017764      1.052080
     7     2      0.991350      0.465125      0.237472
     8     2      0.504011      0.701616      1.038672
     9     2      0.928483      0.228345      0.765112
    10     2      0.387313      1.054933      0.763954
    11     2      0.169284      0.494486      0.696813
    12     2      0.498768      0.523920      0.446517
    13     2      0.163992      0.325430      0.661261
    14     2      0.854733      0.152927      0.105925
    15     2      0.320855      0.673300      1.046443
    16     2      0.921089      0.722260      0.582664
ITEM: TIMESTEP
1815
ITEM: NUMBER OF ATOMS
16
ITEM: BOX BOUNDS xy xz yz  pp  pp  pp
     -0.300000      4.040544      0.000000
     -0.300000      4.040544      0.000000
     -0.300000      2.769228      0.000000
ITEM: ATOMS id type xs ys zs
     1     1      0.218301      0.223520      0.171027
     2     1      0.651855      0.264003      0.611611
     3     1      0.312290      0.799094      0.517082
     4     1      0.822767      0.708168      1.033188
     5     2      0.863029      1.028469      0.190263
     6     2      0.529573      1.017384      1.052323
     7     2      0.991817      0.464913      0.238032
     8     2      0.503963      0.702086      1.038964
     9     2      0.928865      0.228104      0.765433
    10     2      0.387507      1.054966      0.764257
    11     2      0.169749      0.494321      0.696456
    12     2      0.498612      0.523413      0.446827
    13     2      0.164198      0.325018      0.661083
    14     2      0.854460      0.152484      0.106459
    15     2      0.320607      0.673291      1.046270
    16     2      0.920954      0.722427      0.583023
ITEM: TIMESTEP
1816
ITEM: NUMBER OF ATOMS
16
ITEM: BOX BOUNDS xy xz yz  pp  pp  pp
     -0.300000      4.040544      0.000000
     -0.300000      4.040544      0.000000
     -0.300000      2.769228      0.000000
ITEM: ATOMS id type xs ys zs
     1     1      0.218656      0.223464      0.170164
     2     1      0.651735      0.264175      0.611039
     3     1      0.312206      0.798744      0.517281
     4     1      0.822741      0.707555      1.032839
     5     2      0.863322      1.028424      0.190234
     6     2      0.529992      1.017378      1.052624
     7     2      0.991462      0.464574      0.238546
     8     2      0.504407      0.701953      1.039386
     9     2      0.929263      0.228888      0.765465
    10     2      0.387363      1.055131      0.763819
    11     2      0.170250      0.494305      0.695203
    12     2      0.498523      0.523351      0.446732
    13     2      0.164544      0.325041      0.661283
    14     2      0.854736      0.152293      0.107174
    15     2      0.321114      0.673572      1.046669
    16     2      0.920900      0.722294      0.583055
ITEM: TIMESTEP
1817
ITEM: NUMBER OF ATOMS
16
ITEM: BOX BOUNDS xy xz yz  pp  pp  pp
     -0.300000      4.040544      0.000000
     -0.300000      4.040544      0.000000
     -0.300000      2.769228      0.000000
ITEM: ATOMS id type xs ys zs
     1     1      0.218343      0.224014      0.170342
     2     1      0.651839      0.264412      0.610722
     3     1      0.311734      0.798670      0.517713
     4     1      0.822282      0.706737      1.032302
     5     2      0.863368      1.027955      0.189289
     6     2      0.530031      1.018249      1.052738
     7     2      0.991271      0.464427      0.239525
     8     2      0.504007      0.701768      1.039832
     9     2      0.929501      0.229192      0.765410
    10     2      0.386697      1.055587      0.763833
    11     2      0.169850      0.494187      0.694602
    12     2      0.498267      0.523432      0.446560
    13     2      0.164522      0.324924      0.661802
    14     2      0.854378      0.153021      0.107134
    15     2      0.320867      0.673778      1.047150
    16     2      0.920884      0.722855      0.582238
ITEM: TIMESTEP
1818
ITEM: NUMBER OF ATOMS
16
ITEM: BOX BOUNDS xy xz yz  pp  pp  pp
     -0.300000      4.040544      0.000000
     -0.300000      4.040544      0.000000
     -0.300000      2.769228      0.000000
ITEM: ATOMS id type xs ys zs
     1     1      0.217919      0.224182      0.170505
     2     1      0.651473      0.264541      0.611023
     3     1      0.311282      0.798706      0.516936
     4     1      0.822147      0.706232      1.031105
     5     2      0.863728      1.027977      0.188938
     6     2      0.530052      1.018928      1.053322
     7     2      0.991912      0.464377      0.240027
     8     2      0.503671      0.701148      1.039708
     9     2      0.930364      0.229019      0.765516
    10     2      0.386781      1.055738      0.763693
    11     2      0.169820      0.494021      0.695227
    12     2      0.498152      0.523272      0.446891
    13     2      0.164925      0.324778      0.662498
    14     2      0.854338      0.153137      0.107230
    15     2      0.320326      0.674310      1.047520
    16     2      0.921071      0.723859      0.582819
ITEM: TIMESTEP
1819
ITEM: NUMBER OF ATOMS
16
ITEM: BOX BOUNDS xy xz yz  pp  pp  pp
     -0.300000      4.040544      0.000000
     -0.300000      4.040544      0.000000
     -0.300000      2.769228      0.000000
ITEM: ATOMS id type xs ys zs
     1     1      0.217947      0.224951      0.170143
     2     1      0.651608      0.264331      0.610900
     3     1      0.311100      0.798126      0.516546
     4     1      0.821981      0.705661      1.030713
     5     2      0.864049      1.027877      0.188409
     6     2      0.529755      1.018802      1.053791
     7     2      0.991758      0.464703      0.239145
     8     2      0.503241      0.701024      1.039858
     9     2      0.930875      0.229046      0.765273
    10     2      0.386887      1.056144      0.763424
    11     2      0.169867      0.493974      0.694950
    12     2      0.498596      0.523228      0.446828
    13     2      0.164966      0.324873      0.662450
    14     2      0.853641      0.152995      0.107793
    15     2      0.320540      0.674107      1.048901
    16     2      0.921115      0.723811      0.583027
ITEM: TIMESTEP
1820
ITEM: NUMBER OF ATOMS
16
ITEM: BOX BOUNDS xy xz yz  pp  pp  pp
     -0.300000      4.040544      0.000000
     -0.300000      4.040544      0.000000
     -0.300000      2.769228      0.000000
ITEM: ATOMS id type xs ys zs
     1     1      0.218314      0.224937      0.170156
     2     1      0.651960      0.264937      0.610691
     3     1      0.310707      0.798007      0.516037
     4     1      0.822169      0.705930      1.030121
     5     2      0.864572      1.027420      0.188279
     6     2      0.529570      1.018435      1.054072
     7     2      0.992229      0.464961      0.239303
     8     2      0.503158      0.700718      1.040058
     9     2      0.931102      0.228747      0.765454
    10     2      0.386565      1.056783      0.763833
    11     2      0.170073      0.494151      0.695366
    12     2      0.498462      0.523201      0.447399
    13     2      0.165410      0.324125      0.662934
    14     2      0.853385      0.152842      0.107456
    15     2      0.320203      0.674409      1.049003
    16     2      0.921060      0.723792      0.583072
ITEM: TIMESTEP
1821
ITEM: NUMBER OF ATOMS
16
ITEM: BOX BOUNDS xy xz yz  pp  pp  pp
     -0.300000      4.040544      0.000000
     -0.300000      4.040544      0.000000
     -0.300000      2.769228      0.000000
ITEM: ATOMS id type xs ys zs
     1     1      0.218552      0.224646      0.169942
     2     1      0.651812      0.264506      0.610447
     3     1      0.310287      0.798140      0.516666
     4     1      0.821630      0.705090      1.030728
     5     2      0.864416      1.027489      0.187892
     6     2      0.529638      1.019051      1.054284
     7     2      0.992780      0.464958      0.239675
     8     2      0.503492      0.700453      1.039648
     9     2      0.931626      0.228912      0.765778
    10     2      0.387508      1.056656      0.763814
    11     2      0.169847      0.493822      0.695054
    12     2      0.498200      0.523231      0.448051
    13     2      0.165262      0.324353      0.663173
    14     2      0.852503      0.152556      0.106326
    15     2      0.320245      0.674345      1.049462
    16     2      0.920756      0.724207      0.583840
ITEM: TIMESTEP
1822
ITEM: NUMBER OF ATOMS
16
ITEM: BOX BOUNDS xy xz yz  pp  pp  pp
     -0.300000      4.040544      0.000000
     -0.300000      4.040544      0.000000
     -0.300000      2.769228      0.000000
ITEM: ATOMS id type xs ys zs
     1     1      0.218397      0.224869      0.170324
     2     1      0.651925      0.264257      0.610093
     3     1      0.310233      0.798203      0.516883
     4     1      0.820924      0.705119      1.029255
     5     2      0.863899      1.027219      0.187659
     6     2      0.529471      1.019137      1.054716
     7     2      0.992752      0.465272      0.240010
     8     2      0.503503      0.700696      1.040328
     9     2      0.932181      0.229076      0.764911
    10     2      0.387840      1.057197      0.763603
    11     2      0.170057      0.493786      0.693951
    12     2      0.497921      0.523278      0.448786
    13     2      0.165250      0.323594      0.663416
    14     2      0.852208      0.152797      0.105435
    15     2      0.320307      0.673954      1.049728
    16     2      0.920468      0.724499      0.583250
ITEM: TIMESTEP
1823
ITEM: NUMBER OF ATOMS
16
ITEM: BOX BOUNDS xy xz yz  pp  pp  pp
     -0.300000      4.040544      0.000000
     -0.300000      4.040544      0.000000
     -0.300000      2.769228      0.000000
ITEM: ATOMS id type xs ys zs
     1     1      0.218677      0.225060      0.170891
     2     1      0.652476      0.264695      0.610163
     3     1      0.310232      0.798237      0.516484
     4     1      0.820862      0.705014      1.029182
     5     2      0.863582      1.026964      0.186355
     6     2      0.528980      1.019906      1.054812
     7     2      0.992813      0.465195      0.240181
     8     2      0.503535      0.700885      1.041377
     9     2      0.932774      0.229017      0.764838
    10     2      0.387587      1.057137      0.764120
    11     2      0.169890      0.493072      0.693181
    12     2      0.498458      0.523986      0.449301
    13     2      0.165237      0.323379      0.663750
    14     2      0.851591      0.152891      0.105418
    15     2      0.320505      0.674363      1.049202
    16     2      0.920447      0.724265      0.582957
ITEM: TIMESTEP
1824
ITEM: NUMBER OF ATOMS
16
ITEM: BOX BOUNDS xy xz yz  pp  pp  pp
     -0.300000      4.040544      0.000000
     -0.300000      4.040544      0.000000
     -0.300000      2.769228      0.000000
ITEM: ATOMS id type xs ys zs
     1     1      0.218740      0.225196      0.170839
     2     1      0.653043      0.264812      0.611020
     3     1      0.309779      0.798987      0.516260
     4     1      0.821067      0.704963      1.028281
     5     2      0.863673      1.026440      0.186530
     6     2      0.529015      1.020519      1.055676
     7     2      0.992765      0.465582      0.240741
     8     2      0.503509      0.700388      1.041321
     9     2      0.933237      0.228588      0.764176
    10     2      0.387467      1.056499      0.764030
    11     2      0.169623      0.493525      0.692841
    12     2      0.498380      0.524156      0.449661
    13     2      0.165660      0.323241      0.663925
    14     2      0.852116      0.153397      0.106349
    15     2      0.320561      0.674862      1.050007
    16     2      0.919714      0.724431      0.583400
ITEM: TIMESTEP
1825
ITEM: NUMBER OF ATOMS
16
ITEM: BOX BOUNDS xy xz yz  pp  pp  pp
     -0.300000      4.040544      0.000000
     -0.300000      4.040544      0.000000
     -0.300000      2.769228      0.000000
ITEM: ATOMS id type xs ys zs
     1     1      0.218582      0.225789      0.170969
     2     1      0.653290      0.264442      0.611036
     3     1      0.309818      0.798856      0.516392
     4     1      0.819955      0.705179      1.027819
     5     2      0.863521      1.026020      0.186757
     6     2      0.528667      1.020485      1.054963
     7     2      0.993075      0.465877      0.241126
     8     2      0.503738      0.700551      1.040953
     9     2      0.933636      0.228362      0.763633
    10     2      0.387121      1.056568      0.764262
    11     2      0.170165      0.493349      0.692057
    12     2      0.498146      0.524490      0.449727
    13     2      0.165787      0.323230      0.664730
    14     2      0.851967      0.153921      0.106156
    15     2      0.320359      0.675107      1.050063
    16     2      0.919427      0.724354      0.583415
ITEM: TIMESTEP
1826
ITEM: NUMBER OF ATOMS
16
ITEM: BOX BOUNDS xy xz yz  pp  pp  pp
     -0.300000      4.040544      0.000000
     -0.300000      4.040544      0.000000
     -0.300000      2.769228      0.000000
ITEM: ATOMS id type xs ys zs
     1     1      0.218683      0.225575      0.170084
     2     1      0.653468      0.263988      0.611160
     3     1      0.309393      0.798748      0.515967
     4     1      0.820137      0.704994      1.028638
     5     2      0.863813      1.026120      0.186155
     6     2      0.529004      1.020636      1.055442
     7     2      0.992873      0.465151      0.240462
     8     2      0.504062      0.700714      1.040897
     9     2      0.934323      0.227991      0.763236
    10     2      0.386971      1.056432      0.764380
    11     2      0.170113      0.492832      0.691828
    12     2      0.498235      0.524671      0.450170
    13     2      0.165890      0.323444      0.664556
    14     2      0.852495      0.154057      0.106149
    15     2      0.320346      0.675356      1.048790
    16     2      0.918984      0.724870      0.583360
ITEM: TIMESTEP
1827
ITEM: NUMBER OF ATOMS
16
ITEM: BOX BOUNDS xy xz yz  pp  pp  pp
     -0.300000      4.040544      0.000000
     -0.300000      4.040544      0.000000
     -0.300000      2.769228      0.000000
ITEM: ATOMS id type xs ys zs
     1     1      0.218625      0.225063      0.170533
     2     1      0.653893      0.263522      0.612117
     3     1      0.309557      0.798512      0.516186
     4     1      0.819842      0.704758      1.028211
     5     2      0.863599      1.026078      0.185155
     6     2      0.528329      1.021434      1.054863
     7     2      0.993167      0.465430      0.240838
     8     2      0.504001      0.700864      1.040884
     9     2      0.934781      0.228395      0.763415
    10     2      0.386830      1.056703      0.764462
    11     2      0.170154      0.492259      0.692584