ITEM: TIMESTEP
1801
ITEM: NUMBER OF ATOMS
16
ITEM: BOX BOUNDS xy xz yz  pp  pp  pp
     -0.300000      4.040544      0.000000
     -0.300000      4.040544      0.000000
     -0.300000      2.769228      0.000000
ITEM: ATOMS id type xs ys zs
     1     1      0.218091      0.221624      0.171548
     2     1      0.652315      0.262229      0.616984
     3     1      0.318915      0.800752      0.514050
     4     1      0.822822      0.712979      1.036477
     5     2      0.861385      1.029730      0.193668
     6     2      0.532072      1.018271      1.048210
     7     2      0.990526      0.464235      0.236036
     8     2      0.504804      0.701436      1.040183
     9     2      0.921394      0.228772      0.765623
    10     2      0.387237      1.053174      0.761290
    11     2      0.169610      0.493694      0.702960
    12     2      0.498179      0.522720      0.445762
    13     2      0.160689      0.330048      0.656417
    14     2      0.856702      0.152182      0.105214
    15     2      0.322122      0.669147      1.045469
    16     2      0.922921      0.722990      0.581597
ITEM: TIMESTEP
1802
ITEM: NUMBER OF ATOMS
16
ITEM: BOX BOUNDS xy xz yz  pp  pp  pp
     -0.300000      4.040544      0.000000
     -0.300000      4.040544      0.000000
     -0.300000      2.769228      0.000000
ITEM: ATOMS id type xs ys zs
     1     1      0.217904      0.222431      0.171476
     2     1      0.652541      0.262053      0.616567
     3     1      0.319009      0.800178      0.513750
     4     1      0.822072      0.712586      1.036643
     5     2      0.861432      1.029570      0.193413
     6     2      0.531632      1.018919      1.048025
     7     2      0.989787      0.464355      0.236204
     8     2      0.504643      0.702142      1.040225
     9     2      0.922307      0.228818      0.765412
    10     2      0.387384      1.053810      0.761729
    11     2      0.169091      0.493994      0.703256
    12     2      0.497655      0.522707      0.446051
    13     2      0.160698      0.329545      0.656392
    14     2      0.856464      0.151890      0.104608
    15     2      0.321834      0.669103      1.045642
    16     2      0.922707      0.723173      0.581690
ITEM: TIMESTEP
1803
ITEM: NUMBER OF ATOMS
16
ITEM: BOX BOUNDS xy xz yz  pp  pp  pp
     -0.300000      4.040544      0.000000
     -0.300000      4.040544      0.000000
     -0.300000      2.769228      0.000000
ITEM: ATOMS id type xs ys zs
     1     1      0.217813      0.222538      0.171541
     2     1      0.652394      0.262030      0.616218
     3     1      0.318377      0.800074      0.513330
     4     1      0.821587      0.712007      1.037353
     5     2      0.861433      1.029673      0.193504
     6     2      0.531312      1.019338      1.048012
     7     2      0.989979      0.464600      0.236091
     8     2      0.505080      0.702124      1.040167
     9     2      0.923018      0.228901      0.764625
    10     2      0.387538      1.054229      0.762293
    11     2      0.168788      0.494227      0.703541
    12     2      0.497549      0.521929      0.446520
    13     2      0.160366      0.330057      0.656407
    14     2      0.856313      0.151826      0.104840
    15     2      0.322050      0.669436      1.045668
    16     2      0.922696      0.722354      0.582126
ITEM: TIMESTEP
1804
ITEM: NUMBER OF ATOMS
16
ITEM: BOX BOUNDS xy xz yz  pp  pp  pp
     -0.300000      4.040544      0.000000
     -0.300000      4.040544      0.000000
     -0.300000      2.769228      0.000000
ITEM: ATOMS id type xs ys zs
     1     1      0.217572      0.223168      0.171403
     2     1      0.651842      0.262604      0.616368
     3     1      0.318362      0.799062      0.514186
     4     1      0.821344      0.711002      1.036282
     5     2      0.861522      1.029822      0.192632
     6     2      0.530686      1.019961      1.047695
     7     2      0.989711      0.464270      0.236656
     8     2      0.504855      0.701733      1.040134
     9     2      0.923540      0.228143      0.764414
    10     2      0.387724      1.054564      0.762650
    11     2      0.168765      0.494178      0.703275
    12     2      0.497954      0.522283      0.447262
    13     2      0.160846      0.329787      0.657153
    14     2      0.855938      0.151370      0.104230
    15     2      0.321701      0.669608      1.045229
    16     2      0.922548      0.722580      0.581783
ITEM: TIMESTEP
1805
ITEM: NUMBER OF ATOMS
16
ITEM: BOX BOUNDS xy xz yz  pp  pp  pp
     -0.300000      4.040544      0.000000
     -0.300000      4.040544      0.000000
     -0.300000      2.769228      0.000000
ITEM: ATOMS id type xs ys zs
     1     1      0.217974      0.223079      0.170966
     2     1      0.651682      0.263160      0.615830
     3     1      0.318185      0.798876      0.513799
     4     1      0.821486      0.710351      1.035738
     5     2      0.860964      1.030154      0.192105
     6     2      0.529940      1.019975      1.049026
     7     2      0.989252      0.464204      0.236932
     8     2      0.505101      0.701832      1.039924
     9     2      0.923770      0.228019      0.764367
    10     2      0.386965      1.055423      0.763255
    11     2      0.168177      0.493757      0.702947
    12     2      0.497795      0.522397      0.447655
    13     2      0.161091      0.329668      0.658086
    14     2      0.856413      0.151179      0.103448
    15     2      0.322129      0.670052      1.045878
    16     2      0.922608      0.722426      0.581175
ITEM: TIMESTEP
1806
ITEM: NUMBER OF ATOMS
16
ITEM: BOX BOUNDS xy xz yz  pp  pp  pp
     -0.300000      4.040544      0.000000
     -0.300000      4.040544      0.000000
     -0.300000      2.769228      0.000000
ITEM: ATOMS id type xs ys zs
     1     1      0.217881      0.222844      0.171394
     2     1      0.651202      0.263731      0.615509
     3     1      0.318009      0.798277      0.513756
     4     1      0.821314      0.709697      1.035830
     5     2      0.860324      1.030009      0.191659
     6     2      0.529678      1.020058      1.049271
     7     2      0.989330      0.464191      0.237045
     8     2      0.504895      0.701645      1.039742
     9     2      0.924829      0.228349      0.765066
    10     2      0.387170      1.055691      0.763631
    11     2      0.167810      0.494168      0.702861
    12     2      0.497226      0.522849      0.448185
    13     2      0.161448      0.329592      0.658432
    14     2      0.855522      0.151192      0.103584
    15     2      0.321241      0.670723      1.045452
    16     2      0.922567      0.722666      0.580836
ITEM: TIMESTEP
1807
ITEM: NUMBER OF ATOMS
16
ITEM: BOX BOUNDS xy xz yz  pp  pp  pp
     -0.300000      4.040544      0.000000
     -0.300000      4.040544      0.000000
     -0.300000      2.769228      0.000000
ITEM: ATOMS id type xs ys zs
     1     1      0.218255      0.222579      0.171896
     2     1      0.651037      0.264168      0.614847
     3     1      0.317713      0.797329      0.513740
     4     1      0.821679      0.709316      1.036201
     5     2      0.860675      1.030044      0.191235
     6     2      0.529205      1.019806      1.049492
     7     2      0.989824      0.464230      0.236953
     8     2      0.504987      0.701955      1.039992
     9     2      0.925574      0.227930      0.765351
    10     2      0.387205      1.055910      0.763608
    11     2      0.167513      0.494345      0.702852
    12     2      0.496884      0.522781      0.448210
    13     2      0.162031      0.329029      0.658773
    14     2      0.855218      0.152050      0.103103
    15     2      0.321145      0.671261      1.044743
    16     2      0.922148      0.722991      0.581680
ITEM: TIMESTEP
1808
ITEM: NUMBER OF ATOMS
16
ITEM: BOX BOUNDS xy xz yz  pp  pp  pp
     -0.300000      4.040544      0.000000
     -0.300000      4.040544      0.000000
     -0.300000      2.769228      0.000000
ITEM: ATOMS id type xs ys zs
     1     1      0.218669      0.222596      0.171611
     2     1      0.650841      0.264262      0.614399
     3     1      0.317285      0.796803      0.513277
     4     1      0.821628      0.708733      1.036190
     5     2      0.860508      1.030053      0.190958
     6     2      0.529401      1.019906      1.049719
     7     2      0.990428      0.464656      0.237456
     8     2      0.504937      0.701902      1.040184
     9     2      0.925811      0.227866      0.764924
    10     2      0.387682      1.055813      0.763696
    11     2      0.167690      0.495023      0.701902
    12     2      0.497050      0.523066      0.448601
    13     2      0.162356      0.328555      0.658651
    14     2      0.855010      0.152439      0.102774
    15     2      0.321458      0.671354      1.043820
    16     2      0.921669      0.722840      0.582355
ITEM: TIMESTEP
1809
ITEM: NUMBER OF ATOMS
16
ITEM: BOX BOUNDS xy xz yz  pp  pp  pp
     -0.300000      4.040544      0.000000
     -0.300000      4.040544      0.000000
     -0.300000      2.769228      0.000000
ITEM: ATOMS id type xs ys zs
     1     1      0.218729      0.222514      0.171935
     2     1      0.650879      0.263860      0.614829
     3     1      0.317449      0.797291      0.513684
     4     1      0.821349      0.708517      1.035821
     5     2      0.860421      1.029799      0.189812
     6     2      0.529397      1.019774      1.049291
     7     2      0.990431      0.464633      0.237956
     8     2      0.504987      0.701954      1.040649
     9     2      0.926570      0.227560      0.765808
    10     2      0.387859      1.056181      0.764324
    11     2      0.167683      0.495041      0.700535
    12     2      0.497694      0.523471      0.448875
    13     2      0.162416      0.328130      0.658391
    14     2      0.854257      0.152105      0.102003
    15     2      0.321215      0.671779      1.043441
    16     2      0.921794      0.722912      0.582892
ITEM: TIMESTEP
1810
ITEM: NUMBER OF ATOMS
16
ITEM: BOX BOUNDS xy xz yz  pp  pp  pp
     -0.300000      4.040544      0.000000
     -0.300000      4.040544      0.000000
     -0.300000      2.769228      0.000000
ITEM: ATOMS id type xs ys zs
     1     1      0.218613      0.222657      0.171853
     2     1      0.651211      0.264230      0.614355
     3     1      0.317229      0.797033      0.514347
     4     1      0.821523      0.707673      1.036073
     5     2      0.860700      1.029434      0.189641
     6     2      0.529642      1.019866      1.048934
     7     2      0.990944      0.464394      0.237941
     8     2      0.505117      0.702467      1.040576
     9     2      0.926893      0.227866      0.765503
    10     2      0.388107      1.056147      0.764833
    11     2      0.167287      0.495215      0.700096
    12     2      0.497715      0.523070      0.449852
    13     2      0.162497      0.327929      0.659140
    14     2      0.853617      0.152192      0.102372
    15     2      0.320896      0.671654      1.042951
    16     2      0.921444      0.723938      0.583614
ITEM: TIMESTEP
1811
ITEM: NUMBER OF ATOMS
16
ITEM: BOX BOUNDS xy xz yz  pp  pp  pp
     -0.300000      4.040544      0.000000
     -0.300000      4.040544      0.000000
     -0.300000      2.769228      0.000000
ITEM: ATOMS id type xs ys zs
     1     1      0.218965      0.222809      0.171683
     2     1      0.651054      0.264460      0.613802
     3     1      0.317430      0.797065      0.515522
     4     1      0.822446      0.707034      1.036035
     5     2      0.860653      1.029389      0.188481
     6     2      0.530210      1.019380      1.048847
     7     2      0.990689      0.464096      0.238161
     8     2      0.504953      0.703257      1.041585
     9     2      0.927677      0.227287      0.765999
    10     2      0.388670      1.056019      0.765624
    11     2      0.167610      0.495438      0.699728
    12     2      0.497630      0.523366      0.449943
    13     2      0.163098      0.328157      0.659605
    14     2      0.854111      0.152330      0.103379
    15     2      0.320664      0.671857      1.042114
    16     2      0.920382      0.723795      0.583543
ITEM: TIMESTEP
1812
ITEM: NUMBER OF ATOMS
16
ITEM: BOX BOUNDS xy xz yz  pp  pp  pp
     -0.300000      4.040544      0.000000
     -0.300000      4.040544      0.000000
     -0.300000      2.769228      0.000000
ITEM: ATOMS id type xs ys zs
     1     1      0.219290      0.222342      0.171039
     2     1      0.651246      0.263739      0.613665
     3     1      0.317404      0.796326      0.515591
     4     1      0.822216      0.707095      1.034648
     5     2      0.860545      1.029157      0.188090
     6     2      0.530243      1.019089      1.048859
     7     2      0.990097      0.464126      0.238538
     8     2      0.505124      0.703658      1.041344
     9     2      0.927923      0.227115      0.765725
    10     2      0.388691      1.055693      0.765306
    11     2      0.167492      0.495378      0.699220
    12     2      0.497387      0.524053      0.450623
    13     2      0.162810      0.328062      0.659928
    14     2      0.854202      0.152699      0.103607
    15     2      0.320844      0.671921      1.040888
    16     2      0.919979      0.723311      0.583224
ITEM: TIMESTEP
1813
ITEM: NUMBER OF ATOMS
16
ITEM: BOX BOUNDS xy xz yz  pp  pp  pp
     -0.300000      4.040544      0.000000
     -0.300000      4.040544      0.000000
     -0.300000      2.769228      0.000000
ITEM: ATOMS id type xs ys zs
     1     1      0.219669      0.221905      0.171387
     2     1      0.651089      0.263520      0.613678
     3     1      0.317253      0.795942      0.516129
     4     1      0.822238      0.706814      1.034372
     5     2      0.860578      1.028714      0.187701
     6     2      0.529768      1.019517      1.048984
     7     2      0.989960      0.463547      0.239100
     8     2      0.504717      0.703448      1.041222
     9     2      0.928355      0.226752      0.765657
    10     2      0.388562      1.055879      0.765054
    11     2      0.167484      0.495098      0.698327
    12     2      0.497553      0.523869      0.450506
    13     2      0.162821      0.328307      0.660540
    14     2      0.854488      0.152653      0.104264
    15     2      0.320396      0.671702      1.040663
    16     2      0.919883      0.723235      0.583389
ITEM: TIMESTEP
1814
ITEM: NUMBER OF ATOMS
16
ITEM: BOX BOUNDS xy xz yz  pp  pp  pp
     -0.300000      4.040544      0.000000
     -0.300000      4.040544      0.000000
     -0.300000      2.769228      0.000000
ITEM: ATOMS id type xs ys zs
     1     1      0.220051      0.222203      0.171863
     2     1      0.650985      0.263467      0.613644
     3     1      0.316700      0.795089      0.515986
     4     1      0.821897      0.706465      1.034378
     5     2      0.860156      1.029515      0.188282
     6     2      0.529390      1.019326      1.048700
     7     2      0.989397      0.463286      0.239784
     8     2      0.505010      0.702756      1.041461
     9     2      0.928763      0.226487      0.765554
    10     2      0.388473      1.056007      0.764781
    11     2      0.167709      0.495129      0.697195
    12     2      0.498007      0.523956      0.450791
    13     2      0.163144      0.328054      0.660299
    14     2      0.854403      0.152732      0.105239
    15     2      0.320167      0.671547      1.040535
    16     2      0.919624      0.722932      0.582885
ITEM: TIMESTEP
1815
ITEM: NUMBER OF ATOMS
16
ITEM: BOX BOUNDS xy xz yz  pp  pp  pp
     -0.300000      4.040544      0.000000
     -0.300000      4.040544      0.000000
     -0.300000      2.769228      0.000000
ITEM: ATOMS id type xs ys zs
     1     1      0.219773      0.222672      0.171689
     2     1      0.651035      0.263827      0.613059
     3     1      0.316836      0.794874      0.515700
     4     1      0.821829      0.706875      1.034299
     5     2      0.860330      1.029619      0.187363
     6     2      0.529288      1.019379      1.048266
     7     2      0.989399      0.462819      0.239781
     8     2      0.504754      0.702928      1.041414
     9     2      0.929205      0.226908      0.765889
    10     2      0.388839      1.056030      0.764588
    11     2      0.167693      0.494904      0.696337
    12     2      0.497469      0.524183      0.451151
    13     2      0.163359      0.328206      0.659946
    14     2      0.853861      0.152895      0.104256
    15     2      0.319991      0.671944      1.040526
    16     2      0.919137      0.722917      0.582568
ITEM: TIMESTEP
1816
ITEM: NUMBER OF ATOMS
16
ITEM: BOX BOUNDS xy xz yz  pp  pp  pp
     -0.300000      4.040544      0.000000
     -0.300000      4.040544      0.000000
     -0.300000      2.769228      0.000000
ITEM: ATOMS id type xs ys zs
     1     1      0.220902      0.222817      0.171414
     2     1      0.651009      0.263786      0.612792
     3     1      0.316089      0.794407      0.515583
     4     1      0.821331      0.706946      1.034997
     5     2      0.860817      1.029252      0.186978
     6     2      0.528646      1.019370      1.048628
     7     2      0.989297      0.462913      0.240002
     8     2      0.505042      0.702110      1.041828
     9     2      0.929615      0.226959      0.765198
    10     2      0.388823      1.056221      0.764904
    11     2      0.167297      0.494763      0.695748
    12     2      0.497498      0.523944      0.451912
    13     2      0.163713      0.327377      0.659822
    14     2      0.853736      0.152600      0.103788
    15     2      0.319888      0.672428      1.040365
    16     2      0.918998      0.723630      0.583027
ITEM: TIMESTEP
1817
ITEM: NUMBER OF ATOMS
16
ITEM: BOX BOUNDS xy xz yz  pp  pp  pp
     -0.300000      4.040544      0.000000
     -0.300000      4.040544      0.000000
     -0.300000      2.769228      0.000000
ITEM: ATOMS id type xs ys zs
     1     1      0.221343      0.223003      0.171101
     2     1      0.651311      0.263941      0.612901
     3     1      0.316239      0.794137      0.516790
     4     1      0.821207      0.706845      1.034166
     5     2      0.860786      1.028765      0.186690
     6     2      0.528863      1.019207      1.049387
     7     2      0.988815      0.462596      0.239846
     8     2      0.504973      0.702226      1.042172
     9     2      0.930044      0.226884      0.765776
    10     2      0.388913      1.056292      0.764687
    11     2      0.167342      0.494608      0.695574
    12     2      0.497763      0.524056      0.452246
    13     2      0.163624      0.327455      0.659690
    14     2      0.853894      0.153231      0.103892
    15     2      0.319366      0.672360      1.040603
    16     2      0.919507      0.723151      0.582718
ITEM: TIMESTEP
1818
ITEM: NUMBER OF ATOMS
16
ITEM: BOX BOUNDS xy xz yz  pp  pp  pp
     -0.300000      4.040544      0.000000
     -0.300000      4.040544      0.000000
     -0.300000      2.769228      0.000000
ITEM: ATOMS id type xs ys zs
     1     1      0.221833      0.223404      0.171270
     2     1      0.651534      0.263964      0.613452
     3     1      0.316096      0.794141      0.516177
     4     1      0.821071      0.706502      1.034607
     5     2      0.860557      1.028394      0.186911
     6     2      0.528565      1.019064      1.049447
     7     2      0.989175      0.462504      0.240885
     8     2      0.505190      0.701776      1.042437
     9     2      0.930556      0.226887      0.764832
    10     2      0.388612      1.056294      0.764468
    11     2      0.167331      0.494882      0.695493
    12     2      0.497518      0.523412      0.452518
    13     2      0.163111      0.327324      0.659276
    14     2      0.853502      0.153542      0.104030
    15     2      0.319497      0.673000      1.040242
    16     2      0.919628      0.723778      0.582535
ITEM: TIMESTEP
1819
ITEM: NUMBER OF ATOMS
16
ITEM: BOX BOUNDS xy xz yz  pp  pp  pp
     -0.300000      4.040544      0.000000
     -0.300000      4.040544      0.000000
     -0.300000      2.769228      0.000000
ITEM: ATOMS id type xs ys zs
     1     1      0.221721      0.223326      0.172184
     2     1      0.651680      0.264295      0.612092
     3     1      0.315795      0.793609      0.516007
     4     1      0.821182      0.706121      1.034491
     5     2      0.860997      1.028015      0.187461
     6     2      0.528380      1.019525      1.049201
     7     2      0.988743      0.462441      0.241518
     8     2      0.504786      0.702032      1.042357
     9     2      0.931308      0.226644      0.764421
    10     2      0.388243      1.057050      0.764387
    11     2      0.167186      0.495580      0.695012
    12     2      0.496883      0.523499      0.452452
    13     2      0.162833      0.327174      0.659979
    14     2      0.853523      0.153346      0.104243
    15     2      0.319476      0.673138      1.039715
    16     2      0.919405      0.723494      0.582059
ITEM: TIMESTEP
1820
ITEM: NUMBER OF ATOMS
16
ITEM: BOX BOUNDS xy xz yz  pp  pp  pp
     -0.300000      4.040544      0.000000
     -0.300000      4.040544      0.000000
     -0.300000      2.769228      0.000000
ITEM: ATOMS id type xs ys zs
     1     1      0.221994      0.223286      0.171750
     2     1      0.651681      0.264286      0.612829
     3     1      0.315485      0.793513      0.515190
     4     1      0.820888      0.706016      1.034223
     5     2      0.860658      1.027762      0.187871
     6     2      0.528694      1.018734      1.049422
     7     2      0.989101      0.463249      0.241554
     8     2      0.504881      0.702542      1.042047
     9     2      0.931603      0.226888      0.764722
    10     2      0.388374      1.057502      0.764035
    11     2      0.167004      0.496337      0.695236
    12     2      0.496323      0.523024      0.452597
    13     2      0.162851      0.326108      0.660434
    14     2      0.853449      0.153489      0.103984
    15     2      0.319440      0.673432      1.040257
    16     2      0.918849      0.724007      0.581946
ITEM: TIMESTEP
1821
ITEM: NUMBER OF ATOMS
16
ITEM: BOX BOUNDS xy xz yz  pp  pp  pp
     -0.300000      4.040544      0.000000
     -0.300000      4.040544      0.000000
     -0.300000      2.769228      0.000000
ITEM: ATOMS id type xs ys zs
     1     1      0.222302      0.223823      0.171782
     2     1      0.650576      0.263470      0.612517
     3     1      0.314903      0.793515      0.515791
     4     1      0.820393      0.706215      1.033274
     5     2      0.861172      1.027530      0.187201
     6     2      0.528177      1.019169      1.049721
     7     2      0.989220      0.462555      0.242420
     8     2      0.504916      0.702250      1.043048
     9     2      0.932092      0.226300      0.764394
    10     2      0.387981      1.057510      0.763701
    11     2      0.166644      0.496114      0.694974
    12     2      0.496696      0.522505      0.452629
    13     2      0.163180      0.326083      0.661172
    14     2      0.853206      0.154160      0.104007
    15     2      0.319573      0.673757      1.040406
    16     2      0.918411      0.724279      0.582929
ITEM: TIMESTEP
1822
ITEM: NUMBER OF ATOMS
16
ITEM: BOX BOUNDS xy xz yz  pp  pp  pp
     -0.300000      4.040544      0.000000
     -0.300000      4.040544      0.000000
     -0.300000      2.769228      0.000000
ITEM: ATOMS id type xs ys zs
     1     1      0.222363      0.223899      0.171982
     2     1      0.649966      0.263042      0.612240
     3     1      0.315086      0.793665      0.516002
     4     1      0.820437      0.705749      1.032364
     5     2      0.860877      1.028018      0.187453
     6     2      0.528607      1.020036      1.050725
     7     2      0.989239      0.462679      0.242500
     8     2      0.504606      0.702791      1.043239
     9     2      0.932584      0.226671      0.763692
    10     2      0.388052      1.057607      0.763401
    11     2      0.166400      0.495405      0.694222
    12     2      0.496584      0.522631      0.453356
    13     2      0.163280      0.325573      0.661249
    14     2      0.853050      0.154465      0.104490
    15     2      0.319133      0.674108      1.039227
    16     2      0.918087      0.724454      0.583234
ITEM: TIMESTEP
1823
ITEM: NUMBER OF ATOMS
16
ITEM: BOX BOUNDS xy xz yz  pp  pp  pp
     -0.300000      4.040544      0.000000
     -0.300000      4.040544      0.000000
     -0.300000      2.769228      0.000000
ITEM: ATOMS id type xs ys zs
     1     1      0.222816      0.223650      0.171635
     2     1      0.650137      0.262591      0.611263
     3     1      0.315087      0.793929      0.516567
     4     1      0.821248      0.705608      1.031660
     5     2      0.860510      1.027513      0.186915
     6     2      0.528939      1.020716      1.051627
     7     2      0.989594      0.461731      0.241900
     8     2      0.504568      0.702884      1.042624
     9     2      0.933193      0.227071      0.764127
    10     2      0.387624      1.058002      0.763584
    11     2      0.166836      0.495594      0.694762
    12     2      0.496175      0.523361      0.453494
    13     2      0.162897      0.325455      0.661499
    14     2      0.852889      0.154538      0.105242
    15     2      0.318809      0.674200      1.039691
    16     2      0.918268      0.724458      0.582449
ITEM: TIMESTEP
1824
ITEM: NUMBER OF ATOMS
16
ITEM: BOX BOUNDS xy xz yz  pp  pp  pp
     -0.300000      4.040544      0.000000
     -0.300000      4.040544      0.000000
     -0.300000      2.769228      0.000000
ITEM: ATOMS id type xs ys zs
     1     1      0.223360      0.223728      0.171753
     2     1      0.649917      0.262445      0.611230
     3     1      0.314835      0.794153      0.516679
     4     1      0.821226      0.705652      1.032410
     5     2      0.860440      1.027408      0.186094
     6     2      0.529362      1.020725      1.051191
     7     2      0.989478      0.461265      0.242480
     8     2      0.504549      0.702702      1.043566
     9     2      0.933576      0.226793      0.763832
    10     2      0.387833      1.058232      0.763580
    11     2      0.166707      0.496411      0.694641
    12     2      0.496188      0.523675      0.453678
    13     2      0.163100      0.325473      0.661497
    14     2      0.852315      0.154652      0.105097
    15     2      0.319136      0.674568      1.039913
    16     2      0.917982      0.724593      0.582699
ITEM: TIMESTEP
1825
ITEM: NUMBER OF ATOMS
16
ITEM: BOX BOUNDS xy xz yz  pp  pp  pp
     -0.300000      4.040544      0.000000
     -0.300000      4.040544      0.000000
     -0.300000      2.769228      0.000000
ITEM: ATOMS id type xs ys zs
     1     1      0.223475      0.223642      0.170958
     2     1      0.650598      0.262300      0.611393
     3     1      0.314499      0.793809      0.516889
     4     1      0.821182      0.705755      1.031910
     5     2      0.861003      1.026825      0.185238
     6     2      0.529379      1.020798      1.052059
     7     2      0.988337      0.461138      0.242432
     8     2      0.504242      0.702661      1.043728
     9     2      0.933248      0.226346      0.764250
    10     2      0.388173      1.058168      0.763797
    11     2      0.166671      0.496258      0.694697
    12     2      0.496354      0.523623      0.453451
    13     2      0.163202      0.325314      0.662516
    14     2      0.852240      0.155646      0.104958
    15     2      0.318896      0.674934      1.039955
    16     2      0.917742      0.724733      0.582055
ITEM: TIMESTEP
1826
ITEM: NUMBER OF ATOMS
16
ITEM: BOX BOUNDS xy xz yz  pp  pp  pp
     -0.300000      4.040544      0.000000
     -0.300000      4.040544      0.000000
     -0.300000      2.769228      0.000000
ITEM: ATOMS id type xs ys zs
     1     1      0.223253      0.224164      0.170409
     2     1      0.651479      0.262622      0.611311
     3     1      0.314450      0.794392      0.516848
     4     1      0.821279      0.705204      1.031685
     5     2      0.860238      1.026716      0.184966
     6     2      0.529426      1.020866      1.051956
     7     2      0.988547      0.461380      0.242520
     8     2      0.504018      0.702963      1.044040
     9     2      0.933273      0.226583      0.764207
    10     2      0.388142      1.057610      0.763868
    11     2      0.166881      0.496514      0.694940
    12     2      0.496710      0.523667      0.453240
    13     2      0.163479      0.325337      0.662412
    14     2      0.851559      0.155756      0.104873
    15     2      0.318656      0.675582      1.040005
    16     2      0.917400      0.725011      0.582053
ITEM: TIMESTEP
1827
ITEM: NUMBER OF ATOMS
16
ITEM: BOX BOUNDS xy xz yz  pp  pp  pp
     -0.300000      4.040544      0.000000
     -0.300000      4.040544      0.000000
     -0.300000      2.769228      0.000000
ITEM: ATOMS id type xs ys zs
     1     1      0.223772      0.223707      0.168947
     2     1      0.651631      0.263005      0.612367
     3     1      0.314434      0.794342      0.515967
     4     1      0.821022      0.705336      1.031387
     5     2      0.860355      1.026356      0.185609
     6     2      0.528912      1.020850      1.052194
     7     2      0.988300      0.461337      0.242707
     8     2      0.503898      0.703111      1.044286
     9     2      0.933916      0.226405      0.763952
    10     2      0.387876      1.057622      0.764326
    11     2      0.167113      0.497003      0.694553