ITEM: TIMESTEP
1801
ITEM: NUMBER OF ATOMS
16
ITEM: BOX BOUNDS xy xz yz  pp  pp  pp
     -0.300000      4.040544      0.000000
     -0.300000      4.040544      0.000000
     -0.300000      2.769228      0.000000
ITEM: ATOMS id type xs ys zs
     1     1      0.218458      0.222077      0.171817
     2     1      0.651745      0.262135      0.616951
     3     1      0.318425      0.800463      0.514122
     4     1      0.822583      0.713014      1.037716
     5     2      0.860646      1.029122      0.193827
     6     2      0.532209      1.018062      1.047810
     7     2      0.990488      0.464266      0.235314
     8     2      0.504288      0.701942      1.040431
     9     2      0.921580      0.229277      0.765545
    10     2      0.386857      1.053434      0.760899
    11     2      0.169071      0.492863      0.703577
    12     2      0.497605      0.522100      0.445807
    13     2      0.160835      0.329867      0.655915
    14     2      0.857069      0.152122      0.104742
    15     2      0.323346      0.669809      1.045500
    16     2      0.923524      0.723183      0.581451
ITEM: TIMESTEP
1802
ITEM: NUMBER OF ATOMS
16
ITEM: BOX BOUNDS xy xz yz  pp  pp  pp
     -0.300000      4.040544      0.000000
     -0.300000      4.040544      0.000000
     -0.300000      2.769228      0.000000
ITEM: ATOMS id type xs ys zs
     1     1      0.218376      0.222548      0.171863
     2     1      0.651284      0.262517      0.616239
     3     1      0.317922      0.800639      0.513942
     4     1      0.822054      0.712070      1.037039
     5     2      0.859899      1.028843      0.193757
     6     2      0.532254      1.017468      1.047405
     7     2      0.990431      0.464182      0.234669
     8     2      0.503533      0.701797      1.040785
     9     2      0.921687      0.228901      0.765288
    10     2      0.386816      1.053006      0.761609
    11     2      0.169214      0.492516      0.703180
    12     2      0.498105      0.521771      0.445365
    13     2      0.161090      0.330037      0.655463
    14     2      0.857266      0.152677      0.104648
    15     2      0.323077      0.670787      1.045829
    16     2      0.923398      0.723339      0.581375
ITEM: TIMESTEP
1803
ITEM: NUMBER OF ATOMS
16
ITEM: BOX BOUNDS xy xz yz  pp  pp  pp
     -0.300000      4.040544      0.000000
     -0.300000      4.040544      0.000000
     -0.300000      2.769228      0.000000
ITEM: ATOMS id type xs ys zs
     1     1      0.218665      0.222606      0.171807
     2     1      0.650733      0.263180      0.616095
     3     1      0.317223      0.799678      0.513723
     4     1      0.822336      0.711324      1.036895
     5     2      0.860277      1.028731      0.193523
     6     2      0.532190      1.017986      1.047288
     7     2      0.990635      0.463391      0.234940
     8     2      0.503526      0.701814      1.040961
     9     2      0.922017      0.228391      0.765758
    10     2      0.387266      1.053234      0.761564
    11     2      0.169732      0.492701      0.702418
    12     2      0.497262      0.521368      0.445410
    13     2      0.161007      0.330265      0.655731
    14     2      0.857109      0.152617      0.104149
    15     2      0.323204      0.671839      1.045596
    16     2      0.923565      0.723111      0.581693
ITEM: TIMESTEP
1804
ITEM: NUMBER OF ATOMS
16
ITEM: BOX BOUNDS xy xz yz  pp  pp  pp
     -0.300000      4.040544      0.000000
     -0.300000      4.040544      0.000000
     -0.300000      2.769228      0.000000
ITEM: ATOMS id type xs ys zs
     1     1      0.218464      0.222489      0.172114
     2     1      0.650370      0.263578      0.615705
     3     1      0.316973      0.799397      0.513805
     4     1      0.822666      0.711157      1.036791
     5     2      0.860453      1.029222      0.193381
     6     2      0.532135      1.018171      1.047253
     7     2      0.990661      0.463716      0.235127
     8     2      0.503911      0.701799      1.040710
     9     2      0.922450      0.228329      0.765920
    10     2      0.387239      1.053819      0.761331
    11     2      0.169571      0.492462      0.702053
    12     2      0.496814      0.521658      0.445050
    13     2      0.161296      0.330266      0.656677
    14     2      0.856713      0.152801      0.104390
    15     2      0.323015      0.672018      1.046536
    16     2      0.923610      0.723405      0.582284
ITEM: TIMESTEP
1805
ITEM: NUMBER OF ATOMS
16
ITEM: BOX BOUNDS xy xz yz  pp  pp  pp
     -0.300000      4.040544      0.000000
     -0.300000      4.040544      0.000000
     -0.300000      2.769228      0.000000
ITEM: ATOMS id type xs ys zs
     1     1      0.218573      0.222544      0.171443
     2     1      0.650967      0.263618      0.615581
     3     1      0.316299      0.799303      0.513759
     4     1      0.822599      0.710505      1.036669
     5     2      0.860090      1.028947      0.193188
     6     2      0.531848      1.018848      1.047283
     7     2      0.990399      0.463691      0.235016
     8     2      0.503376      0.701439      1.040016
     9     2      0.923382      0.228143      0.765808
    10     2      0.387070      1.054450      0.761592
    11     2      0.169453      0.492681      0.701187
    12     2      0.497055      0.521634      0.445423
    13     2      0.161463      0.330044      0.656621
    14     2      0.856354      0.153071      0.104478
    15     2      0.323001      0.672275      1.045369
    16     2      0.923388      0.722845      0.581843
ITEM: TIMESTEP
1806
ITEM: NUMBER OF ATOMS
16
ITEM: BOX BOUNDS xy xz yz  pp  pp  pp
     -0.300000      4.040544      0.000000
     -0.300000      4.040544      0.000000
     -0.300000      2.769228      0.000000
ITEM: ATOMS id type xs ys zs
     1     1      0.218526      0.222530      0.171434
     2     1      0.650787      0.264483      0.615583
     3     1      0.316444      0.799606      0.514005
     4     1      0.822384      0.710049      1.036680
     5     2      0.859479      1.029108      0.192881
     6     2      0.532031      1.019067      1.047951
     7     2      0.990081      0.463290      0.235294
     8     2      0.503376      0.701466      1.040275
     9     2      0.924048      0.227974      0.765741
    10     2      0.386813      1.054853      0.762250
    11     2      0.169443      0.492412      0.700897
    12     2      0.497773      0.521493      0.445881
    13     2      0.161620      0.330153      0.656024
    14     2      0.856203      0.153002      0.103514
    15     2      0.322496      0.672548      1.045163
    16     2      0.923506      0.722738      0.581244
ITEM: TIMESTEP
1807
ITEM: NUMBER OF ATOMS
16
ITEM: BOX BOUNDS xy xz yz  pp  pp  pp
     -0.300000      4.040544      0.000000
     -0.300000      4.040544      0.000000
     -0.300000      2.769228      0.000000
ITEM: ATOMS id type xs ys zs
     1     1      0.218472      0.222666      0.171526
     2     1      0.650546      0.264948      0.615529
     3     1      0.316648      0.799289      0.514669
     4     1      0.822273      0.709439      1.036390
     5     2      0.859739      1.028587      0.192606
     6     2      0.532147      1.019360      1.048878
     7     2      0.990506      0.463418      0.235961
     8     2      0.502985      0.701425      1.040390
     9     2      0.925091      0.227624      0.765070
    10     2      0.386435      1.055345      0.763019
    11     2      0.169448      0.492789      0.700083
    12     2      0.497402      0.521175      0.446576
    13     2      0.161605      0.329578      0.655804
    14     2      0.856315      0.152955      0.103255
    15     2      0.322387      0.672777      1.045489
    16     2      0.923941      0.723109      0.581324
ITEM: TIMESTEP
1808
ITEM: NUMBER OF ATOMS
16
ITEM: BOX BOUNDS xy xz yz  pp  pp  pp
     -0.300000      4.040544      0.000000
     -0.300000      4.040544      0.000000
     -0.300000      2.769228      0.000000
ITEM: ATOMS id type xs ys zs
     1     1      0.218894      0.223096      0.170829
     2     1      0.650259      0.264688      0.615141
     3     1      0.316621      0.799242      0.514649
     4     1      0.822284      0.708925      1.036545
     5     2      0.860010      1.028454      0.192766
     6     2      0.531998      1.019631      1.049234
     7     2      0.990096      0.464289      0.235982
     8     2      0.503068      0.701527      1.041056
     9     2      0.925652      0.228207      0.765846
    10     2      0.386382      1.055647      0.763119
    11     2      0.169382      0.492841      0.700753
    12     2      0.496650      0.520720      0.446613
    13     2      0.161893      0.329368      0.656273
    14     2      0.856055      0.152872      0.104152
    15     2      0.321698      0.672939      1.045182
    16     2      0.924136      0.723272      0.581373
ITEM: TIMESTEP
1809
ITEM: NUMBER OF ATOMS
16
ITEM: BOX BOUNDS xy xz yz  pp  pp  pp
     -0.300000      4.040544      0.000000
     -0.300000      4.040544      0.000000
     -0.300000      2.769228      0.000000
ITEM: ATOMS id type xs ys zs
     1     1      0.218947      0.223006      0.169996
     2     1      0.649982      0.264940      0.615511
     3     1      0.316075      0.798826      0.514692
     4     1      0.821800      0.708520      1.036402
     5     2      0.860534      1.027926      0.192802
     6     2      0.532295      1.019790      1.048817
     7     2      0.989700      0.464478      0.236013
     8     2      0.502880      0.700967      1.042102
     9     2      0.926108      0.228049      0.766251
    10     2      0.386207      1.055673      0.763651
    11     2      0.169196      0.492667      0.700551
    12     2      0.496733      0.520650      0.446214
    13     2      0.161987      0.329702      0.657163
    14     2      0.855376      0.152692      0.104265
    15     2      0.321606      0.673740      1.044805
    16     2      0.924004      0.723161      0.581412
ITEM: TIMESTEP
1810
ITEM: NUMBER OF ATOMS
16
ITEM: BOX BOUNDS xy xz yz  pp  pp  pp
     -0.300000      4.040544      0.000000
     -0.300000      4.040544      0.000000
     -0.300000      2.769228      0.000000
ITEM: ATOMS id type xs ys zs
     1     1      0.219163      0.222621      0.170099
     2     1      0.650306      0.264837      0.616398
     3     1      0.316651      0.799071      0.515174
     4     1      0.821589      0.708500      1.036395
     5     2      0.860427      1.028437      0.192383
     6     2      0.531975      1.019714      1.049092
     7     2      0.989556      0.464346      0.236158
     8     2      0.502631      0.700779      1.041817
     9     2      0.926231      0.228206      0.765766
    10     2      0.386369      1.056349      0.763939
    11     2      0.169082      0.492870      0.699975
    12     2      0.496936      0.521337      0.446190
    13     2      0.162173      0.328760      0.656590
    14     2      0.855446      0.153039      0.104251
    15     2      0.321382      0.674270      1.044623
    16     2      0.923118      0.723688      0.580821
ITEM: TIMESTEP
1811
ITEM: NUMBER OF ATOMS
16
ITEM: BOX BOUNDS xy xz yz  pp  pp  pp
     -0.300000      4.040544      0.000000
     -0.300000      4.040544      0.000000
     -0.300000      2.769228      0.000000
ITEM: ATOMS id type xs ys zs
     1     1      0.218734      0.222765      0.170202
     2     1      0.650469      0.265161      0.616057
     3     1      0.316745      0.799252      0.515058
     4     1      0.821356      0.708093      1.036070
     5     2      0.860338      1.028534      0.192033
     6     2      0.531752      1.019551      1.049782
     7     2      0.989833      0.464563      0.236496
     8     2      0.502628      0.700530      1.041452
     9     2      0.926448      0.228599      0.765754
    10     2      0.386685      1.056906      0.764933
    11     2      0.168458      0.492586      0.699980
    12     2      0.496346      0.521256      0.445695
    13     2      0.162395      0.328523      0.657119
    14     2      0.854808      0.152813      0.103636
    15     2      0.321835      0.674217      1.044233
    16     2      0.922969      0.723358      0.581391
ITEM: TIMESTEP
1812
ITEM: NUMBER OF ATOMS
16
ITEM: BOX BOUNDS xy xz yz  pp  pp  pp
     -0.300000      4.040544      0.000000
     -0.300000      4.040544      0.000000
     -0.300000      2.769228      0.000000
ITEM: ATOMS id type xs ys zs
     1     1      0.218376      0.222861      0.169660
     2     1      0.650389      0.265299      0.616411
     3     1      0.316392      0.799220      0.515994
     4     1      0.821236      0.708103      1.035489
     5     2      0.860512      1.028696      0.192491
     6     2      0.531035      1.019857      1.049885
     7     2      0.989847      0.463971      0.236904
     8     2      0.502439      0.700370      1.041667
     9     2      0.927350      0.228195      0.765820
    10     2      0.387152      1.057435      0.764481
    11     2      0.168400      0.492842      0.699106
    12     2      0.496146      0.521750      0.445285
    13     2      0.162638      0.328553      0.657792
    14     2      0.854235      0.153483      0.103598
    15     2      0.321917      0.674701      1.043941
    16     2      0.922853      0.723722      0.581901
ITEM: TIMESTEP
1813
ITEM: NUMBER OF ATOMS
16
ITEM: BOX BOUNDS xy xz yz  pp  pp  pp
     -0.300000      4.040544      0.000000
     -0.300000      4.040544      0.000000
     -0.300000      2.769228      0.000000
ITEM: ATOMS id type xs ys zs
     1     1      0.218963      0.222776      0.169209
     2     1      0.650233      0.265718      0.615258
     3     1      0.316481      0.798581      0.516266
     4     1      0.821441      0.708513      1.035379
     5     2      0.860116      1.028218      0.192060
     6     2      0.530532      1.020024      1.049846
     7     2      0.989210      0.464414      0.236532
     8     2      0.502355      0.700181      1.041497
     9     2      0.927507      0.228437      0.766523
    10     2      0.386826      1.057635      0.765365
    11     2      0.168340      0.492699      0.699186
    12     2      0.496858      0.521694      0.445567
    13     2      0.163487      0.328061      0.658208
    14     2      0.854163      0.153627      0.104391
    15     2      0.321725      0.674937      1.043923
    16     2      0.922900      0.724105      0.582730
ITEM: TIMESTEP
1814
ITEM: NUMBER OF ATOMS
16
ITEM: BOX BOUNDS xy xz yz  pp  pp  pp
     -0.300000      4.040544      0.000000
     -0.300000      4.040544      0.000000
     -0.300000      2.769228      0.000000
ITEM: ATOMS id type xs ys zs
     1     1      0.218908      0.222954      0.169039
     2     1      0.649949      0.266230      0.614720
     3     1      0.316193      0.798929      0.515845
     4     1      0.821207      0.708756      1.034340
     5     2      0.860589      1.028286      0.192076
     6     2      0.530276      1.019861      1.050139
     7     2      0.988976      0.463820      0.235873
     8     2      0.502565      0.700082      1.041569
     9     2      0.927728      0.228523      0.766643
    10     2      0.386802      1.057431      0.765237
    11     2      0.168444      0.493404      0.699169
    12     2      0.496537      0.521303      0.445808
    13     2      0.163772      0.327923      0.658487
    14     2      0.854001      0.153758      0.104794
    15     2      0.321194      0.675791      1.043201
    16     2      0.922531      0.723981      0.583145
ITEM: TIMESTEP
1815
ITEM: NUMBER OF ATOMS
16
ITEM: BOX BOUNDS xy xz yz  pp  pp  pp
     -0.300000      4.040544      0.000000
     -0.300000      4.040544      0.000000
     -0.300000      2.769228      0.000000
ITEM: ATOMS id type xs ys zs
     1     1      0.219289      0.223400      0.169583
     2     1      0.650532      0.266003      0.614724
     3     1      0.316085      0.798748      0.515779
     4     1      0.821297      0.708895      1.034056
     5     2      0.860781      1.028860      0.191674
     6     2      0.530178      1.020023      1.049868
     7     2      0.988072      0.464439      0.235933
     8     2      0.503168      0.700392      1.041825
     9     2      0.927903      0.228674      0.765857
    10     2      0.386181      1.057096      0.765313
    11     2      0.168674      0.493815      0.698813
    12     2      0.496629      0.521528      0.446194
    13     2      0.163981      0.327710      0.658466
    14     2      0.853731      0.153899      0.104686
    15     2      0.321142      0.676282      1.042869
    16     2      0.922739      0.723880      0.583245
ITEM: TIMESTEP
1816
ITEM: NUMBER OF ATOMS
16
ITEM: BOX BOUNDS xy xz yz  pp  pp  pp
     -0.300000      4.040544      0.000000
     -0.300000      4.040544      0.000000
     -0.300000      2.769228      0.000000
ITEM: ATOMS id type xs ys zs
     1     1      0.219714      0.223671      0.169707
     2     1      0.650431      0.265702      0.614548
     3     1      0.316148      0.798474      0.515716
     4     1      0.820984      0.708433      1.034233
     5     2      0.860560      1.028580      0.191832
     6     2      0.530182      1.020009      1.048935
     7     2      0.988246      0.464498      0.236251
     8     2      0.502896      0.699816      1.041399
     9     2      0.927985      0.228448      0.764536
    10     2      0.386231      1.057482      0.765954
    11     2      0.168468      0.494152      0.698179
    12     2      0.496172      0.521962      0.446418
    13     2      0.164103      0.327405      0.658493
    14     2      0.853588      0.154122      0.104865
    15     2      0.320915      0.676278      1.042850
    16     2      0.922388      0.723933      0.583456
ITEM: TIMESTEP
1817
ITEM: NUMBER OF ATOMS
16
ITEM: BOX BOUNDS xy xz yz  pp  pp  pp
     -0.300000      4.040544      0.000000
     -0.300000      4.040544      0.000000
     -0.300000      2.769228      0.000000
ITEM: ATOMS id type xs ys zs
     1     1      0.219818      0.223930      0.169890
     2     1      0.651181      0.265821      0.614427
     3     1      0.315925      0.798108      0.516671
     4     1      0.821408      0.708583      1.034802
     5     2      0.860460      1.028969      0.192247
     6     2      0.530430      1.020180      1.048441
     7     2      0.988712      0.464999      0.236815
     8     2      0.503312      0.699990      1.041278
     9     2      0.928476      0.228273      0.765127
    10     2      0.385999      1.056986      0.766224
    11     2      0.168825      0.494066      0.697538
    12     2      0.496473      0.521841      0.446470
    13     2      0.164235      0.327131      0.658432
    14     2      0.853354      0.154276      0.104620
    15     2      0.320774      0.676101      1.041859
    16     2      0.922087      0.724025      0.582715
ITEM: TIMESTEP
1818
ITEM: NUMBER OF ATOMS
16
ITEM: BOX BOUNDS xy xz yz  pp  pp  pp
     -0.300000      4.040544      0.000000
     -0.300000      4.040544      0.000000
     -0.300000      2.769228      0.000000
ITEM: ATOMS id type xs ys zs
     1     1      0.219470      0.224117      0.170345
     2     1      0.651506      0.266155      0.613939
     3     1      0.315433      0.798179      0.516745
     4     1      0.821345      0.708258      1.034899
     5     2      0.860758      1.028530      0.191798
     6     2      0.530554      1.019815      1.048538
     7     2      0.988124      0.464634      0.237326
     8     2      0.503091      0.700461      1.041645
     9     2      0.928574      0.228298      0.765706
    10     2      0.385543      1.057840      0.766678
    11     2      0.168967      0.493869      0.697138
    12     2      0.496388      0.522028      0.445720
    13     2      0.164637      0.327144      0.658013
    14     2      0.852135      0.153953      0.103935
    15     2      0.320475      0.676652      1.041428
    16     2      0.920962      0.724543      0.583141
ITEM: TIMESTEP
1819
ITEM: NUMBER OF ATOMS
16
ITEM: BOX BOUNDS xy xz yz  pp  pp  pp
     -0.300000      4.040544      0.000000
     -0.300000      4.040544      0.000000
     -0.300000      2.769228      0.000000
ITEM: ATOMS id type xs ys zs
     1     1      0.219881      0.224146      0.170676
     2     1      0.651207      0.266804      0.614671
     3     1      0.315525      0.797317      0.517222
     4     1      0.821480      0.708005      1.035284
     5     2      0.860835      1.028521      0.191649
     6     2      0.530356      1.019739      1.048112
     7     2      0.988292      0.464677      0.237391
     8     2      0.502799      0.700754      1.041196
     9     2      0.929255      0.227851      0.765781
    10     2      0.385049      1.058350      0.766776
    11     2      0.168661      0.493876      0.696761
    12     2      0.495769      0.521361      0.445283
    13     2      0.165077      0.327177      0.658125
    14     2      0.851640      0.154054      0.103994
    15     2      0.320647      0.677064      1.041808
    16     2      0.920875      0.724794      0.584041
ITEM: TIMESTEP
1820
ITEM: NUMBER OF ATOMS
16
ITEM: BOX BOUNDS xy xz yz  pp  pp  pp
     -0.300000      4.040544      0.000000
     -0.300000      4.040544      0.000000
     -0.300000      2.769228      0.000000
ITEM: ATOMS id type xs ys zs
     1     1      0.219813      0.223977      0.171005
     2     1      0.651373      0.266781      0.614348
     3     1      0.315129      0.797216      0.517810
     4     1      0.822198      0.707042      1.035292
     5     2      0.861121      1.028420      0.191344
     6     2      0.530247      1.019972      1.048072
     7     2      0.988457      0.465244      0.237351
     8     2      0.503026      0.700430      1.040757
     9     2      0.929890      0.227267      0.766195
    10     2      0.385338      1.058517      0.766837
    11     2      0.168381      0.493960      0.696665
    12     2      0.495666      0.521822      0.445052
    13     2      0.164649      0.326461      0.657309
    14     2      0.851322      0.154065      0.104353
    15     2      0.320961      0.676788      1.042070
    16     2      0.920959      0.725084      0.584196
ITEM: TIMESTEP
1821
ITEM: NUMBER OF ATOMS
16
ITEM: BOX BOUNDS xy xz yz  pp  pp  pp
     -0.300000      4.040544      0.000000
     -0.300000      4.040544      0.000000
     -0.300000      2.769228      0.000000
ITEM: ATOMS id type xs ys zs
     1     1      0.220018      0.224295      0.171254
     2     1      0.651573      0.266713      0.614721
     3     1      0.315054      0.796431      0.517917
     4     1      0.822124      0.707265      1.034669
     5     2      0.860695      1.027957      0.190824
     6     2      0.530283      1.020302      1.048311
     7     2      0.988286      0.465298      0.237718
     8     2      0.503277      0.700084      1.040993
     9     2      0.930163      0.227031      0.765681
    10     2      0.385797      1.058349      0.767330
    11     2      0.169211      0.494085      0.696834
    12     2      0.495648      0.522161      0.445339
    13     2      0.165078      0.326210      0.657038
    14     2      0.851217      0.154112      0.104340
    15     2      0.320766      0.676848      1.041486
    16     2      0.920911      0.725008      0.584267
ITEM: TIMESTEP
1822
ITEM: NUMBER OF ATOMS
16
ITEM: BOX BOUNDS xy xz yz  pp  pp  pp
     -0.300000      4.040544      0.000000
     -0.300000      4.040544      0.000000
     -0.300000      2.769228      0.000000
ITEM: ATOMS id type xs ys zs
     1     1      0.219812      0.225120      0.170690
     2     1      0.651694      0.266759      0.615100
     3     1      0.314835      0.796207      0.518692
     4     1      0.822233      0.706347      1.033891
     5     2      0.861356      1.028013      0.190229
     6     2      0.530353      1.020019      1.048057
     7     2      0.988037      0.465139      0.236541
     8     2      0.503499      0.699864      1.040643
     9     2      0.930852      0.226906      0.765358
    10     2      0.385714      1.058956      0.767621
    11     2      0.169073      0.494079      0.696520
    12     2      0.495653      0.522041      0.445492
    13     2      0.165705      0.326744      0.658080
    14     2      0.850937      0.154582      0.104424
    15     2      0.320268      0.677666      1.042384
    16     2      0.920722      0.724878      0.584596
ITEM: TIMESTEP
1823
ITEM: NUMBER OF ATOMS
16
ITEM: BOX BOUNDS xy xz yz  pp  pp  pp
     -0.300000      4.040544      0.000000
     -0.300000      4.040544      0.000000
     -0.300000      2.769228      0.000000
ITEM: ATOMS id type xs ys zs
     1     1      0.220093      0.225976      0.170896
     2     1      0.651829      0.266081      0.614690
     3     1      0.314614      0.796382      0.518576
     4     1      0.822348      0.706146      1.032761
     5     2      0.861189      1.028216      0.190146
     6     2      0.530715      1.020499      1.048436
     7     2      0.987959      0.464916      0.237274
     8     2      0.503017      0.700058      1.040937
     9     2      0.930971      0.226859      0.765630
    10     2      0.385392      1.059266      0.768299
    11     2      0.169354      0.494224      0.696636
    12     2      0.495714      0.522211      0.445236
    13     2      0.165761      0.326171      0.658674
    14     2      0.850775      0.154949      0.104056
    15     2      0.320229      0.677530      1.042533
    16     2      0.920838      0.725264      0.584294
ITEM: TIMESTEP
1824
ITEM: NUMBER OF ATOMS
16
ITEM: BOX BOUNDS xy xz yz  pp  pp  pp
     -0.300000      4.040544      0.000000
     -0.300000      4.040544      0.000000
     -0.300000      2.769228      0.000000
ITEM: ATOMS id type xs ys zs
     1     1      0.220592      0.225411      0.169964
     2     1      0.652234      0.266183      0.614417
     3     1      0.314367      0.796490      0.518430
     4     1      0.822209      0.706487      1.032764
     5     2      0.861025      1.028237      0.190648
     6     2      0.531033      1.020776      1.048241
     7     2      0.988228      0.464861      0.238003
     8     2      0.503248      0.700057      1.040991
     9     2      0.931457      0.226467      0.765125
    10     2      0.385876      1.058947      0.767797
    11     2      0.169164      0.494276      0.696435
    12     2      0.496607      0.522478      0.444877
    13     2      0.165472      0.325799      0.658718
    14     2      0.850065      0.155261      0.103339
    15     2      0.320524      0.678671      1.042045
    16     2      0.920484      0.725462      0.583843
ITEM: TIMESTEP
1825
ITEM: NUMBER OF ATOMS
16
ITEM: BOX BOUNDS xy xz yz  pp  pp  pp
     -0.300000      4.040544      0.000000
     -0.300000      4.040544      0.000000
     -0.300000      2.769228      0.000000
ITEM: ATOMS id type xs ys zs
     1     1      0.220790      0.225951      0.170443
     2     1      0.651774      0.266253      0.614565
     3     1      0.314335      0.795678      0.518211
     4     1      0.822024      0.706679      1.032242
     5     2      0.861363      1.028785      0.190628
     6     2      0.530639      1.020566      1.048751
     7     2      0.988188      0.464350      0.238634
     8     2      0.503584      0.699905      1.040007
     9     2      0.931870      0.226628      0.764035
    10     2      0.385821      1.059561      0.768446
    11     2      0.168533      0.494592      0.695512
    12     2      0.496720      0.522570      0.444844
    13     2      0.165217      0.325818      0.659886
    14     2      0.849872      0.155579      0.102537
    15     2      0.320675      0.679359      1.041245
    16     2      0.920302      0.724863      0.583455
ITEM: TIMESTEP
1826
ITEM: NUMBER OF ATOMS
16
ITEM: BOX BOUNDS xy xz yz  pp  pp  pp
     -0.300000      4.040544      0.000000
     -0.300000      4.040544      0.000000
     -0.300000      2.769228      0.000000
ITEM: ATOMS id type xs ys zs
     1     1      0.220892      0.226391      0.170335
     2     1      0.651776      0.266096      0.613765
     3     1      0.314014      0.795832      0.517992
     4     1      0.821249      0.707006      1.032758
     5     2      0.861521      1.028270      0.190360
     6     2      0.530436      1.020915      1.049345
     7     2      0.988002      0.464371      0.238988
     8     2      0.503641      0.700376      1.039927
     9     2      0.932619      0.226281      0.763785
    10     2      0.385984      1.059897      0.769496
    11     2      0.169141      0.494184      0.695033
    12     2      0.497046      0.522642      0.445229
    13     2      0.165626      0.326031      0.660195
    14     2      0.849464      0.155540      0.102919
    15     2      0.321117      0.679643      1.040293
    16     2      0.920309      0.724929      0.583442
ITEM: TIMESTEP
1827
ITEM: NUMBER OF ATOMS
16
ITEM: BOX BOUNDS xy xz yz  pp  pp  pp
     -0.300000      4.040544      0.000000
     -0.300000      4.040544      0.000000
     -0.300000      2.769228      0.000000
ITEM: ATOMS id type xs ys zs
     1     1      0.221342      0.226230      0.170252
     2     1      0.651705      0.266117      0.613425
     3     1      0.313921      0.796180      0.517817
     4     1      0.820956      0.706528      1.032741
     5     2      0.861806      1.028297      0.189362
     6     2      0.529741      1.021355      1.048867
     7     2      0.987290      0.464036      0.239689
     8     2      0.503509      0.700425      1.040254
     9     2      0.933778      0.225980      0.764120
    10     2      0.386024      1.060055      0.769208
    11     2      0.169767      0.493874      0.694273