ITEM: TIMESTEP
1801
ITEM: NUMBER OF ATOMS
16
ITEM: BOX BOUNDS xy xz yz  pp  pp  pp
     -0.300000      4.040544      0.000000
     -0.300000      4.040544      0.000000
     -0.300000      2.769228      0.000000
ITEM: ATOMS id type xs ys zs
     1     1      0.218284      0.221971      0.172086
     2     1      0.651910      0.262274      0.617275
     3     1      0.318196      0.801320      0.514360
     4     1      0.822493      0.713012      1.037947
     5     2      0.860608      1.029021      0.193861
     6     2      0.530955      1.017986      1.048841
     7     2      0.990413      0.463853      0.235919
     8     2      0.504030      0.701237      1.038879
     9     2      0.921337      0.229156      0.765315
    10     2      0.386804      1.052936      0.761651
    11     2      0.168903      0.492993      0.703121
    12     2      0.497888      0.522471      0.445836
    13     2      0.160951      0.330111      0.657058
    14     2      0.856964      0.151937      0.104577
    15     2      0.323125      0.669544      1.046220
    16     2      0.922882      0.723105      0.581319
ITEM: TIMESTEP
1802
ITEM: NUMBER OF ATOMS
16
ITEM: BOX BOUNDS xy xz yz  pp  pp  pp
     -0.300000      4.040544      0.000000
     -0.300000      4.040544      0.000000
     -0.300000      2.769228      0.000000
ITEM: ATOMS id type xs ys zs
     1     1      0.218039      0.222179      0.171348
     2     1      0.651833      0.262481      0.617456
     3     1      0.317470      0.800850      0.514570
     4     1      0.822979      0.712240      1.037972
     5     2      0.860725      1.029591      0.193540
     6     2      0.531667      1.018149      1.049167
     7     2      0.990291      0.463803      0.235503
     8     2      0.504478      0.700819      1.038823
     9     2      0.921977      0.229282      0.765452
    10     2      0.386869      1.052742      0.762076
    11     2      0.168799      0.492939      0.702662
    12     2      0.497863      0.522750      0.446571
    13     2      0.160397      0.330140      0.657041
    14     2      0.856885      0.152066      0.105089
    15     2      0.323277      0.669405      1.046361
    16     2      0.923096      0.723097      0.581744
ITEM: TIMESTEP
1803
ITEM: NUMBER OF ATOMS
16
ITEM: BOX BOUNDS xy xz yz  pp  pp  pp
     -0.300000      4.040544      0.000000
     -0.300000      4.040544      0.000000
     -0.300000      2.769228      0.000000
ITEM: ATOMS id type xs ys zs
     1     1      0.218057      0.222925      0.171171
     2     1      0.651680      0.262290      0.617240
     3     1      0.318018      0.800007      0.514819
     4     1      0.822660      0.711211      1.038355
     5     2      0.861093      1.029606      0.192315
     6     2      0.530887      1.018201      1.048921
     7     2      0.990621      0.463971      0.235450
     8     2      0.504508      0.700713      1.038440
     9     2      0.922991      0.229661      0.765692
    10     2      0.387435      1.053282      0.762986
    11     2      0.169133      0.493371      0.703114
    12     2      0.497870      0.522570      0.446482
    13     2      0.161222      0.330031      0.657181
    14     2      0.856504      0.152268      0.104828
    15     2      0.323245      0.669569      1.047327
    16     2      0.923227      0.722921      0.581958
ITEM: TIMESTEP
1804
ITEM: NUMBER OF ATOMS
16
ITEM: BOX BOUNDS xy xz yz  pp  pp  pp
     -0.300000      4.040544      0.000000
     -0.300000      4.040544      0.000000
     -0.300000      2.769228      0.000000
ITEM: ATOMS id type xs ys zs
     1     1      0.218298      0.223270      0.171553
     2     1      0.651598      0.262262      0.617150
     3     1      0.317642      0.799864      0.515482
     4     1      0.822589      0.710675      1.038196
     5     2      0.861812      1.029738      0.192175
     6     2      0.530158      1.018340      1.048923
     7     2      0.990386      0.463354      0.235422
     8     2      0.504205      0.700691      1.037872
     9     2      0.923462      0.229134      0.765433
    10     2      0.387360      1.053802      0.763566
    11     2      0.168846      0.493618      0.702738
    12     2      0.497531      0.522671      0.446452
    13     2      0.161614      0.329618      0.657743
    14     2      0.856431      0.153045      0.105153
    15     2      0.323071      0.669754      1.047436
    16     2      0.922998      0.723453      0.582628
ITEM: TIMESTEP
1805
ITEM: NUMBER OF ATOMS
16
ITEM: BOX BOUNDS xy xz yz  pp  pp  pp
     -0.300000      4.040544      0.000000
     -0.300000      4.040544      0.000000
     -0.300000      2.769228      0.000000
ITEM: ATOMS id type xs ys zs
     1     1      0.218958      0.223227      0.170974
     2     1      0.651472      0.262491      0.616147
     3     1      0.317433      0.799233      0.514832
     4     1      0.822814      0.710036      1.038003
     5     2      0.862242      1.030001      0.192138
     6     2      0.530219      1.018716      1.049547
     7     2      0.990952      0.463237      0.236034
     8     2      0.504571      0.700914      1.038602
     9     2      0.923717      0.229175      0.765541
    10     2      0.387266      1.053854      0.763519
    11     2      0.168658      0.493673      0.702985
    12     2      0.497595      0.522959      0.446722
    13     2      0.161854      0.328622      0.657948
    14     2      0.856406      0.153677      0.105214
    15     2      0.322904      0.669978      1.046887
    16     2      0.923139      0.723130      0.583310
ITEM: TIMESTEP
1806
ITEM: NUMBER OF ATOMS
16
ITEM: BOX BOUNDS xy xz yz  pp  pp  pp
     -0.300000      4.040544      0.000000
     -0.300000      4.040544      0.000000
     -0.300000      2.769228      0.000000
ITEM: ATOMS id type xs ys zs
     1     1      0.218632      0.223965      0.170235
     2     1      0.651638      0.262011      0.615997
     3     1      0.316990      0.799107      0.514746
     4     1      0.823073      0.709345      1.037517
     5     2      0.862362      1.029049      0.192026
     6     2      0.529882      1.019608      1.049491
     7     2      0.990912      0.463016      0.236010
     8     2      0.504678      0.700774      1.037857
     9     2      0.923943      0.229302      0.765587
    10     2      0.387459      1.053935      0.763476
    11     2      0.168911      0.493971      0.702742
    12     2      0.497564      0.523520      0.446690
    13     2      0.161871      0.327987      0.657489
    14     2      0.856751      0.153336      0.106069
    15     2      0.323030      0.670179      1.047540
    16     2      0.923329      0.723367      0.583387
ITEM: TIMESTEP
1807
ITEM: NUMBER OF ATOMS
16
ITEM: BOX BOUNDS xy xz yz  pp  pp  pp
     -0.300000      4.040544      0.000000
     -0.300000      4.040544      0.000000
     -0.300000      2.769228      0.000000
ITEM: ATOMS id type xs ys zs
     1     1      0.218849      0.224253      0.169694
     2     1      0.651241      0.262262      0.615078
     3     1      0.317269      0.798675      0.514798
     4     1      0.823230      0.709202      1.037734
     5     2      0.862101      1.028845      0.191431
     6     2      0.529973      1.019636      1.050270
     7     2      0.991063      0.463275      0.236449
     8     2      0.504618      0.700327      1.038317
     9     2      0.924596      0.229470      0.765509
    10     2      0.387563      1.053519      0.763501
    11     2      0.168900      0.494144      0.701760
    12     2      0.497417      0.523256      0.446459
    13     2      0.162636      0.327657      0.657749
    14     2      0.856159      0.153656      0.105835
    15     2      0.322947      0.670319      1.047130
    16     2      0.923835      0.723488      0.583334
ITEM: TIMESTEP
1808
ITEM: NUMBER OF ATOMS
16
ITEM: BOX BOUNDS xy xz yz  pp  pp  pp
     -0.300000      4.040544      0.000000
     -0.300000      4.040544      0.000000
     -0.300000      2.769228      0.000000
ITEM: ATOMS id type xs ys zs
     1     1      0.218333      0.224453      0.170242
     2     1      0.651281      0.262348      0.614639
     3     1      0.317077      0.798157      0.515356
     4     1      0.823809      0.709201      1.037728
     5     2      0.862188      1.028831      0.191989
     6     2      0.529395      1.019559      1.049817
     7     2      0.991469      0.463139      0.236405
     8     2      0.504533      0.700110      1.037756
     9     2      0.924841      0.229756      0.766576
    10     2      0.387812      1.053909      0.763902
    11     2      0.168776      0.494374      0.701672
    12     2      0.497641      0.523091      0.446386
    13     2      0.162768      0.327297      0.658388
    14     2      0.855632      0.154157      0.105750
    15     2      0.322919      0.670703      1.046818
    16     2      0.923729      0.723743      0.583564
ITEM: TIMESTEP
1809
ITEM: NUMBER OF ATOMS
16
ITEM: BOX BOUNDS xy xz yz  pp  pp  pp
     -0.300000      4.040544      0.000000
     -0.300000      4.040544      0.000000
     -0.300000      2.769228      0.000000
ITEM: ATOMS id type xs ys zs
     1     1      0.218859      0.224268      0.170306
     2     1      0.650494      0.262913      0.614666
     3     1      0.316922      0.798139      0.516201
     4     1      0.824194      0.709056      1.037531
     5     2      0.862318      1.029186      0.191409
     6     2      0.529285      1.019815      1.049630
     7     2      0.991409      0.463347      0.238012
     8     2      0.504763      0.700429      1.038382
     9     2      0.925838      0.228663      0.766897
    10     2      0.387800      1.053776      0.763397
    11     2      0.168680      0.494391      0.701458
    12     2      0.496916      0.523480      0.446763
    13     2      0.163050      0.326871      0.658941
    14     2      0.855241      0.154478      0.105553
    15     2      0.322657      0.671118      1.047172
    16     2      0.923037      0.723713      0.583249
ITEM: TIMESTEP
1810
ITEM: NUMBER OF ATOMS
16
ITEM: BOX BOUNDS xy xz yz  pp  pp  pp
     -0.300000      4.040544      0.000000
     -0.300000      4.040544      0.000000
     -0.300000      2.769228      0.000000
ITEM: ATOMS id type xs ys zs
     1     1      0.218707      0.223947      0.169263
     2     1      0.650006      0.262880      0.613842
     3     1      0.317008      0.798207      0.515781
     4     1      0.823935      0.708874      1.037082
     5     2      0.862949      1.028962      0.190635
     6     2      0.528972      1.020109      1.048585
     7     2      0.991101      0.463912      0.238341
     8     2      0.504928      0.700544      1.038330
     9     2      0.926720      0.228122      0.766436
    10     2      0.387667      1.054403      0.763367
    11     2      0.168760      0.494904      0.701397
    12     2      0.496996      0.523043      0.447483
    13     2      0.163443      0.327296      0.658429
    14     2      0.855702      0.154754      0.105937
    15     2      0.322588      0.671383      1.046858
    16     2      0.922739      0.723716      0.583775
ITEM: TIMESTEP
1811
ITEM: NUMBER OF ATOMS
16
ITEM: BOX BOUNDS xy xz yz  pp  pp  pp
     -0.300000      4.040544      0.000000
     -0.300000      4.040544      0.000000
     -0.300000      2.769228      0.000000
ITEM: ATOMS id type xs ys zs
     1     1      0.218697      0.224260      0.170304
     2     1      0.650666      0.263340      0.613649
     3     1      0.317358      0.798009      0.515621
     4     1      0.824185      0.708110      1.037233
     5     2      0.862917      1.029128      0.190492
     6     2      0.528670      1.020256      1.049208
     7     2      0.990815      0.463863      0.238451
     8     2      0.504714      0.699881      1.037902
     9     2      0.927226      0.227653      0.766480
    10     2      0.387649      1.054693      0.763898
    11     2      0.168918      0.494236      0.700628
    12     2      0.497401      0.522899      0.447342
    13     2      0.163961      0.327278      0.658259
    14     2      0.855678      0.155218      0.106205
    15     2      0.322429      0.671911      1.046910
    16     2      0.922531      0.723878      0.583255
ITEM: TIMESTEP
1812
ITEM: NUMBER OF ATOMS
16
ITEM: BOX BOUNDS xy xz yz  pp  pp  pp
     -0.300000      4.040544      0.000000
     -0.300000      4.040544      0.000000
     -0.300000      2.769228      0.000000
ITEM: ATOMS id type xs ys zs
     1     1      0.218588      0.224709      0.170095
     2     1      0.650421      0.263248      0.614182
     3     1      0.316805      0.797899      0.514981
     4     1      0.823861      0.707955      1.036815
     5     2      0.863460      1.028963      0.190231
     6     2      0.528863      1.021188      1.049278
     7     2      0.990653      0.463753      0.238072
     8     2      0.504396      0.699829      1.038004
     9     2      0.927708      0.227555      0.766017
    10     2      0.387948      1.055040      0.764655
    11     2      0.169373      0.494647      0.701005
    12     2      0.497378      0.522315      0.446448
    13     2      0.163663      0.327559      0.658217
    14     2      0.855196      0.155426      0.106259
    15     2      0.322838      0.672405      1.046356
    16     2      0.922620      0.723998      0.583522
ITEM: TIMESTEP
1813
ITEM: NUMBER OF ATOMS
16
ITEM: BOX BOUNDS xy xz yz  pp  pp  pp
     -0.300000      4.040544      0.000000
     -0.300000      4.040544      0.000000
     -0.300000      2.769228      0.000000
ITEM: ATOMS id type xs ys zs
     1     1      0.218708      0.224798      0.170057
     2     1      0.651063      0.263498      0.614090
     3     1      0.316939      0.798097      0.515541
     4     1      0.823890      0.707527      1.036966
     5     2      0.863849      1.028309      0.190105
     6     2      0.529225      1.021684      1.049978
     7     2      0.991028      0.463301      0.238188
     8     2      0.504645      0.699914      1.037534
     9     2      0.927885      0.227091      0.765732
    10     2      0.387481      1.055507      0.764672
    11     2      0.169704      0.494321      0.700851
    12     2      0.497142      0.522017      0.446655
    13     2      0.163647      0.327671      0.658572
    14     2      0.855390      0.155246      0.106166
    15     2      0.322334      0.672786      1.046643
    16     2      0.922818      0.724048      0.584038
ITEM: TIMESTEP
1814
ITEM: NUMBER OF ATOMS
16
ITEM: BOX BOUNDS xy xz yz  pp  pp  pp
     -0.300000      4.040544      0.000000
     -0.300000      4.040544      0.000000
     -0.300000      2.769228      0.000000
ITEM: ATOMS id type xs ys zs
     1     1      0.218664      0.224941      0.169335
     2     1      0.651244      0.263314      0.613909
     3     1      0.316927      0.797655      0.516552
     4     1      0.823723      0.707290      1.036694
     5     2      0.863101      1.027981      0.190058
     6     2      0.528611      1.022183      1.049804
     7     2      0.991344      0.463102      0.238915
     8     2      0.504190      0.699585      1.037148
     9     2      0.928126      0.226663      0.764849
    10     2      0.386960      1.055469      0.765044
    11     2      0.170054      0.494459      0.700013
    12     2      0.497317      0.521996      0.446328
    13     2      0.163769      0.327592      0.657845
    14     2      0.854933      0.155747      0.106834
    15     2      0.321634      0.673267      1.047252
    16     2      0.922967      0.724118      0.583916
ITEM: TIMESTEP
1815
ITEM: NUMBER OF ATOMS
16
ITEM: BOX BOUNDS xy xz yz  pp  pp  pp
     -0.300000      4.040544      0.000000
     -0.300000      4.040544      0.000000
     -0.300000      2.769228      0.000000
ITEM: ATOMS id type xs ys zs
     1     1      0.219601      0.225647      0.168994
     2     1      0.651194      0.263704      0.613775
     3     1      0.316262      0.797887      0.516922
     4     1      0.823208      0.706586      1.036478
     5     2      0.863373      1.027797      0.189824
     6     2      0.528571      1.021919      1.049734
     7     2      0.990861      0.462975      0.239077
     8     2      0.504268      0.699517      1.037513
     9     2      0.928679      0.226852      0.765427
    10     2      0.386967      1.055387      0.764141
    11     2      0.170383      0.494075      0.699853
    12     2      0.497255      0.522658      0.446142
    13     2      0.163944      0.327258      0.657850
    14     2      0.855038      0.155804      0.106192
    15     2      0.322187      0.673727      1.047082
    16     2      0.922585      0.724772      0.584260
ITEM: TIMESTEP
1816
ITEM: NUMBER OF ATOMS
16
ITEM: BOX BOUNDS xy xz yz  pp  pp  pp
     -0.300000      4.040544      0.000000
     -0.300000      4.040544      0.000000
     -0.300000      2.769228      0.000000
ITEM: ATOMS id type xs ys zs
     1     1      0.219808      0.225516      0.170196
     2     1      0.651680      0.263321      0.614003
     3     1      0.315758      0.797764      0.517470
     4     1      0.823323      0.705906      1.035027
     5     2      0.864085      1.027573      0.189453
     6     2      0.528346      1.021648      1.049474
     7     2      0.990499      0.462928      0.239780
     8     2      0.504192      0.699737      1.036925
     9     2      0.928955      0.226086      0.765404
    10     2      0.386676      1.055817      0.765239
    11     2      0.170270      0.493586      0.699871
    12     2      0.497108      0.522885      0.445880
    13     2      0.163922      0.326718      0.657738
    14     2      0.854749      0.155862      0.106044
    15     2      0.321975      0.674270      1.046911
    16     2      0.922378      0.724961      0.585342
ITEM: TIMESTEP
1817
ITEM: NUMBER OF ATOMS
16
ITEM: BOX BOUNDS xy xz yz  pp  pp  pp
     -0.300000      4.040544      0.000000
     -0.300000      4.040544      0.000000
     -0.300000      2.769228      0.000000
ITEM: ATOMS id type xs ys zs
     1     1      0.219965      0.225225      0.170019
     2     1      0.651412      0.262837      0.614331
     3     1      0.315362      0.797501      0.517808
     4     1      0.822716      0.705797      1.035160
     5     2      0.864185      1.027227      0.188742
     6     2      0.528289      1.022010      1.049200
     7     2      0.990385      0.462915      0.239636
     8     2      0.504564      0.699593      1.036227
     9     2      0.929841      0.225690      0.766309
    10     2      0.387255      1.055874      0.765079
    11     2      0.170121      0.494410      0.699660
    12     2      0.496950      0.522617      0.445689
    13     2      0.163925      0.326338      0.657961
    14     2      0.854880      0.155676      0.105984
    15     2      0.321914      0.674277      1.046686
    16     2      0.922788      0.725046      0.585420
ITEM: TIMESTEP
1818
ITEM: NUMBER OF ATOMS
16
ITEM: BOX BOUNDS xy xz yz  pp  pp  pp
     -0.300000      4.040544      0.000000
     -0.300000      4.040544      0.000000
     -0.300000      2.769228      0.000000
ITEM: ATOMS id type xs ys zs
     1     1      0.219666      0.225836      0.169287
     2     1      0.651841      0.262146      0.614321
     3     1      0.314930      0.797635      0.519037
     4     1      0.822723      0.705134      1.034116
     5     2      0.864531      1.027236      0.188535
     6     2      0.528104      1.021881      1.048550
     7     2      0.990524      0.463178      0.239735
     8     2      0.504433      0.699217      1.035511
     9     2      0.930555      0.224951      0.766028
    10     2      0.387330      1.056129      0.764854
    11     2      0.170426      0.495050      0.699842
    12     2      0.497132      0.523305      0.446210
    13     2      0.163897      0.326310      0.657217
    14     2      0.854747      0.156202      0.106373
    15     2      0.321537      0.675141      1.046675
    16     2      0.922704      0.724402      0.585258
ITEM: TIMESTEP
1819
ITEM: NUMBER OF ATOMS
16
ITEM: BOX BOUNDS xy xz yz  pp  pp  pp
     -0.300000      4.040544      0.000000
     -0.300000      4.040544      0.000000
     -0.300000      2.769228      0.000000
ITEM: ATOMS id type xs ys zs
     1     1      0.219853      0.226073      0.169525
     2     1      0.652053      0.262247      0.614320
     3     1      0.314740      0.797539      0.519288
     4     1      0.822943      0.704768      1.034639
     5     2      0.864780      1.026500      0.187658
     6     2      0.527700      1.022213      1.049303
     7     2      0.990346      0.463046      0.240322
     8     2      0.504613      0.699108      1.035609
     9     2      0.930957      0.224370      0.765616
    10     2      0.387323      1.056611      0.765677
    11     2      0.170553      0.494325      0.698804
    12     2      0.497328      0.523305      0.447391
    13     2      0.164134      0.325668      0.657707
    14     2      0.853823      0.156808      0.106125
    15     2      0.321212      0.675614      1.046369
    16     2      0.922899      0.724035      0.584965
ITEM: TIMESTEP
1820
ITEM: NUMBER OF ATOMS
16
ITEM: BOX BOUNDS xy xz yz  pp  pp  pp
     -0.300000      4.040544      0.000000
     -0.300000      4.040544      0.000000
     -0.300000      2.769228      0.000000
ITEM: ATOMS id type xs ys zs
     1     1      0.220121      0.225802      0.169570
     2     1      0.651715      0.262246      0.614368
     3     1      0.314360      0.797552      0.520272
     4     1      0.822953      0.704254      1.034153
     5     2      0.864802      1.026617      0.187636
     6     2      0.527043      1.022049      1.049223
     7     2      0.990091      0.462972      0.240304
     8     2      0.504901      0.698272      1.036141
     9     2      0.931424      0.224597      0.766298
    10     2      0.387088      1.056691      0.765276
    11     2      0.170938      0.493756      0.698467
    12     2      0.496876      0.523024      0.447390
    13     2      0.164578      0.325142      0.657641
    14     2      0.853151      0.157840      0.106247
    15     2      0.321261      0.676262      1.046002
    16     2      0.922900      0.724194      0.584945
ITEM: TIMESTEP
1821
ITEM: NUMBER OF ATOMS
16
ITEM: BOX BOUNDS xy xz yz  pp  pp  pp
     -0.300000      4.040544      0.000000
     -0.300000      4.040544      0.000000
     -0.300000      2.769228      0.000000
ITEM: ATOMS id type xs ys zs
     1     1      0.220563      0.225922      0.169904
     2     1      0.651316      0.262531      0.614274
     3     1      0.313764      0.797636      0.520559
     4     1      0.823426      0.703871      1.034129
     5     2      0.864789      1.026365      0.186819
     6     2      0.527495      1.021583      1.049108
     7     2      0.990654      0.463312      0.240213
     8     2      0.504523      0.697876      1.035479
     9     2      0.932305      0.224463      0.766361
    10     2      0.386721      1.056660      0.765453
    11     2      0.171189      0.493555      0.698082
    12     2      0.496800      0.523944      0.447853
    13     2      0.165179      0.324492      0.657393
    14     2      0.853183      0.158449      0.105806
    15     2      0.321174      0.676478      1.046211
    16     2      0.922303      0.724245      0.584450
ITEM: TIMESTEP
1822
ITEM: NUMBER OF ATOMS
16
ITEM: BOX BOUNDS xy xz yz  pp  pp  pp
     -0.300000      4.040544      0.000000
     -0.300000      4.040544      0.000000
     -0.300000      2.769228      0.000000
ITEM: ATOMS id type xs ys zs
     1     1      0.220838      0.226262      0.170388
     2     1      0.651547      0.261991      0.614800
     3     1      0.313695      0.797177      0.520975
     4     1      0.823296      0.704096      1.035012
     5     2      0.864898      1.026411      0.187180
     6     2      0.527747      1.021959      1.049753
     7     2      0.990381      0.463369      0.240532
     8     2      0.504872      0.697559      1.035718
     9     2      0.933071      0.224712      0.766093
    10     2      0.387127      1.056305      0.766109
    11     2      0.171025      0.493747      0.697115
    12     2      0.496862      0.523303      0.448079
    13     2      0.165394      0.324870      0.657206
    14     2      0.852598      0.158435      0.105742
    15     2      0.321368      0.677038      1.045686
    16     2      0.922181      0.724452      0.583859
ITEM: TIMESTEP
1823
ITEM: NUMBER OF ATOMS
16
ITEM: BOX BOUNDS xy xz yz  pp  pp  pp
     -0.300000      4.040544      0.000000
     -0.300000      4.040544      0.000000
     -0.300000      2.769228      0.000000
ITEM: ATOMS id type xs ys zs
     1     1      0.221315      0.226493      0.170379
     2     1      0.651766      0.261644      0.614245
     3     1      0.313700      0.797458      0.521905
     4     1      0.823685      0.703971      1.035428
     5     2      0.864888      1.026540      0.186869
     6     2      0.528239      1.022381      1.049153
     7     2      0.990826      0.463445      0.241493
     8     2      0.505457      0.697112      1.035581
     9     2      0.933942      0.224688      0.766194
    10     2      0.387392      1.057063      0.766417
    11     2      0.170794      0.493626      0.696756
    12     2      0.496481      0.523323      0.448366
    13     2      0.165319      0.324335      0.657141
    14     2      0.852159      0.158830      0.104438
    15     2      0.321068      0.677753      1.046348
    16     2      0.921340      0.724752      0.582943
ITEM: TIMESTEP
1824
ITEM: NUMBER OF ATOMS
16
ITEM: BOX BOUNDS xy xz yz  pp  pp  pp
     -0.300000      4.040544      0.000000
     -0.300000      4.040544      0.000000
     -0.300000      2.769228      0.000000
ITEM: ATOMS id type xs ys zs
     1     1      0.222028      0.226493      0.170626
     2     1      0.652214      0.261651      0.614449
     3     1      0.313755      0.796834      0.522009
     4     1      0.823239      0.704334      1.035118
     5     2      0.865005      1.026708      0.186307
     6     2      0.527710      1.022713      1.048585
     7     2      0.990701      0.463598      0.242223
     8     2      0.505712      0.696705      1.035224
     9     2      0.934334      0.224663      0.765639
    10     2      0.387642      1.056929      0.766210
    11     2      0.170653      0.492883      0.696306
    12     2      0.496211      0.523449      0.447991
    13     2      0.165537      0.323868      0.656926
    14     2      0.852030      0.160019      0.104267
    15     2      0.321134      0.678084      1.047399
    16     2      0.920951      0.724924      0.582944
ITEM: TIMESTEP
1825
ITEM: NUMBER OF ATOMS
16
ITEM: BOX BOUNDS xy xz yz  pp  pp  pp
     -0.300000      4.040544      0.000000
     -0.300000      4.040544      0.000000
     -0.300000      2.769228      0.000000
ITEM: ATOMS id type xs ys zs
     1     1      0.222032      0.226871      0.170407
     2     1      0.651852      0.262004      0.614129
     3     1      0.313239      0.796718      0.521860
     4     1      0.822860      0.703930      1.035016
     5     2      0.864672      1.025910      0.186367
     6     2      0.527644      1.023050      1.048873
     7     2      0.991021      0.463420      0.242269
     8     2      0.506155      0.696514      1.034879
     9     2      0.934849      0.224917      0.765069
    10     2      0.387719      1.056855      0.766231
    11     2      0.170193      0.493087      0.696028
    12     2      0.496586      0.523434      0.448241
    13     2      0.165609      0.324014      0.657930
    14     2      0.851407      0.160296      0.103715
    15     2      0.321482      0.678598      1.047145
    16     2      0.920644      0.725002      0.582508
ITEM: TIMESTEP
1826
ITEM: NUMBER OF ATOMS
16
ITEM: BOX BOUNDS xy xz yz  pp  pp  pp
     -0.300000      4.040544      0.000000
     -0.300000      4.040544      0.000000
     -0.300000      2.769228      0.000000
ITEM: ATOMS id type xs ys zs
     1     1      0.222062      0.226875      0.169975
     2     1      0.652045      0.262155      0.614331
     3     1      0.313191      0.796289      0.521807
     4     1      0.822953      0.704075      1.034507
     5     2      0.864314      1.026234      0.185847
     6     2      0.527357      1.023184      1.048894
     7     2      0.990775      0.463745      0.241716
     8     2      0.506313      0.695828      1.035100
     9     2      0.935186      0.224884      0.764532
    10     2      0.387931      1.056853      0.765698
    11     2      0.170303      0.493506      0.695364
    12     2      0.496331      0.523220      0.449074
    13     2      0.165814      0.323977      0.658318
    14     2      0.851035      0.160539      0.102990
    15     2      0.321474      0.678722      1.046053
    16     2      0.921073      0.724798      0.582162
ITEM: TIMESTEP
1827
ITEM: NUMBER OF ATOMS
16
ITEM: BOX BOUNDS xy xz yz  pp  pp  pp
     -0.300000      4.040544      0.000000
     -0.300000      4.040544      0.000000
     -0.300000      2.769228      0.000000
ITEM: ATOMS id type xs ys zs
     1     1      0.221815      0.227048      0.169694
     2     1      0.652880      0.262067      0.614128
     3     1      0.313648      0.796049      0.522087
     4     1      0.822737      0.703973      1.034530
     5     2      0.864242      1.026077      0.186747
     6     2      0.527275      1.023550      1.049018
     7     2      0.990349      0.464037      0.241492
     8     2      0.506346      0.695914      1.036029
     9     2      0.935088      0.224881      0.764948
    10     2      0.387483      1.056649      0.766600
    11     2      0.170006      0.493303      0.694852