ITEM: TIMESTEP
1801
ITEM: NUMBER OF ATOMS
16
ITEM: BOX BOUNDS xy xz yz  pp  pp  pp
     -0.300000      4.040544      0.000000
     -0.300000      4.040544      0.000000
     -0.300000      2.769228      0.000000
ITEM: ATOMS id type xs ys zs
     1     1      0.218432      0.222325      0.170982
     2     1      0.651486      0.262074      0.617176
     3     1      0.318727      0.801292      0.514133
     4     1      0.822845      0.713275      1.037442
     5     2      0.860889      1.028613      0.193216
     6     2      0.531500      1.017488      1.048165
     7     2      0.990722      0.464246      0.237000
     8     2      0.504408      0.701325      1.039432
     9     2      0.921691      0.229122      0.766358
    10     2      0.387377      1.052674      0.761118
    11     2      0.169271      0.493374      0.702099
    12     2      0.497897      0.523036      0.445269
    13     2      0.160906      0.329311      0.656541
    14     2      0.857217      0.151771      0.104603
    15     2      0.322836      0.669597      1.045722
    16     2      0.922685      0.722809      0.580885
ITEM: TIMESTEP
1802
ITEM: NUMBER OF ATOMS
16
ITEM: BOX BOUNDS xy xz yz  pp  pp  pp
     -0.300000      4.040544      0.000000
     -0.300000      4.040544      0.000000
     -0.300000      2.769228      0.000000
ITEM: ATOMS id type xs ys zs
     1     1      0.218251      0.222727      0.171072
     2     1      0.651587      0.262326      0.617486
     3     1      0.318201      0.801308      0.514405
     4     1      0.822794      0.712581      1.037115
     5     2      0.860969      1.029074      0.192456
     6     2      0.531715      1.017660      1.048078
     7     2      0.990664      0.464417      0.236850
     8     2      0.504516      0.701823      1.039866
     9     2      0.921629      0.229213      0.765400
    10     2      0.387180      1.053365      0.761544
    11     2      0.168738      0.493399      0.701801
    12     2      0.497780      0.523256      0.445761
    13     2      0.160751      0.329141      0.656804
    14     2      0.857436      0.151544      0.104091
    15     2      0.322972      0.669732      1.045495
    16     2      0.922694      0.722916      0.580479
ITEM: TIMESTEP
1803
ITEM: NUMBER OF ATOMS
16
ITEM: BOX BOUNDS xy xz yz  pp  pp  pp
     -0.300000      4.040544      0.000000
     -0.300000      4.040544      0.000000
     -0.300000      2.769228      0.000000
ITEM: ATOMS id type xs ys zs
     1     1      0.218655      0.222649      0.171927
     2     1      0.651311      0.262366      0.617265
     3     1      0.317438      0.800223      0.514702
     4     1      0.822111      0.712001      1.036038
     5     2      0.861079      1.028608      0.192449
     6     2      0.531599      1.017359      1.048174
     7     2      0.990736      0.464129      0.236722
     8     2      0.504151      0.701860      1.040252
     9     2      0.921821      0.229127      0.765024
    10     2      0.387584      1.053683      0.761238
    11     2      0.168556      0.493786      0.701804
    12     2      0.498364      0.523376      0.445787
    13     2      0.161005      0.329115      0.656348
    14     2      0.856935      0.151877      0.103574
    15     2      0.322676      0.669992      1.044802
    16     2      0.922771      0.723404      0.580955
ITEM: TIMESTEP
1804
ITEM: NUMBER OF ATOMS
16
ITEM: BOX BOUNDS xy xz yz  pp  pp  pp
     -0.300000      4.040544      0.000000
     -0.300000      4.040544      0.000000
     -0.300000      2.769228      0.000000
ITEM: ATOMS id type xs ys zs
     1     1      0.218611      0.222255      0.172968
     2     1      0.650873      0.262866      0.616977
     3     1      0.317045      0.800362      0.514606
     4     1      0.821846      0.712115      1.035887
     5     2      0.861675      1.029075      0.193164
     6     2      0.531479      1.017417      1.048797
     7     2      0.990487      0.463946      0.237412
     8     2      0.504914      0.702132      1.040117
     9     2      0.922678      0.229280      0.765920
    10     2      0.387830      1.053856      0.762304
    11     2      0.168407      0.493749      0.701705
    12     2      0.497466      0.524106      0.445305
    13     2      0.160961      0.328188      0.656116
    14     2      0.856211      0.152443      0.103416
    15     2      0.322594      0.670345      1.044556
    16     2      0.922746      0.723620      0.581101
ITEM: TIMESTEP
1805
ITEM: NUMBER OF ATOMS
16
ITEM: BOX BOUNDS xy xz yz  pp  pp  pp
     -0.300000      4.040544      0.000000
     -0.300000      4.040544      0.000000
     -0.300000      2.769228      0.000000
ITEM: ATOMS id type xs ys zs
     1     1      0.219182      0.222206      0.172936
     2     1      0.650878      0.263334      0.617037
     3     1      0.316681      0.800300      0.515905
     4     1      0.821761      0.711813      1.035358
     5     2      0.861379      1.029160      0.192677
     6     2      0.531591      1.017383      1.049231
     7     2      0.990811      0.464085      0.237544
     8     2      0.504334      0.701876      1.039868
     9     2      0.922895      0.229140      0.766788
    10     2      0.387733      1.054142      0.762367
    11     2      0.168462      0.493713      0.701342
    12     2      0.497960      0.523926      0.445724
    13     2      0.160624      0.327556      0.655780
    14     2      0.855534      0.152663      0.103311
    15     2      0.322780      0.671370      1.045461
    16     2      0.923089      0.723644      0.581255
ITEM: TIMESTEP
1806
ITEM: NUMBER OF ATOMS
16
ITEM: BOX BOUNDS xy xz yz  pp  pp  pp
     -0.300000      4.040544      0.000000
     -0.300000      4.040544      0.000000
     -0.300000      2.769228      0.000000
ITEM: ATOMS id type xs ys zs
     1     1      0.219532      0.222476      0.173743
     2     1      0.651008      0.264002      0.617987
     3     1      0.316705      0.800286      0.515587
     4     1      0.821690      0.711915      1.034908
     5     2      0.861363      1.028946      0.192058
     6     2      0.531214      1.017636      1.049429
     7     2      0.991253      0.464192      0.237045
     8     2      0.504221      0.701906      1.040223
     9     2      0.923639      0.228543      0.766188
    10     2      0.387342      1.054544      0.762648
    11     2      0.168148      0.493266      0.700955
    12     2      0.497999      0.523682      0.446514
    13     2      0.160948      0.327425      0.656494
    14     2      0.856052      0.152929      0.103428
    15     2      0.322945      0.671700      1.045069
    16     2      0.922798      0.723717      0.582125
ITEM: TIMESTEP
1807
ITEM: NUMBER OF ATOMS
16
ITEM: BOX BOUNDS xy xz yz  pp  pp  pp
     -0.300000      4.040544      0.000000
     -0.300000      4.040544      0.000000
     -0.300000      2.769228      0.000000
ITEM: ATOMS id type xs ys zs
     1     1      0.219759      0.222693      0.173851
     2     1      0.650472      0.264503      0.617463
     3     1      0.315738      0.800099      0.515948
     4     1      0.821517      0.711427      1.035446
     5     2      0.861723      1.028967      0.191509
     6     2      0.531097      1.017659      1.050166
     7     2      0.991259      0.464015      0.237430
     8     2      0.504249      0.701968      1.039819
     9     2      0.924212      0.228216      0.766641
    10     2      0.387953      1.054887      0.762894
    11     2      0.167987      0.493373      0.701126
    12     2      0.498576      0.524371      0.446468
    13     2      0.160980      0.327070      0.657103
    14     2      0.856308      0.152746      0.104118
    15     2      0.322332      0.671381      1.045145
    16     2      0.922494      0.723901      0.581768
ITEM: TIMESTEP
1808
ITEM: NUMBER OF ATOMS
16
ITEM: BOX BOUNDS xy xz yz  pp  pp  pp
     -0.300000      4.040544      0.000000
     -0.300000      4.040544      0.000000
     -0.300000      2.769228      0.000000
ITEM: ATOMS id type xs ys zs
     1     1      0.219520      0.223103      0.174302
     2     1      0.650022      0.264844      0.617710
     3     1      0.315924      0.800297      0.516107
     4     1      0.821915      0.711326      1.034662
     5     2      0.861823      1.029059      0.191376
     6     2      0.531167      1.017722      1.050306
     7     2      0.991222      0.463795      0.237836
     8     2      0.504660      0.702040      1.039194
     9     2      0.924000      0.228597      0.766899
    10     2      0.388806      1.055030      0.763686
    11     2      0.167840      0.493398      0.701006
    12     2      0.498833      0.524088      0.446125
    13     2      0.160591      0.327450      0.657643
    14     2      0.856441      0.153053      0.105045
    15     2      0.322306      0.672025      1.045068
    16     2      0.923206      0.723711      0.581315
ITEM: TIMESTEP
1809
ITEM: NUMBER OF ATOMS
16
ITEM: BOX BOUNDS xy xz yz  pp  pp  pp
     -0.300000      4.040544      0.000000
     -0.300000      4.040544      0.000000
     -0.300000      2.769228      0.000000
ITEM: ATOMS id type xs ys zs
     1     1      0.219733      0.223169      0.174642
     2     1      0.650023      0.265030      0.618155
     3     1      0.316121      0.800432      0.515572
     4     1      0.821828      0.711164      1.035345
     5     2      0.862141      1.029158      0.191318
     6     2      0.530824      1.018098      1.051032
     7     2      0.991081      0.463844      0.238834
     8     2      0.504461      0.701912      1.039076
     9     2      0.924277      0.228642      0.767321
    10     2      0.389068      1.055117      0.763894
    11     2      0.167625      0.493409      0.700218
    12     2      0.499124      0.523900      0.446214
    13     2      0.160958      0.327284      0.658038
    14     2      0.856293      0.153099      0.105153
    15     2      0.322564      0.672655      1.045159
    16     2      0.923720      0.723584      0.582137
ITEM: TIMESTEP
1810
ITEM: NUMBER OF ATOMS
16
ITEM: BOX BOUNDS xy xz yz  pp  pp  pp
     -0.300000      4.040544      0.000000
     -0.300000      4.040544      0.000000
     -0.300000      2.769228      0.000000
ITEM: ATOMS id type xs ys zs
     1     1      0.219517      0.223241      0.174199
     2     1      0.649910      0.265250      0.618794
     3     1      0.316643      0.800311      0.515009
     4     1      0.821566      0.710548      1.034991
     5     2      0.862481      1.028820      0.190957
     6     2      0.530711      1.018121      1.051405
     7     2      0.991235      0.463508      0.240008
     8     2      0.504709      0.701680      1.039292
     9     2      0.924644      0.228374      0.768264
    10     2      0.389237      1.055173      0.764291
    11     2      0.167369      0.493331      0.700666
    12     2      0.498886      0.523911      0.446679
    13     2      0.161737      0.326326      0.658364
    14     2      0.855515      0.152848      0.104249
    15     2      0.322438      0.672929      1.044408
    16     2      0.923614      0.723240      0.581878
ITEM: TIMESTEP
1811
ITEM: NUMBER OF ATOMS
16
ITEM: BOX BOUNDS xy xz yz  pp  pp  pp
     -0.300000      4.040544      0.000000
     -0.300000      4.040544      0.000000
     -0.300000      2.769228      0.000000
ITEM: ATOMS id type xs ys zs
     1     1      0.219855      0.222977      0.173327
     2     1      0.650162      0.265547      0.618165
     3     1      0.316593      0.799843      0.515160
     4     1      0.822116      0.709664      1.035874
     5     2      0.862711      1.028848      0.191480
     6     2      0.530776      1.017898      1.051333
     7     2      0.990818      0.463313      0.240449
     8     2      0.504344      0.701485      1.039596
     9     2      0.925347      0.228056      0.767938
    10     2      0.388580      1.055582      0.763910
    11     2      0.167249      0.493554      0.700911
    12     2      0.498576      0.524745      0.447313
    13     2      0.161531      0.325686      0.658216
    14     2      0.855258      0.152996      0.104788
    15     2      0.322719      0.673224      1.044045
    16     2      0.923855      0.722767      0.581787
ITEM: TIMESTEP
1812
ITEM: NUMBER OF ATOMS
16
ITEM: BOX BOUNDS xy xz yz  pp  pp  pp
     -0.300000      4.040544      0.000000
     -0.300000      4.040544      0.000000
     -0.300000      2.769228      0.000000
ITEM: ATOMS id type xs ys zs
     1     1      0.219991      0.222985      0.173213
     2     1      0.649872      0.265062      0.617781
     3     1      0.316554      0.799757      0.515625
     4     1      0.822026      0.709401      1.035882
     5     2      0.862866      1.028631      0.190881
     6     2      0.530136      1.018746      1.051634
     7     2      0.990657      0.463199      0.240274
     8     2      0.504445      0.701346      1.039633
     9     2      0.925598      0.228326      0.767798
    10     2      0.388652      1.055425      0.763839
    11     2      0.167376      0.493383      0.700338
    12     2      0.498457      0.524506      0.446995
    13     2      0.161549      0.325512      0.658079
    14     2      0.855281      0.153148      0.105072
    15     2      0.323343      0.673896      1.044361
    16     2      0.923956      0.722615      0.581889
ITEM: TIMESTEP
1813
ITEM: NUMBER OF ATOMS
16
ITEM: BOX BOUNDS xy xz yz  pp  pp  pp
     -0.300000      4.040544      0.000000
     -0.300000      4.040544      0.000000
     -0.300000      2.769228      0.000000
ITEM: ATOMS id type xs ys zs
     1     1      0.220612      0.222305      0.173133
     2     1      0.649615      0.266033      0.617132
     3     1      0.316371      0.799743      0.515703
     4     1      0.822316      0.708778      1.035443
     5     2      0.862824      1.029072      0.189991
     6     2      0.529669      1.019092      1.051693
     7     2      0.990728      0.463121      0.241202
     8     2      0.505055      0.701304      1.039813
     9     2      0.927021      0.227808      0.767326
    10     2      0.388859      1.055202      0.764449
    11     2      0.167441      0.493426      0.700129
    12     2      0.498557      0.524469      0.446012
    13     2      0.161304      0.325178      0.658332
    14     2      0.854677      0.153928      0.104733
    15     2      0.323106      0.674568      1.044641
    16     2      0.923374      0.722400      0.581543
ITEM: TIMESTEP
1814
ITEM: NUMBER OF ATOMS
16
ITEM: BOX BOUNDS xy xz yz  pp  pp  pp
     -0.300000      4.040544      0.000000
     -0.300000      4.040544      0.000000
     -0.300000      2.769228      0.000000
ITEM: ATOMS id type xs ys zs
     1     1      0.220936      0.223003      0.173251
     2     1      0.649755      0.266347      0.616275
     3     1      0.315901      0.799751      0.516256
     4     1      0.822423      0.708371      1.035556
     5     2      0.862985      1.029342      0.189922
     6     2      0.529339      1.019092      1.052423
     7     2      0.990736      0.463398      0.241104
     8     2      0.506028      0.700490      1.040629
     9     2      0.927184      0.227864      0.767160
    10     2      0.389438      1.055296      0.763357
    11     2      0.167020      0.493718      0.699608
    12     2      0.498298      0.524427      0.446645
    13     2      0.161221      0.324796      0.658200
    14     2      0.854681      0.153903      0.104078
    15     2      0.322839      0.674811      1.044676
    16     2      0.923005      0.722178      0.581283
ITEM: TIMESTEP
1815
ITEM: NUMBER OF ATOMS
16
ITEM: BOX BOUNDS xy xz yz  pp  pp  pp
     -0.300000      4.040544      0.000000
     -0.300000      4.040544      0.000000
     -0.300000      2.769228      0.000000
ITEM: ATOMS id type xs ys zs
     1     1      0.221493      0.223166      0.172988
     2     1      0.649719      0.266794      0.615639
     3     1      0.315752      0.799840      0.515838
     4     1      0.822081      0.708138      1.035420
     5     2      0.862706      1.028884      0.189865
     6     2      0.529784      1.019791      1.053454
     7     2      0.990346      0.463156      0.242430
     8     2      0.506457      0.700212      1.040781
     9     2      0.927664      0.227611      0.766627
    10     2      0.389323      1.055003      0.763629
    11     2      0.167224      0.494139      0.698940
    12     2      0.498453      0.524196      0.446680
    13     2      0.160987      0.324318      0.658707
    14     2      0.854363      0.154064      0.104639
    15     2      0.322229      0.675173      1.044930
    16     2      0.922569      0.721831      0.580557
ITEM: TIMESTEP
1816
ITEM: NUMBER OF ATOMS
16
ITEM: BOX BOUNDS xy xz yz  pp  pp  pp
     -0.300000      4.040544      0.000000
     -0.300000      4.040544      0.000000
     -0.300000      2.769228      0.000000
ITEM: ATOMS id type xs ys zs
     1     1      0.221553      0.223432      0.172875
     2     1      0.649777      0.266776      0.615928
     3     1      0.315539      0.799886      0.515572
     4     1      0.822218      0.708148      1.035081
     5     2      0.862632      1.028927      0.189070
     6     2      0.529300      1.019419      1.054346
     7     2      0.990825      0.463161      0.243170
     8     2      0.505874      0.700405      1.040142
     9     2      0.927386      0.227625      0.765887
    10     2      0.389649      1.054818      0.763984
    11     2      0.167504      0.493786      0.698721
    12     2      0.498495      0.524095      0.446610
    13     2      0.161053      0.324501      0.658952
    14     2      0.854489      0.154230      0.104314
    15     2      0.322663      0.675707      1.045476
    16     2      0.922325      0.722611      0.580738
ITEM: TIMESTEP
1817
ITEM: NUMBER OF ATOMS
16
ITEM: BOX BOUNDS xy xz yz  pp  pp  pp
     -0.300000      4.040544      0.000000
     -0.300000      4.040544      0.000000
     -0.300000      2.769228      0.000000
ITEM: ATOMS id type xs ys zs
     1     1      0.221713      0.223309      0.173894
     2     1      0.650155      0.266358      0.616294
     3     1      0.314872      0.798975      0.515940
     4     1      0.822590      0.707296      1.035218
     5     2      0.862728      1.028321      0.187455
     6     2      0.529761      1.019185      1.053643
     7     2      0.991680      0.462588      0.243824
     8     2      0.505360      0.700521      1.040172
     9     2      0.927890      0.227536      0.766131
    10     2      0.389782      1.054673      0.764492
    11     2      0.167151      0.494115      0.698262
    12     2      0.498551      0.524257      0.446768
    13     2      0.161204      0.324233      0.658788
    14     2      0.854213      0.154668      0.104229
    15     2      0.321736      0.676140      1.045210
    16     2      0.922393      0.722408      0.580269
ITEM: TIMESTEP
1818
ITEM: NUMBER OF ATOMS
16
ITEM: BOX BOUNDS xy xz yz  pp  pp  pp
     -0.300000      4.040544      0.000000
     -0.300000      4.040544      0.000000
     -0.300000      2.769228      0.000000
ITEM: ATOMS id type xs ys zs
     1     1      0.221460      0.224132      0.173666
     2     1      0.650295      0.266650      0.616879
     3     1      0.314422      0.798305      0.516274
     4     1      0.822778      0.706535      1.034905
     5     2      0.862591      1.027989      0.186937
     6     2      0.529525      1.019225      1.053716
     7     2      0.991602      0.463007      0.244037
     8     2      0.505343      0.700664      1.040157
     9     2      0.928976      0.227363      0.765070
    10     2      0.389378      1.054776      0.764004
    11     2      0.167723      0.494048      0.698463
    12     2      0.498910      0.523760      0.447221
    13     2      0.161650      0.323309      0.659305
    14     2      0.854158      0.155271      0.104168
    15     2      0.321596      0.676918      1.044538
    16     2      0.922320      0.723073      0.580099
ITEM: TIMESTEP
1819
ITEM: NUMBER OF ATOMS
16
ITEM: BOX BOUNDS xy xz yz  pp  pp  pp
     -0.300000      4.040544      0.000000
     -0.300000      4.040544      0.000000
     -0.300000      2.769228      0.000000
ITEM: ATOMS id type xs ys zs
     1     1      0.221549      0.224403      0.173553
     2     1      0.650361      0.266592      0.616740
     3     1      0.314265      0.797921      0.516196
     4     1      0.822698      0.706431      1.034477
     5     2      0.862945      1.028045      0.186160
     6     2      0.528869      1.019542      1.053689
     7     2      0.991344      0.463768      0.243961
     8     2      0.505065      0.700695      1.040120
     9     2      0.929680      0.227225      0.764930
    10     2      0.389408      1.055259      0.763966
    11     2      0.167712      0.493725      0.698134
    12     2      0.499128      0.523796      0.446957
    13     2      0.161455      0.323365      0.658251
    14     2      0.853778      0.155263      0.103715
    15     2      0.321997      0.676736      1.044995
    16     2      0.921732      0.723826      0.578961
ITEM: TIMESTEP
1820
ITEM: NUMBER OF ATOMS
16
ITEM: BOX BOUNDS xy xz yz  pp  pp  pp
     -0.300000      4.040544      0.000000
     -0.300000      4.040544      0.000000
     -0.300000      2.769228      0.000000
ITEM: ATOMS id type xs ys zs
     1     1      0.221094      0.224545      0.173209
     2     1      0.650718      0.266086      0.616920
     3     1      0.314093      0.798297      0.517103
     4     1      0.822885      0.706310      1.034474
     5     2      0.862836      1.027939      0.186127
     6     2      0.528817      1.019927      1.053496
     7     2      0.991351      0.463195      0.245007
     8     2      0.505543      0.700745      1.039926
     9     2      0.930162      0.227136      0.764927
    10     2      0.389145      1.055479      0.764530
    11     2      0.167842      0.493580      0.697604
    12     2      0.498843      0.523319      0.447420
    13     2      0.161486      0.322825      0.658790
    14     2      0.853642      0.155454      0.103685
    15     2      0.322077      0.677282      1.046236
    16     2      0.922121      0.724066      0.578797
ITEM: TIMESTEP
1821
ITEM: NUMBER OF ATOMS
16
ITEM: BOX BOUNDS xy xz yz  pp  pp  pp
     -0.300000      4.040544      0.000000
     -0.300000      4.040544      0.000000
     -0.300000      2.769228      0.000000
ITEM: ATOMS id type xs ys zs
     1     1      0.220940      0.224456      0.173371
     2     1      0.650853      0.265873      0.617499
     3     1      0.313572      0.798533      0.517765
     4     1      0.822829      0.706362      1.033903
     5     2      0.862535      1.027962      0.185928
     6     2      0.528673      1.020557      1.053757
     7     2      0.990836      0.463101      0.245478
     8     2      0.505313      0.700906      1.039951
     9     2      0.930462      0.226812      0.764938
    10     2      0.388575      1.055011      0.765347
    11     2      0.167349      0.494318      0.697388
    12     2      0.498328      0.523567      0.447613
    13     2      0.161980      0.322371      0.658724
    14     2      0.853639      0.155574      0.103689
    15     2      0.321689      0.678081      1.046121
    16     2      0.922866      0.724183      0.579366
ITEM: TIMESTEP
1822
ITEM: NUMBER OF ATOMS
16
ITEM: BOX BOUNDS xy xz yz  pp  pp  pp
     -0.300000      4.040544      0.000000
     -0.300000      4.040544      0.000000
     -0.300000      2.769228      0.000000
ITEM: ATOMS id type xs ys zs
     1     1      0.221016      0.224504      0.172942
     2     1      0.650559      0.265763      0.617745
     3     1      0.313173      0.798499      0.518357
     4     1      0.822574      0.706389      1.034205
     5     2      0.862686      1.027775      0.186555
     6     2      0.528738      1.020194      1.053936
     7     2      0.990997      0.463620      0.245983
     8     2      0.505004      0.700460      1.039513
     9     2      0.930939      0.226323      0.764833
    10     2      0.388897      1.055615      0.764743
    11     2      0.166993      0.494563      0.696649
    12     2      0.498423      0.523723      0.448172
    13     2      0.162324      0.322201      0.658873
    14     2      0.853408      0.156226      0.102982
    15     2      0.320759      0.678678      1.045668
    16     2      0.922563      0.724402      0.580274
ITEM: TIMESTEP
1823
ITEM: NUMBER OF ATOMS
16
ITEM: BOX BOUNDS xy xz yz  pp  pp  pp
     -0.300000      4.040544      0.000000
     -0.300000      4.040544      0.000000
     -0.300000      2.769228      0.000000
ITEM: ATOMS id type xs ys zs
     1     1      0.220994      0.224018      0.173421
     2     1      0.650258      0.265270      0.617839
     3     1      0.313392      0.798079      0.518365
     4     1      0.822927      0.705855      1.034484
     5     2      0.863424      1.027839      0.185762
     6     2      0.528041      1.020362      1.053924
     7     2      0.990835      0.463486      0.246609
     8     2      0.505494      0.700604      1.040366
     9     2      0.931286      0.225895      0.764167
    10     2      0.388954      1.056331      0.765438
    11     2      0.166889      0.493836      0.697053
    12     2      0.498656      0.523926      0.448669
    13     2      0.162842      0.321996      0.658933
    14     2      0.853660      0.155614      0.103394
    15     2      0.320362      0.678988      1.046100
    16     2      0.922008      0.724565      0.580495
ITEM: TIMESTEP
1824
ITEM: NUMBER OF ATOMS
16
ITEM: BOX BOUNDS xy xz yz  pp  pp  pp
     -0.300000      4.040544      0.000000
     -0.300000      4.040544      0.000000
     -0.300000      2.769228      0.000000
ITEM: ATOMS id type xs ys zs
     1     1      0.220983      0.224177      0.173539
     2     1      0.649983      0.265221      0.616900
     3     1      0.313717      0.797868      0.518281
     4     1      0.822544      0.706123      1.034798
     5     2      0.863271      1.027720      0.185524
     6     2      0.527820      1.020514      1.054221
     7     2      0.990697      0.463763      0.246827
     8     2      0.505729      0.700605      1.040853
     9     2      0.931422      0.224895      0.764000
    10     2      0.389397      1.055898      0.765596
    11     2      0.166529      0.493249      0.697229
    12     2      0.498501      0.523538      0.447995
    13     2      0.163112      0.321747      0.659617
    14     2      0.853727      0.155671      0.104299
    15     2      0.320186      0.678822      1.046636
    16     2      0.921132      0.724817      0.579109
ITEM: TIMESTEP
1825
ITEM: NUMBER OF ATOMS
16
ITEM: BOX BOUNDS xy xz yz  pp  pp  pp
     -0.300000      4.040544      0.000000
     -0.300000      4.040544      0.000000
     -0.300000      2.769228      0.000000
ITEM: ATOMS id type xs ys zs
     1     1      0.220672      0.224090      0.173981
     2     1      0.649723      0.264902      0.617275
     3     1      0.313335      0.797424      0.518754
     4     1      0.822384      0.706431      1.034436
     5     2      0.863012      1.027792      0.184140
     6     2      0.527939      1.020585      1.055616
     7     2      0.990197      0.463298      0.247214
     8     2      0.505815      0.700711      1.040364
     9     2      0.931758      0.225253      0.763984
    10     2      0.389376      1.056128      0.765163
    11     2      0.165826      0.493259      0.696623
    12     2      0.498141      0.523411      0.447895
    13     2      0.163406      0.321149      0.660118
    14     2      0.853403      0.155557      0.104428
    15     2      0.320386      0.679047      1.046667
    16     2      0.921378      0.724350      0.579573
ITEM: TIMESTEP
1826
ITEM: NUMBER OF ATOMS
16
ITEM: BOX BOUNDS xy xz yz  pp  pp  pp
     -0.300000      4.040544      0.000000
     -0.300000      4.040544      0.000000
     -0.300000      2.769228      0.000000
ITEM: ATOMS id type xs ys zs
     1     1      0.220627      0.224381      0.173935
     2     1      0.650567      0.264614      0.617560
     3     1      0.312946      0.797679      0.518746
     4     1      0.822325      0.706351      1.034082
     5     2      0.863377      1.027848      0.183893
     6     2      0.527677      1.020776      1.055840
     7     2      0.989652      0.462639      0.247075
     8     2      0.505728      0.700932      1.041448
     9     2      0.931918      0.225810      0.764352
    10     2      0.389337      1.056376      0.765320
    11     2      0.165990      0.493320      0.695773
    12     2      0.498083      0.523798      0.448202
    13     2      0.163541      0.320777      0.660011
    14     2      0.853682      0.155802      0.105071
    15     2      0.320390      0.679967      1.045818
    16     2      0.920999      0.724429      0.579171
ITEM: TIMESTEP
1827
ITEM: NUMBER OF ATOMS
16
ITEM: BOX BOUNDS xy xz yz  pp  pp  pp
     -0.300000      4.040544      0.000000
     -0.300000      4.040544      0.000000
     -0.300000      2.769228      0.000000
ITEM: ATOMS id type xs ys zs
     1     1      0.220721      0.224131      0.173440
     2     1      0.651060      0.264240      0.617423
     3     1      0.312714      0.797341      0.518638
     4     1      0.821927      0.706257      1.033621
     5     2      0.863516      1.028574      0.183793
     6     2      0.527609      1.020961      1.055595
     7     2      0.989855      0.462636      0.247366
     8     2      0.505369      0.700762      1.042284
     9     2      0.932398      0.225756      0.763472
    10     2      0.389254      1.057016      0.765673
    11     2      0.165402      0.492970      0.695711