ITEM: TIMESTEP
1801
ITEM: NUMBER OF ATOMS
16
ITEM: BOX BOUNDS xy xz yz  pp  pp  pp
     -0.300000      4.040544      0.000000
     -0.300000      4.040544      0.000000
     -0.300000      2.769228      0.000000
ITEM: ATOMS id type xs ys zs
     1     1      0.218240      0.222297      0.172494
     2     1      0.651830      0.262033      0.617181
     3     1      0.318716      0.801320      0.513883
     4     1      0.822813      0.712938      1.038008
     5     2      0.861578      1.028868      0.193456
     6     2      0.531821      1.017788      1.048834
     7     2      0.990478      0.464094      0.236242
     8     2      0.504123      0.701162      1.040117
     9     2      0.921107      0.229381      0.765773
    10     2      0.387411      1.053485      0.760635
    11     2      0.168779      0.493339      0.701994
    12     2      0.497587      0.522833      0.445169
    13     2      0.160804      0.329310      0.656842
    14     2      0.857444      0.151924      0.105058
    15     2      0.322634      0.669814      1.046239
    16     2      0.923404      0.722381      0.581216
ITEM: TIMESTEP
1802
ITEM: NUMBER OF ATOMS
16
ITEM: BOX BOUNDS xy xz yz  pp  pp  pp
     -0.300000      4.040544      0.000000
     -0.300000      4.040544      0.000000
     -0.300000      2.769228      0.000000
ITEM: ATOMS id type xs ys zs
     1     1      0.218325      0.222560      0.172943
     2     1      0.651900      0.261673      0.616972
     3     1      0.318339      0.801009      0.514103
     4     1      0.822767      0.712140      1.038049
     5     2      0.862181      1.028305      0.193941
     6     2      0.531646      1.018197      1.048678
     7     2      0.989961      0.464213      0.235989
     8     2      0.504362      0.700849      1.040149
     9     2      0.921683      0.229474      0.765840
    10     2      0.387936      1.053772      0.760474
    11     2      0.168946      0.492772      0.701813
    12     2      0.497110      0.522114      0.444544
    13     2      0.161178      0.329048      0.657081
    14     2      0.857447      0.151960      0.105311
    15     2      0.322850      0.670208      1.045906
    16     2      0.923047      0.722667      0.580775
ITEM: TIMESTEP
1803
ITEM: NUMBER OF ATOMS
16
ITEM: BOX BOUNDS xy xz yz  pp  pp  pp
     -0.300000      4.040544      0.000000
     -0.300000      4.040544      0.000000
     -0.300000      2.769228      0.000000
ITEM: ATOMS id type xs ys zs
     1     1      0.218383      0.222378      0.172389
     2     1      0.651730      0.261563      0.617059
     3     1      0.317989      0.800497      0.514244
     4     1      0.822652      0.712102      1.038327
     5     2      0.862184      1.028194      0.193284
     6     2      0.531932      1.018354      1.048901
     7     2      0.989770      0.464741      0.236000
     8     2      0.504118      0.700801      1.040612
     9     2      0.922617      0.229448      0.765035
    10     2      0.387311      1.054280      0.760530
    11     2      0.168417      0.492841      0.701028
    12     2      0.497213      0.521379      0.444316
    13     2      0.160948      0.329081      0.657548
    14     2      0.857630      0.152005      0.105737
    15     2      0.322885      0.670491      1.046456
    16     2      0.923324      0.723065      0.580969
ITEM: TIMESTEP
1804
ITEM: NUMBER OF ATOMS
16
ITEM: BOX BOUNDS xy xz yz  pp  pp  pp
     -0.300000      4.040544      0.000000
     -0.300000      4.040544      0.000000
     -0.300000      2.769228      0.000000
ITEM: ATOMS id type xs ys zs
     1     1      0.218274      0.222829      0.172164
     2     1      0.651432      0.261887      0.616258
     3     1      0.317419      0.799959      0.513515
     4     1      0.823222      0.711097      1.037784
     5     2      0.862121      1.027536      0.192553
     6     2      0.531460      1.018244      1.049006
     7     2      0.989993      0.465120      0.236577
     8     2      0.504178      0.700373      1.040625
     9     2      0.923462      0.229477      0.764655
    10     2      0.387809      1.054269      0.760997
    11     2      0.168584      0.493050      0.700826
    12     2      0.497575      0.521837      0.444916
    13     2      0.161514      0.328759      0.657947
    14     2      0.857292      0.152513      0.105698
    15     2      0.323130      0.671159      1.046998
    16     2      0.923277      0.722868      0.580951
ITEM: TIMESTEP
1805
ITEM: NUMBER OF ATOMS
16
ITEM: BOX BOUNDS xy xz yz  pp  pp  pp
     -0.300000      4.040544      0.000000
     -0.300000      4.040544      0.000000
     -0.300000      2.769228      0.000000
ITEM: ATOMS id type xs ys zs
     1     1      0.218520      0.222829      0.172412
     2     1      0.651716      0.262073      0.615933
     3     1      0.317062      0.799254      0.513656
     4     1      0.823583      0.710452      1.037537
     5     2      0.861816      1.027226      0.192508
     6     2      0.531246      1.018473      1.049045
     7     2      0.989866      0.465352      0.236499
     8     2      0.503913      0.700813      1.041573
     9     2      0.923992      0.229293      0.764832
    10     2      0.387636      1.054434      0.761088
    11     2      0.168411      0.492894      0.700291
    12     2      0.497468      0.522174      0.445573
    13     2      0.161532      0.328991      0.658276
    14     2      0.856892      0.152491      0.106519
    15     2      0.323264      0.671423      1.046795
    16     2      0.923555      0.722784      0.580846
ITEM: TIMESTEP
1806
ITEM: NUMBER OF ATOMS
16
ITEM: BOX BOUNDS xy xz yz  pp  pp  pp
     -0.300000      4.040544      0.000000
     -0.300000      4.040544      0.000000
     -0.300000      2.769228      0.000000
ITEM: ATOMS id type xs ys zs
     1     1      0.218287      0.222938      0.171961
     2     1      0.651685      0.262422      0.616191
     3     1      0.316228      0.798816      0.513502
     4     1      0.823344      0.709653      1.036474
     5     2      0.861575      1.027269      0.191769
     6     2      0.531785      1.019266      1.048608
     7     2      0.989857      0.465381      0.237052
     8     2      0.504062      0.701113      1.041430
     9     2      0.924698      0.228914      0.765031
    10     2      0.387891      1.054655      0.761641
    11     2      0.168416      0.492647      0.699207
    12     2      0.497484      0.521906      0.446220
    13     2      0.161709      0.328504      0.658483
    14     2      0.856716      0.152955      0.106957
    15     2      0.323273      0.671841      1.046534
    16     2      0.923167      0.723115      0.580539
ITEM: TIMESTEP
1807
ITEM: NUMBER OF ATOMS
16
ITEM: BOX BOUNDS xy xz yz  pp  pp  pp
     -0.300000      4.040544      0.000000
     -0.300000      4.040544      0.000000
     -0.300000      2.769228      0.000000
ITEM: ATOMS id type xs ys zs
     1     1      0.217925      0.223547      0.171509
     2     1      0.651494      0.262707      0.615938
     3     1      0.316042      0.798980      0.514005
     4     1      0.823186      0.709112      1.036588
     5     2      0.861103      1.026787      0.191450
     6     2      0.531605      1.019496      1.048717
     7     2      0.989831      0.466166      0.236769
     8     2      0.504168      0.701092      1.041157
     9     2      0.925006      0.228511      0.764890
    10     2      0.387660      1.054187      0.762725
    11     2      0.168166      0.492420      0.698509
    12     2      0.497946      0.521537      0.446012
    13     2      0.162470      0.328035      0.658533
    14     2      0.856758      0.153108      0.106951
    15     2      0.323556      0.672241      1.045818
    16     2      0.922545      0.722724      0.580722
ITEM: TIMESTEP
1808
ITEM: NUMBER OF ATOMS
16
ITEM: BOX BOUNDS xy xz yz  pp  pp  pp
     -0.300000      4.040544      0.000000
     -0.300000      4.040544      0.000000
     -0.300000      2.769228      0.000000
ITEM: ATOMS id type xs ys zs
     1     1      0.218147      0.224054      0.172161
     2     1      0.651093      0.262850      0.615605
     3     1      0.315374      0.799257      0.513523
     4     1      0.822900      0.708593      1.036506
     5     2      0.861132      1.026366      0.191733
     6     2      0.530708      1.019333      1.049350
     7     2      0.990067      0.465843      0.236276
     8     2      0.504306      0.701465      1.041019
     9     2      0.925448      0.228228      0.764836
    10     2      0.387229      1.054964      0.763048
    11     2      0.167932      0.492355      0.698484
    12     2      0.498326      0.521785      0.446687
    13     2      0.163127      0.328014      0.658351
    14     2      0.856581      0.153174      0.106190
    15     2      0.323893      0.672491      1.045781
    16     2      0.923056      0.722408      0.580345
ITEM: TIMESTEP
1809
ITEM: NUMBER OF ATOMS
16
ITEM: BOX BOUNDS xy xz yz  pp  pp  pp
     -0.300000      4.040544      0.000000
     -0.300000      4.040544      0.000000
     -0.300000      2.769228      0.000000
ITEM: ATOMS id type xs ys zs
     1     1      0.218514      0.224342      0.172334
     2     1      0.650866      0.263439      0.614727
     3     1      0.315479      0.798761      0.514455
     4     1      0.823410      0.708214      1.036289
     5     2      0.862179      1.025758      0.191385
     6     2      0.530816      1.018997      1.049115
     7     2      0.990118      0.466166      0.236180
     8     2      0.503673      0.701774      1.041173
     9     2      0.926057      0.228506      0.765655
    10     2      0.387379      1.055235      0.763180
    11     2      0.167544      0.491985      0.697712
    12     2      0.497929      0.522184      0.446885
    13     2      0.162956      0.327483      0.658606
    14     2      0.856478      0.153492      0.106379
    15     2      0.324128      0.671978      1.046045
    16     2      0.922898      0.722666      0.580675
ITEM: TIMESTEP
1810
ITEM: NUMBER OF ATOMS
16
ITEM: BOX BOUNDS xy xz yz  pp  pp  pp
     -0.300000      4.040544      0.000000
     -0.300000      4.040544      0.000000
     -0.300000      2.769228      0.000000
ITEM: ATOMS id type xs ys zs
     1     1      0.218866      0.224320      0.172451
     2     1      0.650958      0.263844      0.614567
     3     1      0.316236      0.799319      0.514677
     4     1      0.823489      0.707478      1.035636
     5     2      0.862038      1.025788      0.191102
     6     2      0.530428      1.019456      1.048989
     7     2      0.989960      0.465925      0.235445
     8     2      0.503413      0.701487      1.041204
     9     2      0.926442      0.228719      0.765259
    10     2      0.387455      1.055419      0.763461
    11     2      0.167227      0.491801      0.697636
    12     2      0.498029      0.522577      0.446855
    13     2      0.162408      0.326835      0.658946
    14     2      0.855985      0.153617      0.106253
    15     2      0.323907      0.671887      1.045853
    16     2      0.922582      0.722605      0.581629
ITEM: TIMESTEP
1811
ITEM: NUMBER OF ATOMS
16
ITEM: BOX BOUNDS xy xz yz  pp  pp  pp
     -0.300000      4.040544      0.000000
     -0.300000      4.040544      0.000000
     -0.300000      2.769228      0.000000
ITEM: ATOMS id type xs ys zs
     1     1      0.218834      0.224710      0.172581
     2     1      0.650410      0.264254      0.614257
     3     1      0.316272      0.799070      0.514490
     4     1      0.823088      0.707892      1.035228
     5     2      0.861845      1.025543      0.191030
     6     2      0.530750      1.019880      1.048643
     7     2      0.990396      0.465946      0.234724
     8     2      0.502913      0.701913      1.040878
     9     2      0.927092      0.228313      0.765682
    10     2      0.387268      1.054750      0.762895
    11     2      0.167139      0.491981      0.696885
    12     2      0.497966      0.522514      0.446858
    13     2      0.162088      0.326701      0.659218
    14     2      0.855623      0.153751      0.105912
    15     2      0.323503      0.672122      1.046087
    16     2      0.922605      0.722250      0.581518
ITEM: TIMESTEP
1812
ITEM: NUMBER OF ATOMS
16
ITEM: BOX BOUNDS xy xz yz  pp  pp  pp
     -0.300000      4.040544      0.000000
     -0.300000      4.040544      0.000000
     -0.300000      2.769228      0.000000
ITEM: ATOMS id type xs ys zs
     1     1      0.219326      0.224710      0.171303
     2     1      0.650178      0.263691      0.614710
     3     1      0.315765      0.799304      0.514142
     4     1      0.822161      0.707443      1.035025
     5     2      0.861711      1.025579      0.191136
     6     2      0.530649      1.019752      1.048539
     7     2      0.990073      0.466000      0.235211
     8     2      0.502760      0.701374      1.041602
     9     2      0.927554      0.228964      0.764883
    10     2      0.388260      1.055184      0.763565
    11     2      0.166855      0.491370      0.696775
    12     2      0.497769      0.522986      0.446421
    13     2      0.161752      0.326728      0.659053
    14     2      0.855310      0.153983      0.105871
    15     2      0.323163      0.672155      1.046913
    16     2      0.921902      0.722281      0.581721
ITEM: TIMESTEP
1813
ITEM: NUMBER OF ATOMS
16
ITEM: BOX BOUNDS xy xz yz  pp  pp  pp
     -0.300000      4.040544      0.000000
     -0.300000      4.040544      0.000000
     -0.300000      2.769228      0.000000
ITEM: ATOMS id type xs ys zs
     1     1      0.219275      0.224912      0.171997
     2     1      0.650273      0.263918      0.614897
     3     1      0.315910      0.799191      0.514285
     4     1      0.821759      0.706935      1.034694
     5     2      0.861684      1.024870      0.190377
     6     2      0.530777      1.019669      1.049325
     7     2      0.989288      0.465832      0.235146
     8     2      0.502635      0.701385      1.040955
     9     2      0.928513      0.228393      0.765334
    10     2      0.387993      1.054934      0.763742
    11     2      0.166468      0.491209      0.696870
    12     2      0.497760      0.523133      0.446938
    13     2      0.161811      0.326512      0.659554
    14     2      0.855214      0.154431      0.106159
    15     2      0.322865      0.671803      1.046917
    16     2      0.922189      0.722600      0.582098
ITEM: TIMESTEP
1814
ITEM: NUMBER OF ATOMS
16
ITEM: BOX BOUNDS xy xz yz  pp  pp  pp
     -0.300000      4.040544      0.000000
     -0.300000      4.040544      0.000000
     -0.300000      2.769228      0.000000
ITEM: ATOMS id type xs ys zs
     1     1      0.219597      0.224944      0.171839
     2     1      0.650434      0.264164      0.614969
     3     1      0.315865      0.798669      0.514683
     4     1      0.821535      0.706623      1.034448
     5     2      0.862189      1.025251      0.189741
     6     2      0.531341      1.019565      1.049439
     7     2      0.989821      0.465508      0.234950
     8     2      0.502504      0.700991      1.040894
     9     2      0.929380      0.228062      0.765335
    10     2      0.387942      1.055444      0.763957
    11     2      0.166548      0.491347      0.697062
    12     2      0.497710      0.523501      0.446444
    13     2      0.162359      0.326602      0.660085
    14     2      0.855486      0.154912      0.105804
    15     2      0.322756      0.672054      1.047311
    16     2      0.921946      0.722490      0.582032
ITEM: TIMESTEP
1815
ITEM: NUMBER OF ATOMS
16
ITEM: BOX BOUNDS xy xz yz  pp  pp  pp
     -0.300000      4.040544      0.000000
     -0.300000      4.040544      0.000000
     -0.300000      2.769228      0.000000
ITEM: ATOMS id type xs ys zs
     1     1      0.219873      0.224912      0.172304
     2     1      0.650131      0.264190      0.614533
     3     1      0.315477      0.798755      0.515125
     4     1      0.821215      0.706545      1.034310
     5     2      0.862052      1.025607      0.189351
     6     2      0.531996      1.019812      1.049115
     7     2      0.989537      0.464602      0.234800
     8     2      0.502446      0.700968      1.041105
     9     2      0.929725      0.227465      0.765634
    10     2      0.387889      1.055515      0.764787
    11     2      0.166045      0.491045      0.696391
    12     2      0.497754      0.523569      0.446397
    13     2      0.162926      0.325967      0.660505
    14     2      0.855608      0.154994      0.106185
    15     2      0.323005      0.672111      1.047178
    16     2      0.921460      0.722898      0.582658
ITEM: TIMESTEP
1816
ITEM: NUMBER OF ATOMS
16
ITEM: BOX BOUNDS xy xz yz  pp  pp  pp
     -0.300000      4.040544      0.000000
     -0.300000      4.040544      0.000000
     -0.300000      2.769228      0.000000
ITEM: ATOMS id type xs ys zs
     1     1      0.220192      0.225609      0.171786
     2     1      0.650189      0.263827      0.614988
     3     1      0.315715      0.798901      0.515370
     4     1      0.821443      0.705641      1.034497
     5     2      0.862677      1.024988      0.188734
     6     2      0.532377      1.020049      1.048535
     7     2      0.989201      0.464827      0.235023
     8     2      0.502651      0.700889      1.041202
     9     2      0.929875      0.226947      0.765158
    10     2      0.388126      1.055438      0.765704
    11     2      0.166330      0.491582      0.695983
    12     2      0.497436      0.523224      0.446572
    13     2      0.162789      0.325411      0.660297
    14     2      0.855609      0.155150      0.106775
    15     2      0.323167      0.672554      1.046288
    16     2      0.920855      0.723151      0.582718
ITEM: TIMESTEP
1817
ITEM: NUMBER OF ATOMS
16
ITEM: BOX BOUNDS xy xz yz  pp  pp  pp
     -0.300000      4.040544      0.000000
     -0.300000      4.040544      0.000000
     -0.300000      2.769228      0.000000
ITEM: ATOMS id type xs ys zs
     1     1      0.220471      0.225641      0.172004
     2     1      0.650505      0.263614      0.615442
     3     1      0.315911      0.799184      0.515453
     4     1      0.821356      0.705311      1.034675
     5     2      0.862898      1.024505      0.188548
     6     2      0.532419      1.019897      1.048776
     7     2      0.989599      0.464422      0.235241
     8     2      0.502715      0.700937      1.040961
     9     2      0.930347      0.227107      0.765584
    10     2      0.387972      1.055534      0.766298
    11     2      0.166415      0.491413      0.695947
    12     2      0.497823      0.522711      0.446345
    13     2      0.163506      0.324721      0.661441
    14     2      0.855462      0.155435      0.106023
    15     2      0.323195      0.672357      1.045634
    16     2      0.920577      0.722951      0.583336
ITEM: TIMESTEP
1818
ITEM: NUMBER OF ATOMS
16
ITEM: BOX BOUNDS xy xz yz  pp  pp  pp
     -0.300000      4.040544      0.000000
     -0.300000      4.040544      0.000000
     -0.300000      2.769228      0.000000
ITEM: ATOMS id type xs ys zs
     1     1      0.220869      0.226113      0.171878
     2     1      0.650014      0.263621      0.615413
     3     1      0.315911      0.798409      0.515100
     4     1      0.821183      0.704813      1.034052
     5     2      0.862843      1.024612      0.188624
     6     2      0.532650      1.019854      1.048876
     7     2      0.989569      0.464854      0.235507
     8     2      0.502840      0.700581      1.040526
     9     2      0.931132      0.226923      0.765957
    10     2      0.388131      1.055922      0.766919
    11     2      0.166194      0.492088      0.695169
    12     2      0.497964      0.523002      0.447100
    13     2      0.163754      0.324628      0.661565
    14     2      0.855213      0.155907      0.106754
    15     2      0.323194      0.672852      1.044439
    16     2      0.920379      0.723394      0.583524
ITEM: TIMESTEP
1819
ITEM: NUMBER OF ATOMS
16
ITEM: BOX BOUNDS xy xz yz  pp  pp  pp
     -0.300000      4.040544      0.000000
     -0.300000      4.040544      0.000000
     -0.300000      2.769228      0.000000
ITEM: ATOMS id type xs ys zs
     1     1      0.221227      0.226303      0.172301
     2     1      0.649893      0.263822      0.615113
     3     1      0.315478      0.798231      0.515208
     4     1      0.821014      0.704182      1.034062
     5     2      0.863247      1.025018      0.188238
     6     2      0.533520      1.019681      1.048543
     7     2      0.990239      0.465108      0.235554
     8     2      0.502825      0.700870      1.040740
     9     2      0.931775      0.226569      0.766096
    10     2      0.388648      1.056504      0.766819
    11     2      0.166046      0.492108      0.694798
    12     2      0.498196      0.523268      0.447797
    13     2      0.163637      0.324287      0.661020
    14     2      0.854967      0.155999      0.107185
    15     2      0.323082      0.673307      1.044927
    16     2      0.920640      0.723254      0.583474
ITEM: TIMESTEP
1820
ITEM: NUMBER OF ATOMS
16
ITEM: BOX BOUNDS xy xz yz  pp  pp  pp
     -0.300000      4.040544      0.000000
     -0.300000      4.040544      0.000000
     -0.300000      2.769228      0.000000
ITEM: ATOMS id type xs ys zs
     1     1      0.221611      0.226919      0.172035
     2     1      0.649802      0.264150      0.614788
     3     1      0.315556      0.798038      0.515387
     4     1      0.820718      0.704374      1.033014
     5     2      0.863471      1.024905      0.188045
     6     2      0.532863      1.019692      1.048489
     7     2      0.990109      0.465260      0.235299
     8     2      0.502902      0.700734      1.041422
     9     2      0.932224      0.226105      0.766335
    10     2      0.388736      1.056286      0.766811
    11     2      0.165530      0.492024      0.695101
    12     2      0.498742      0.523262      0.447936
    13     2      0.164219      0.324096      0.661442
    14     2      0.855147      0.156237      0.107320
    15     2      0.322935      0.673815      1.045112
    16     2      0.921168      0.723455      0.583114
ITEM: TIMESTEP
1821
ITEM: NUMBER OF ATOMS
16
ITEM: BOX BOUNDS xy xz yz  pp  pp  pp
     -0.300000      4.040544      0.000000
     -0.300000      4.040544      0.000000
     -0.300000      2.769228      0.000000
ITEM: ATOMS id type xs ys zs
     1     1      0.222261      0.227483      0.172573
     2     1      0.650095      0.264694      0.613998
     3     1      0.315563      0.797948      0.515615
     4     1      0.819902      0.704325      1.033488
     5     2      0.863777      1.025475      0.187997
     6     2      0.532805      1.020079      1.048462
     7     2      0.989988      0.465018      0.234377
     8     2      0.502542      0.700449      1.041318
     9     2      0.932190      0.225530      0.766281
    10     2      0.388483      1.056267      0.767914
    11     2      0.165324      0.492515      0.694984
    12     2      0.498620      0.522933      0.446962
    13     2      0.164714      0.323897      0.661053
    14     2      0.855393      0.155636      0.106931
    15     2      0.322584      0.673887      1.045110
    16     2      0.920656      0.724088      0.582924
ITEM: TIMESTEP
1822
ITEM: NUMBER OF ATOMS
16
ITEM: BOX BOUNDS xy xz yz  pp  pp  pp
     -0.300000      4.040544      0.000000
     -0.300000      4.040544      0.000000
     -0.300000      2.769228      0.000000
ITEM: ATOMS id type xs ys zs
     1     1      0.222533      0.227833      0.172512
     2     1      0.650449      0.264710      0.613779
     3     1      0.315189      0.798000      0.515503
     4     1      0.819931      0.704385      1.033338
     5     2      0.864060      1.025768      0.187371
     6     2      0.532855      1.019889      1.048598
     7     2      0.990098      0.465003      0.234231
     8     2      0.501985      0.700127      1.041756
     9     2      0.932321      0.225717      0.765927
    10     2      0.388135      1.056512      0.768061
    11     2      0.165249      0.492379      0.693882
    12     2      0.499327      0.523320      0.446634
    13     2      0.164312      0.323916      0.661099
    14     2      0.855603      0.155854      0.106938
    15     2      0.321907      0.674078      1.044906
    16     2      0.920855      0.724154      0.582393
ITEM: TIMESTEP
1823
ITEM: NUMBER OF ATOMS
16
ITEM: BOX BOUNDS xy xz yz  pp  pp  pp
     -0.300000      4.040544      0.000000
     -0.300000      4.040544      0.000000
     -0.300000      2.769228      0.000000
ITEM: ATOMS id type xs ys zs
     1     1      0.222706      0.228439      0.173136
     2     1      0.650618      0.264757      0.613709
     3     1      0.314487      0.797809      0.514946
     4     1      0.820342      0.704422      1.033555
     5     2      0.864137      1.026369      0.187588
     6     2      0.532695      1.019585      1.048477
     7     2      0.989751      0.464997      0.234292
     8     2      0.502116      0.699676      1.042047
     9     2      0.932263      0.225742      0.766123
    10     2      0.388125      1.056274      0.767562
    11     2      0.165024      0.492665      0.693805
    12     2      0.499537      0.522936      0.446220
    13     2      0.164426      0.323497      0.661148
    14     2      0.855418      0.155173      0.106855
    15     2      0.321340      0.674438      1.044237
    16     2      0.920731      0.724032      0.582035
ITEM: TIMESTEP
1824
ITEM: NUMBER OF ATOMS
16
ITEM: BOX BOUNDS xy xz yz  pp  pp  pp
     -0.300000      4.040544      0.000000
     -0.300000      4.040544      0.000000
     -0.300000      2.769228      0.000000
ITEM: ATOMS id type xs ys zs
     1     1      0.222870      0.228830      0.172676
     2     1      0.650635      0.263945      0.614150
     3     1      0.314356      0.797494      0.515322
     4     1      0.819846      0.704431      1.034170
     5     2      0.864882      1.026585      0.186786
     6     2      0.532181      1.019522      1.048771
     7     2      0.989704      0.465150      0.235361
     8     2      0.502082      0.699818      1.043195
     9     2      0.932447      0.225356      0.766840
    10     2      0.387883      1.056490      0.767644
    11     2      0.164992      0.493220      0.692582
    12     2      0.499565      0.522789      0.446712
    13     2      0.165290      0.323059      0.661578
    14     2      0.854851      0.155367      0.107516
    15     2      0.321206      0.674692      1.043910
    16     2      0.920378      0.723460      0.582671
ITEM: TIMESTEP
1825
ITEM: NUMBER OF ATOMS
16
ITEM: BOX BOUNDS xy xz yz  pp  pp  pp
     -0.300000      4.040544      0.000000
     -0.300000      4.040544      0.000000
     -0.300000      2.769228      0.000000
ITEM: ATOMS id type xs ys zs
     1     1      0.223087      0.228969      0.171647
     2     1      0.650573      0.263907      0.613704
     3     1      0.313732      0.797830      0.515177
     4     1      0.819899      0.704914      1.033744
     5     2      0.865326      1.026558      0.186969
     6     2      0.532363      1.019307      1.048384
     7     2      0.990006      0.464899      0.235589
     8     2      0.502322      0.699932      1.043387
     9     2      0.932838      0.225351      0.765718
    10     2      0.387523      1.056590      0.767693
    11     2      0.165086      0.493066      0.692854
    12     2      0.499960      0.522888      0.446352
    13     2      0.165610      0.322283      0.662038
    14     2      0.854959      0.155196      0.107686
    15     2      0.321017      0.675102      1.043864
    16     2      0.920292      0.724158      0.581386
ITEM: TIMESTEP
1826
ITEM: NUMBER OF ATOMS
16
ITEM: BOX BOUNDS xy xz yz  pp  pp  pp
     -0.300000      4.040544      0.000000
     -0.300000      4.040544      0.000000
     -0.300000      2.769228      0.000000
ITEM: ATOMS id type xs ys zs
     1     1      0.223646      0.228957      0.172137
     2     1      0.650176      0.264076      0.614371
     3     1      0.313509      0.797460      0.515472
     4     1      0.819169      0.704779      1.032771
     5     2      0.865253      1.026438      0.187293
     6     2      0.531704      1.019626      1.047553
     7     2      0.990082      0.464505      0.235519
     8     2      0.502124      0.699557      1.042897
     9     2      0.932894      0.225600      0.765426
    10     2      0.387510      1.055935      0.767314
    11     2      0.165351      0.493365      0.692511
    12     2      0.499699      0.523439      0.445691
    13     2      0.165561      0.322353      0.661949
    14     2      0.855013      0.155294      0.108449
    15     2      0.321272      0.675455      1.043500
    16     2      0.920462      0.723726      0.581451
ITEM: TIMESTEP
1827
ITEM: NUMBER OF ATOMS
16
ITEM: BOX BOUNDS xy xz yz  pp  pp  pp
     -0.300000      4.040544      0.000000
     -0.300000      4.040544      0.000000
     -0.300000      2.769228      0.000000
ITEM: ATOMS id type xs ys zs
     1     1      0.223945      0.229733      0.171178
     2     1      0.650267      0.263367      0.613805
     3     1      0.313106      0.797091      0.515231
     4     1      0.819370      0.704532      1.032153
     5     2      0.865833      1.027016      0.186540
     6     2      0.531227      1.019602      1.047536
     7     2      0.990199      0.464700      0.235057
     8     2      0.501823      0.699826      1.042941
     9     2      0.933268      0.225602      0.764894
    10     2      0.387311      1.056521      0.767657
    11     2      0.165614      0.493514      0.692119