ITEM: TIMESTEP
1801
ITEM: NUMBER OF ATOMS
16
ITEM: BOX BOUNDS xy xz yz  pp  pp  pp
     -0.300000      4.040544      0.000000
     -0.300000      4.040544      0.000000
     -0.300000      2.769228      0.000000
ITEM: ATOMS id type xs ys zs
     1     1      0.218389      0.221668      0.171636
     2     1      0.651895      0.262137      0.616595
     3     1      0.318694      0.801004      0.514351
     4     1      0.822510      0.713387      0.037354
     5     2      0.861484      0.028850      0.193401
     6     2      0.531573      0.017467      0.048424
     7     2      0.990662      0.464050      0.235271
     8     2      0.504305      0.701520      0.040327
     9     2      0.922012      0.229341      0.766238
    10     2      0.386775      0.053213      0.761121
    11     2      0.169709      0.493403      0.703465
    12     2      0.497120      0.522245      0.446712
    13     2      0.161015      0.329905      0.656225
    14     2      0.857673      0.152295      0.103967
    15     2      0.322435      0.669569      0.046385
    16     2      0.923118      0.722966      0.580442
ITEM: TIMESTEP
1802
ITEM: NUMBER OF ATOMS
16
ITEM: BOX BOUNDS xy xz yz  pp  pp  pp
     -0.300000      4.040544      0.000000
     -0.300000      4.040544      0.000000
     -0.300000      2.769228      0.000000
ITEM: ATOMS id type xs ys zs
     1     1      0.218853      0.221743      0.171510
     2     1      0.651454      0.262420      0.616643
     3     1      0.317594      0.801158      0.514374
     4     1      0.822746      0.712435      0.037077
     5     2      0.861665      0.029024      0.193550
     6     2      0.532055      0.017586      0.048122
     7     2      0.990395      0.463697      0.235498
     8     2      0.504327      0.701789      0.039534
     9     2      0.922684      0.229083      0.766607
    10     2      0.386686      0.053407      0.761346
    11     2      0.169981      0.493831      0.702656
    12     2      0.497557      0.522557      0.446874
    13     2      0.161206      0.329526      0.655527
    14     2      0.858315      0.152623      0.104603
    15     2      0.322825      0.669974      0.045987
    16     2      0.923080      0.722630      0.580289
ITEM: TIMESTEP
1803
ITEM: NUMBER OF ATOMS
16
ITEM: BOX BOUNDS xy xz yz  pp  pp  pp
     -0.300000      4.040544      0.000000
     -0.300000      4.040544      0.000000
     -0.300000      2.769228      0.000000
ITEM: ATOMS id type xs ys zs
     1     1      0.218961      0.222183      0.171544
     2     1      0.651677      0.262472      0.616871
     3     1      0.317762      0.801027      0.515261
     4     1      0.822862      0.711683      0.036640
     5     2      0.861690      0.029238      0.193263
     6     2      0.532253      0.018358      0.048416
     7     2      0.990022      0.463625      0.235969
     8     2      0.504389      0.701113      0.039529
     9     2      0.923124      0.228854      0.766361
    10     2      0.387424      0.053824      0.761405
    11     2      0.170076      0.494373      0.702534
    12     2      0.497247      0.521884      0.447860
    13     2      0.161691      0.328931      0.655519
    14     2      0.858198      0.153018      0.104701
    15     2      0.322441      0.670405      0.045445
    16     2      0.922366      0.722692      0.580459
ITEM: TIMESTEP
1804
ITEM: NUMBER OF ATOMS
16
ITEM: BOX BOUNDS xy xz yz  pp  pp  pp
     -0.300000      4.040544      0.000000
     -0.300000      4.040544      0.000000
     -0.300000      2.769228      0.000000
ITEM: ATOMS id type xs ys zs
     1     1      0.219236      0.222235      0.171754
     2     1      0.651685      0.262692      0.616152
     3     1      0.317487      0.800946      0.515629
     4     1      0.822661      0.711294      0.036817
     5     2      0.861693      0.028662      0.192054
     6     2      0.532193      0.019066      0.048085
     7     2      0.989433      0.463392      0.237221
     8     2      0.504727      0.701113      0.039246
     9     2      0.923798      0.229021      0.766241
    10     2      0.387138      0.053745      0.761834
    11     2      0.169542      0.494464      0.702216
    12     2      0.497787      0.521507      0.447579
    13     2      0.162324      0.329765      0.655944
    14     2      0.857561      0.153159      0.104740
    15     2      0.322849      0.671135      0.045828
    16     2      0.922146      0.722994      0.581332
ITEM: TIMESTEP
1805
ITEM: NUMBER OF ATOMS
16
ITEM: BOX BOUNDS xy xz yz  pp  pp  pp
     -0.300000      4.040544      0.000000
     -0.300000      4.040544      0.000000
     -0.300000      2.769228      0.000000
ITEM: ATOMS id type xs ys zs
     1     1      0.219322      0.222398      0.171870
     2     1      0.651369      0.262857      0.615513
     3     1      0.317389      0.801187      0.515556
     4     1      0.822719      0.710806      0.037133
     5     2      0.862047      0.028215      0.192468
     6     2      0.532269      0.019376      0.048272
     7     2      0.989274      0.463745      0.237944
     8     2      0.504669      0.701191      0.039089
     9     2      0.924039      0.228755      0.766713
    10     2      0.387264      0.053258      0.761862
    11     2      0.169772      0.494457      0.702125
    12     2      0.497866      0.521541      0.448016
    13     2      0.162517      0.329826      0.655104
    14     2      0.857619      0.153126      0.104280
    15     2      0.322629      0.671061      0.045557
    16     2      0.922296      0.723167      0.581141
ITEM: TIMESTEP
1806
ITEM: NUMBER OF ATOMS
16
ITEM: BOX BOUNDS xy xz yz  pp  pp  pp
     -0.300000      4.040544      0.000000
     -0.300000      4.040544      0.000000
     -0.300000      2.769228      0.000000
ITEM: ATOMS id type xs ys zs
     1     1      0.219334      0.222457      0.172041
     2     1      0.651419      0.263424      0.614400
     3     1      0.317431      0.800852      0.515855
     4     1      0.823077      0.710651      0.036717
     5     2      0.862223      0.028736      0.191166
     6     2      0.532361      0.020018      0.048346
     7     2      0.989339      0.463620      0.237872
     8     2      0.504988      0.701839      0.038858
     9     2      0.924679      0.228078      0.766481
    10     2      0.387268      0.053629      0.761066
    11     2      0.169756      0.494005      0.701397
    12     2      0.497260      0.521871      0.448583
    13     2      0.162813      0.329347      0.654448
    14     2      0.857763      0.153273      0.103861
    15     2      0.322440      0.670910      0.045466
    16     2      0.922501      0.723113      0.581335
ITEM: TIMESTEP
1807
ITEM: NUMBER OF ATOMS
16
ITEM: BOX BOUNDS xy xz yz  pp  pp  pp
     -0.300000      4.040544      0.000000
     -0.300000      4.040544      0.000000
     -0.300000      2.769228      0.000000
ITEM: ATOMS id type xs ys zs
     1     1      0.218798      0.222589      0.171540
     2     1      0.650779      0.264247      0.613750
     3     1      0.317434      0.801007      0.516051
     4     1      0.822817      0.710552      0.036454
     5     2      0.862432      0.029179      0.190334
     6     2      0.532397      0.020579      0.048656
     7     2      0.989443      0.463911      0.236809
     8     2      0.504711      0.701666      0.039079
     9     2      0.925280      0.227515      0.767589
    10     2      0.387289      0.053836      0.761241
    11     2      0.169458      0.493559      0.701646
    12     2      0.497389      0.522175      0.449278
    13     2      0.162569      0.328899      0.654660
    14     2      0.857621      0.153375      0.104005
    15     2      0.322105      0.670420      0.045359
    16     2      0.922650      0.722747      0.581234
ITEM: TIMESTEP
1808
ITEM: NUMBER OF ATOMS
16
ITEM: BOX BOUNDS xy xz yz  pp  pp  pp
     -0.300000      4.040544      0.000000
     -0.300000      4.040544      0.000000
     -0.300000      2.769228      0.000000
ITEM: ATOMS id type xs ys zs
     1     1      0.219027      0.222357      0.170663
     2     1      0.650555      0.263738      0.613548
     3     1      0.317666      0.800536      0.516115
     4     1      0.822685      0.710362      0.035923
     5     2      0.861916      0.028751      0.190030
     6     2      0.532155      0.020922      0.048465
     7     2      0.989275      0.464694      0.237421
     8     2      0.504302      0.701699      0.039498
     9     2      0.924908      0.227451      0.766762
    10     2      0.387280      0.054058      0.761953
    11     2      0.169312      0.493307      0.700639
    12     2      0.497090      0.522482      0.449647
    13     2      0.162791      0.328896      0.654743
    14     2      0.857757      0.153515      0.103601
    15     2      0.321790      0.670673      0.044864
    16     2      0.922750      0.722487      0.582217
ITEM: TIMESTEP
1809
ITEM: NUMBER OF ATOMS
16
ITEM: BOX BOUNDS xy xz yz  pp  pp  pp
     -0.300000      4.040544      0.000000
     -0.300000      4.040544      0.000000
     -0.300000      2.769228      0.000000
ITEM: ATOMS id type xs ys zs
     1     1      0.218870      0.222925      0.170576
     2     1      0.650804      0.263978      0.612879
     3     1      0.317277      0.800135      0.515981
     4     1      0.822631      0.710058      0.035549
     5     2      0.861636      0.029031      0.189353
     6     2      0.531923      0.021551      0.049263
     7     2      0.989947      0.464687      0.237424
     8     2      0.504481      0.701265      0.039256
     9     2      0.925337      0.227653      0.766971
    10     2      0.387120      0.054103      0.761634
    11     2      0.169027      0.493187      0.699875
    12     2      0.497013      0.522384      0.449939
    13     2      0.162889      0.328035      0.654391
    14     2      0.856912      0.154071      0.102699
    15     2      0.321783      0.670989      0.045005
    16     2      0.922559      0.722309      0.581353
ITEM: TIMESTEP
1810
ITEM: NUMBER OF ATOMS
16
ITEM: BOX BOUNDS xy xz yz  pp  pp  pp
     -0.300000      4.040544      0.000000
     -0.300000      4.040544      0.000000
     -0.300000      2.769228      0.000000
ITEM: ATOMS id type xs ys zs
     1     1      0.219263      0.222834      0.170296
     2     1      0.650843      0.263895      0.612150
     3     1      0.317317      0.799956      0.515826
     4     1      0.822376      0.709724      0.036065
     5     2      0.861655      0.029417      0.189765
     6     2      0.531849      0.021078      0.049118
     7     2      0.988917      0.464840      0.236613
     8     2      0.504531      0.701152      0.039275
     9     2      0.925651      0.227341      0.767628
    10     2      0.387211      0.054506      0.761871
    11     2      0.169086      0.493061      0.699586
    12     2      0.497188      0.522620      0.450080
    13     2      0.163303      0.328169      0.654658
    14     2      0.857191      0.154815      0.102604
    15     2      0.321794      0.671316      0.045625
    16     2      0.922602      0.722280      0.581916
ITEM: TIMESTEP
1811
ITEM: NUMBER OF ATOMS
16
ITEM: BOX BOUNDS xy xz yz  pp  pp  pp
     -0.300000      4.040544      0.000000
     -0.300000      4.040544      0.000000
     -0.300000      2.769228      0.000000
ITEM: ATOMS id type xs ys zs
     1     1      0.219302      0.223013      0.170121
     2     1      0.650844      0.263807      0.612063
     3     1      0.317008      0.799800      0.515612
     4     1      0.822927      0.709058      0.035517
     5     2      0.861939      0.029587      0.188132
     6     2      0.531447      0.020915      0.048946
     7     2      0.988710      0.464942      0.237304
     8     2      0.504292      0.701102      0.039703
     9     2      0.925741      0.226927      0.767491
    10     2      0.387371      0.054514      0.762344
    11     2      0.168376      0.492909      0.698607
    12     2      0.497183      0.522677      0.449989
    13     2      0.163403      0.328122      0.655255
    14     2      0.857071      0.155016      0.102912
    15     2      0.321382      0.671819      0.045611
    16     2      0.922749      0.722077      0.582318
ITEM: TIMESTEP
1812
ITEM: NUMBER OF ATOMS
16
ITEM: BOX BOUNDS xy xz yz  pp  pp  pp
     -0.300000      4.040544      0.000000
     -0.300000      4.040544      0.000000
     -0.300000      2.769228      0.000000
ITEM: ATOMS id type xs ys zs
     1     1      0.219648      0.222918      0.170144
     2     1      0.651043      0.263519      0.612597
     3     1      0.316873      0.799982      0.515122
     4     1      0.823070      0.708869      0.035458
     5     2      0.861512      0.029841      0.187196
     6     2      0.531140      0.020924      0.049186
     7     2      0.988974      0.465387      0.237310
     8     2      0.504248      0.700857      0.040549
     9     2      0.927246      0.226662      0.767167
    10     2      0.387332      0.054369      0.762628
    11     2      0.168862      0.493135      0.698784
    12     2      0.497362      0.523087      0.449432
    13     2      0.163539      0.327452      0.655876
    14     2      0.856117      0.155025      0.103030
    15     2      0.321091      0.672235      0.044796
    16     2      0.923443      0.722024      0.582303
ITEM: TIMESTEP
1813
ITEM: NUMBER OF ATOMS
16
ITEM: BOX BOUNDS xy xz yz  pp  pp  pp
     -0.300000      4.040544      0.000000
     -0.300000      4.040544      0.000000
     -0.300000      2.769228      0.000000
ITEM: ATOMS id type xs ys zs
     1     1      0.219462      0.222808      0.169451
     2     1      0.650788      0.263523      0.612296
     3     1      0.316679      0.800047      0.514531
     4     1      0.822626      0.708438      0.034970
     5     2      0.861808      0.029906      0.187380
     6     2      0.530716      0.021317      0.049359
     7     2      0.989110      0.465108      0.237693
     8     2      0.504226      0.700295      0.039892
     9     2      0.927971      0.226259      0.767554
    10     2      0.387744      0.054607      0.763053
    11     2      0.168828      0.492617      0.699620
    12     2      0.496868      0.523383      0.449238
    13     2      0.163348      0.326967      0.655891
    14     2      0.855793      0.155166      0.102801
    15     2      0.321094      0.672578      0.045127
    16     2      0.923312      0.721550      0.582386
ITEM: TIMESTEP
1814
ITEM: NUMBER OF ATOMS
16
ITEM: BOX BOUNDS xy xz yz  pp  pp  pp
     -0.300000      4.040544      0.000000
     -0.300000      4.040544      0.000000
     -0.300000      2.769228      0.000000
ITEM: ATOMS id type xs ys zs
     1     1      0.219407      0.223223      0.170000
     2     1      0.650332      0.263601      0.611960
     3     1      0.316301      0.799687      0.515173
     4     1      0.822849      0.708271      0.033977
     5     2      0.862224      0.029758      0.187841
     6     2      0.530679      0.021267      0.049466
     7     2      0.989378      0.465378      0.238705
     8     2      0.504685      0.700675      0.039406
     9     2      0.928491      0.226007      0.767046
    10     2      0.388042      0.054753      0.762851
    11     2      0.168658      0.492599      0.699476
    12     2      0.496508      0.523042      0.449314
    13     2      0.163501      0.326628      0.655504
    14     2      0.855774      0.155345      0.103238
    15     2      0.320657      0.672471      0.045746
    16     2      0.922845      0.721635      0.581883
ITEM: TIMESTEP
1815
ITEM: NUMBER OF ATOMS
16
ITEM: BOX BOUNDS xy xz yz  pp  pp  pp
     -0.300000      4.040544      0.000000
     -0.300000      4.040544      0.000000
     -0.300000      2.769228      0.000000
ITEM: ATOMS id type xs ys zs
     1     1      0.219252      0.223216      0.170627
     2     1      0.650628      0.264322      0.612051
     3     1      0.316771      0.799204      0.515764
     4     1      0.822495      0.708462      0.033296
     5     2      0.862014      0.029944      0.186853
     6     2      0.530904      0.021022      0.048848
     7     2      0.989441      0.464920      0.239247
     8     2      0.504979      0.701080      0.039566
     9     2      0.929650      0.225911      0.766794
    10     2      0.388079      0.054315      0.762572
    11     2      0.168138      0.492592      0.698863
    12     2      0.496600      0.522903      0.450592
    13     2      0.163524      0.326070      0.655964
    14     2      0.855831      0.155470      0.103722
    15     2      0.320591      0.672488      0.046039
    16     2      0.922597      0.721079      0.582289
ITEM: TIMESTEP
1816
ITEM: NUMBER OF ATOMS
16
ITEM: BOX BOUNDS xy xz yz  pp  pp  pp
     -0.300000      4.040544      0.000000
     -0.300000      4.040544      0.000000
     -0.300000      2.769228      0.000000
ITEM: ATOMS id type xs ys zs
     1     1      0.219250      0.223363      0.171184
     2     1      0.650894      0.264692      0.611565
     3     1      0.316352      0.798974      0.516526
     4     1      0.822818      0.708025      0.032525
     5     2      0.862012      0.029432      0.186507
     6     2      0.530249      0.021261      0.049148
     7     2      0.989467      0.465012      0.239288
     8     2      0.504953      0.700867      0.040001
     9     2      0.930171      0.225791      0.766378
    10     2      0.388562      0.054129      0.762678
    11     2      0.167981      0.492360      0.698649
    12     2      0.496216      0.523206      0.450363
    13     2      0.164052      0.325676      0.655470
    14     2      0.855159      0.155791      0.103963
    15     2      0.320515      0.672863      0.046364
    16     2      0.922048      0.721099      0.582834
ITEM: TIMESTEP
1817
ITEM: NUMBER OF ATOMS
16
ITEM: BOX BOUNDS xy xz yz  pp  pp  pp
     -0.300000      4.040544      0.000000
     -0.300000      4.040544      0.000000
     -0.300000      2.769228      0.000000
ITEM: ATOMS id type xs ys zs
     1     1      0.219224      0.223353      0.171063
     2     1      0.650348      0.264504      0.611610
     3     1      0.316338      0.799125      0.516001
     4     1      0.822183      0.708524      0.032695
     5     2      0.862264      0.029207      0.185839
     6     2      0.530403      0.022003      0.049962
     7     2      0.989660      0.464993      0.238657
     8     2      0.504631      0.701155      0.040063
     9     2      0.931078      0.226287      0.766636
    10     2      0.388358      0.054227      0.762270
    11     2      0.167696      0.492211      0.698412
    12     2      0.496245      0.523346      0.450047
    13     2      0.163538      0.324996      0.655179
    14     2      0.854688      0.156139      0.104465
    15     2      0.320876      0.673634      0.046153
    16     2      0.921849      0.721030      0.582534
ITEM: TIMESTEP
1818
ITEM: NUMBER OF ATOMS
16
ITEM: BOX BOUNDS xy xz yz  pp  pp  pp
     -0.300000      4.040544      0.000000
     -0.300000      4.040544      0.000000
     -0.300000      2.769228      0.000000
ITEM: ATOMS id type xs ys zs
     1     1      0.219644      0.223288      0.171205
     2     1      0.650616      0.265076      0.611026
     3     1      0.316010      0.798989      0.516498
     4     1      0.822063      0.708082      0.033192
     5     2      0.862246      0.029023      0.185285
     6     2      0.529783      0.021552      0.049589
     7     2      0.990230      0.465349      0.239619
     8     2      0.504481      0.701394      0.040106
     9     2      0.931196      0.226390      0.766810
    10     2      0.388467      0.054788      0.763341
    11     2      0.167853      0.492453      0.697653
    12     2      0.496303      0.523465      0.449088
    13     2      0.163184      0.324728      0.655877
    14     2      0.854690      0.155825      0.104662
    15     2      0.320341      0.673757      0.046367
    16     2      0.921728      0.721098      0.582895
ITEM: TIMESTEP
1819
ITEM: NUMBER OF ATOMS
16
ITEM: BOX BOUNDS xy xz yz  pp  pp  pp
     -0.300000      4.040544      0.000000
     -0.300000      4.040544      0.000000
     -0.300000      2.769228      0.000000
ITEM: ATOMS id type xs ys zs
     1     1      0.219550      0.223716      0.171659
     2     1      0.650645      0.265809      0.610810
     3     1      0.316206      0.799478      0.517374
     4     1      0.822076      0.707680      0.031839
     5     2      0.862214      0.029235      0.185770
     6     2      0.529902      0.021844      0.049486
     7     2      0.989930      0.465575      0.240324
     8     2      0.504465      0.700856      0.039516
     9     2      0.931120      0.226885      0.766947
    10     2      0.388900      0.054425      0.763126
    11     2      0.167832      0.492344      0.697148
    12     2      0.496071      0.523506      0.449256
    13     2      0.163469      0.323897      0.655224
    14     2      0.854634      0.155711      0.103818
    15     2      0.320235      0.674398      0.045600
    16     2      0.921328      0.721082      0.582671
ITEM: TIMESTEP
1820
ITEM: NUMBER OF ATOMS
16
ITEM: BOX BOUNDS xy xz yz  pp  pp  pp
     -0.300000      4.040544      0.000000
     -0.300000      4.040544      0.000000
     -0.300000      2.769228      0.000000
ITEM: ATOMS id type xs ys zs
     1     1      0.219867      0.223902      0.171362
     2     1      0.651007      0.265645      0.611206
     3     1      0.315595      0.798646      0.517198
     4     1      0.822159      0.706884      0.031324
     5     2      0.861915      0.028758      0.185552
     6     2      0.529871      0.022100      0.049880
     7     2      0.990084      0.465211      0.240431
     8     2      0.504361      0.700549      0.038412
     9     2      0.931322      0.226887      0.766915
    10     2      0.389206      0.054978      0.762884
    11     2      0.167738      0.492209      0.696691
    12     2      0.496251      0.523657      0.449439
    13     2      0.164110      0.323575      0.656562
    14     2      0.854375      0.155901      0.104062
    15     2      0.319626      0.674894      0.045137
    16     2      0.921227      0.720896      0.583453
ITEM: TIMESTEP
1821
ITEM: NUMBER OF ATOMS
16
ITEM: BOX BOUNDS xy xz yz  pp  pp  pp
     -0.300000      4.040544      0.000000
     -0.300000      4.040544      0.000000
     -0.300000      2.769228      0.000000
ITEM: ATOMS id type xs ys zs
     1     1      0.219511      0.224048      0.172284
     2     1      0.651274      0.265533      0.612091
     3     1      0.315488      0.798436      0.516777
     4     1      0.822579      0.707131      0.030700
     5     2      0.861915      0.029187      0.184382
     6     2      0.530223      0.021966      0.050585
     7     2      0.989888      0.465645      0.240536
     8     2      0.504048      0.700268      0.038894
     9     2      0.932124      0.226444      0.767401
    10     2      0.389195      0.055046      0.763973
    11     2      0.167331      0.492122      0.696780
    12     2      0.496263      0.523903      0.450434
    13     2      0.164091      0.323427      0.657224
    14     2      0.853482      0.155734      0.104509
    15     2      0.319653      0.675452      0.044806
    16     2      0.921362      0.721386      0.583455
ITEM: TIMESTEP
1822
ITEM: NUMBER OF ATOMS
16
ITEM: BOX BOUNDS xy xz yz  pp  pp  pp
     -0.300000      4.040544      0.000000
     -0.300000      4.040544      0.000000
     -0.300000      2.769228      0.000000
ITEM: ATOMS id type xs ys zs
     1     1      0.219852      0.224576      0.172308
     2     1      0.651621      0.265279      0.612156
     3     1      0.315309      0.798263      0.517401
     4     1      0.822360      0.706290      0.030505
     5     2      0.861976      0.028974      0.184335
     6     2      0.529964      0.022246      0.051027
     7     2      0.989388      0.465673      0.241511
     8     2      0.504109      0.700258      0.039177
     9     2      0.932669      0.226467      0.766830
    10     2      0.389832      0.055049      0.764149
    11     2      0.166983      0.492676      0.696208
    12     2      0.495943      0.523657      0.450689
    13     2      0.164210      0.322608      0.657419
    14     2      0.853143      0.156089      0.104532
    15     2      0.319313      0.675377      0.044875
    16     2      0.921673      0.721333      0.583363
ITEM: TIMESTEP
1823
ITEM: NUMBER OF ATOMS
16
ITEM: BOX BOUNDS xy xz yz  pp  pp  pp
     -0.300000      4.040544      0.000000
     -0.300000      4.040544      0.000000
     -0.300000      2.769228      0.000000
ITEM: ATOMS id type xs ys zs
     1     1      0.219814      0.225096      0.172905
     2     1      0.651854      0.265862      0.611789
     3     1      0.315713      0.798012      0.517384
     4     1      0.822374      0.706478      0.029442
     5     2      0.861862      0.028678      0.184391
     6     2      0.530149      0.021725      0.051486
     7     2      0.989091      0.465367      0.241323
     8     2      0.504322      0.699858      0.038965
     9     2      0.932819      0.225963      0.767082
    10     2      0.389919      0.054739      0.764935
    11     2      0.167378      0.492285      0.696249
    12     2      0.495952      0.524191      0.450799
    13     2      0.164801      0.322355      0.657617
    14     2      0.853401      0.157031      0.104914
    15     2      0.318826      0.675716      0.044920
    16     2      0.921688      0.721783      0.582813
ITEM: TIMESTEP
1824
ITEM: NUMBER OF ATOMS
16
ITEM: BOX BOUNDS xy xz yz  pp  pp  pp
     -0.300000      4.040544      0.000000
     -0.300000      4.040544      0.000000
     -0.300000      2.769228      0.000000
ITEM: ATOMS id type xs ys zs
     1     1      0.219537      0.225751      0.172434
     2     1      0.651448      0.265984      0.612329
     3     1      0.315802      0.797921      0.516975
     4     1      0.821742      0.706311      0.029545
     5     2      0.861926      0.028795      0.184487
     6     2      0.529873      0.022185      0.050870
     7     2      0.988929      0.465672      0.241808
     8     2      0.504647      0.699727      0.039054
     9     2      0.932928      0.225745      0.766883
    10     2      0.390009      0.055281      0.766008
    11     2      0.167425      0.492633      0.696258
    12     2      0.496165      0.524026      0.450522
    13     2      0.164571      0.322190      0.658660
    14     2      0.853320      0.157214      0.104361
    15     2      0.318759      0.675777      0.045233
    16     2      0.921465      0.722081      0.582991
ITEM: TIMESTEP
1825
ITEM: NUMBER OF ATOMS
16
ITEM: BOX BOUNDS xy xz yz  pp  pp  pp
     -0.300000      4.040544      0.000000
     -0.300000      4.040544      0.000000
     -0.300000      2.769228      0.000000
ITEM: ATOMS id type xs ys zs
     1     1      0.219110      0.226203      0.172202
     2     1      0.651581      0.266116      0.612148
     3     1      0.315521      0.798184      0.516821
     4     1      0.822109      0.706159      0.029274
     5     2      0.862109      0.028312      0.183478
     6     2      0.530146      0.022767      0.051084
     7     2      0.989335      0.465952      0.242351
     8     2      0.504555      0.699994      0.039082
     9     2      0.932940      0.225974      0.766560
    10     2      0.390043      0.055766      0.766286
    11     2      0.167874      0.493087      0.695657
    12     2      0.495856      0.523886      0.451039
    13     2      0.164764      0.321912      0.659728
    14     2      0.853213      0.157470      0.103754
    15     2      0.318797      0.676484      0.045695
    16     2      0.920896      0.722224      0.582796
ITEM: TIMESTEP
1826
ITEM: NUMBER OF ATOMS
16
ITEM: BOX BOUNDS xy xz yz  pp  pp  pp
     -0.300000      4.040544      0.000000
     -0.300000      4.040544      0.000000
     -0.300000      2.769228      0.000000
ITEM: ATOMS id type xs ys zs
     1     1      0.219131      0.226565      0.172430
     2     1      0.651684      0.265387      0.612051
     3     1      0.315715      0.798516      0.517121
     4     1      0.821993      0.706309      0.028735
     5     2      0.862384      0.028178      0.183474
     6     2      0.529950      0.023471      0.051764
     7     2      0.989362      0.466289      0.242910
     8     2      0.505026      0.699649      0.039994
     9     2      0.933904      0.226351      0.766669
    10     2      0.389928      0.055898      0.765445
    11     2      0.167481      0.493513      0.695760
    12     2      0.496217      0.524114      0.450803
    13     2      0.164998      0.321733      0.660113
    14     2      0.852543      0.157608      0.103539
    15     2      0.318342      0.676644      0.045935
    16     2      0.921106      0.722305      0.582729
ITEM: TIMESTEP
1827
ITEM: NUMBER OF ATOMS
16
ITEM: BOX BOUNDS xy xz yz  pp  pp  pp
     -0.300000      4.040544      0.000000
     -0.300000      4.040544      0.000000
     -0.300000      2.769228      0.000000
ITEM: ATOMS id type xs ys zs
     1     1      0.219841      0.226866      0.172559
     2     1      0.652056      0.265358      0.611914
     3     1      0.315852      0.797902      0.517432
     4     1      0.821528      0.706435      0.029427
     5     2      0.862464      0.028070      0.182911
     6     2      0.529947      0.023766      0.052003
     7     2      0.988924      0.466253      0.243086
     8     2      0.505217      0.699757      0.039913
     9     2      0.933875      0.226858      0.766223
    10     2      0.389671      0.055541      0.765635
    11     2      0.167549      0.493487      0.695441