ITEM: TIMESTEP
1801
ITEM: NUMBER OF ATOMS
16
ITEM: BOX BOUNDS xy xz yz  pp  pp  pp
     -0.300000      4.040544      0.000000
     -0.300000      4.040544      0.000000
     -0.300000      2.769228      0.000000
ITEM: ATOMS id type xs ys zs
     1     1      0.219014      0.221504      0.171402
     2     1      0.651475      0.262687      0.616748
     3     1      0.318363      0.801445      0.514224
     4     1      0.822447      0.712998      1.037121
     5     2      0.860948      1.028315      0.193103
     6     2      0.531072      1.018010      1.047957
     7     2      0.990512      0.463934      0.235463
     8     2      0.504702      0.701937      1.039565
     9     2      0.921033      0.229240      0.765080
    10     2      0.387483      1.053511      0.760967
    11     2      0.169600      0.493885      0.703519
    12     2      0.497182      0.521496      0.447119
    13     2      0.161016      0.329804      0.656245
    14     2      0.857352      0.152529      0.104709
    15     2      0.323436      0.670195      1.045466
    16     2      0.922937      0.723209      0.580896
ITEM: TIMESTEP
1802
ITEM: NUMBER OF ATOMS
16
ITEM: BOX BOUNDS xy xz yz  pp  pp  pp
     -0.300000      4.040544      0.000000
     -0.300000      4.040544      0.000000
     -0.300000      2.769228      0.000000
ITEM: ATOMS id type xs ys zs
     1     1      0.219549      0.221771      0.171901
     2     1      0.650638      0.263739      0.616473
     3     1      0.317580      0.800992      0.513728
     4     1      0.822456      0.711737      1.036534
     5     2      0.860755      1.027883      0.192905
     6     2      0.531013      1.017991      1.047823
     7     2      0.990939      0.463801      0.236175
     8     2      0.504909      0.701626      1.039491
     9     2      0.921736      0.229484      0.764507
    10     2      0.387199      1.053461      0.761373
    11     2      0.169281      0.494153      0.703284
    12     2      0.497167      0.521345      0.447881
    13     2      0.161115      0.329406      0.656100
    14     2      0.857556      0.151671      0.105067
    15     2      0.323752      0.670724      1.045146
    16     2      0.922453      0.723036      0.580300
ITEM: TIMESTEP
1803
ITEM: NUMBER OF ATOMS
16
ITEM: BOX BOUNDS xy xz yz  pp  pp  pp
     -0.300000      4.040544      0.000000
     -0.300000      4.040544      0.000000
     -0.300000      2.769228      0.000000
ITEM: ATOMS id type xs ys zs
     1     1      0.219648      0.222287      0.171610
     2     1      0.650152      0.264264      0.615734
     3     1      0.317674      0.800925      0.513778
     4     1      0.822645      0.711279      1.036062
     5     2      0.860876      1.027349      0.193453
     6     2      0.530602      1.018048      1.047927
     7     2      0.991263      0.464106      0.237154
     8     2      0.504849      0.701406      1.039788
     9     2      0.922420      0.229601      0.763685
    10     2      0.387366      1.053527      0.761681
    11     2      0.169229      0.494238      0.703490
    12     2      0.497025      0.521084      0.447921
    13     2      0.161415      0.328894      0.655904
    14     2      0.857513      0.152240      0.104751
    15     2      0.323405      0.671411      1.045025
    16     2      0.922744      0.723039      0.580375
ITEM: TIMESTEP
1804
ITEM: NUMBER OF ATOMS
16
ITEM: BOX BOUNDS xy xz yz  pp  pp  pp
     -0.300000      4.040544      0.000000
     -0.300000      4.040544      0.000000
     -0.300000      2.769228      0.000000
ITEM: ATOMS id type xs ys zs
     1     1      0.219964      0.222069      0.171399
     2     1      0.649506      0.264633      0.614698
     3     1      0.317969      0.800981      0.513492
     4     1      0.822248      0.710549      1.036090
     5     2      0.861265      1.027441      0.193134
     6     2      0.530130      1.018138      1.049073
     7     2      0.990865      0.464283      0.237379
     8     2      0.505131      0.701181      1.039849
     9     2      0.922552      0.230047      0.763948
    10     2      0.387477      1.053665      0.761788
    11     2      0.169446      0.494718      0.702870
    12     2      0.497039      0.521467      0.448615
    13     2      0.161900      0.328463      0.656587
    14     2      0.856845      0.152188      0.104497
    15     2      0.323567      0.671772      1.044918
    16     2      0.922879      0.722909      0.581201
ITEM: TIMESTEP
1805
ITEM: NUMBER OF ATOMS
16
ITEM: BOX BOUNDS xy xz yz  pp  pp  pp
     -0.300000      4.040544      0.000000
     -0.300000      4.040544      0.000000
     -0.300000      2.769228      0.000000
ITEM: ATOMS id type xs ys zs
     1     1      0.219701      0.222414      0.171529
     2     1      0.649437      0.265561      0.614742
     3     1      0.318170      0.800985      0.512944
     4     1      0.822103      0.710438      1.035775
     5     2      0.861754      1.027736      0.193189
     6     2      0.529902      1.018195      1.049196
     7     2      0.990696      0.464423      0.238306
     8     2      0.505578      0.701228      1.040621
     9     2      0.922746      0.229462      0.763391
    10     2      0.387454      1.053917      0.762389
    11     2      0.169422      0.494636      0.701748
    12     2      0.496975      0.521814      0.449434
    13     2      0.162208      0.328521      0.656006
    14     2      0.856828      0.152207      0.104421
    15     2      0.323191      0.672109      1.044617
    16     2      0.922658      0.723127      0.580969
ITEM: TIMESTEP
1806
ITEM: NUMBER OF ATOMS
16
ITEM: BOX BOUNDS xy xz yz  pp  pp  pp
     -0.300000      4.040544      0.000000
     -0.300000      4.040544      0.000000
     -0.300000      2.769228      0.000000
ITEM: ATOMS id type xs ys zs
     1     1      0.219545      0.222663      0.171244
     2     1      0.649645      0.265532      0.614720
     3     1      0.317653      0.800461      0.512497
     4     1      0.822132      0.709907      1.036270
     5     2      0.861635      1.027283      0.192495
     6     2      0.530154      1.018350      1.049460
     7     2      0.991094      0.463702      0.238295
     8     2      0.505956      0.700844      1.040655
     9     2      0.923174      0.229584      0.763140
    10     2      0.387142      1.054382      0.762872
    11     2      0.169291      0.494558      0.701323
    12     2      0.497560      0.521953      0.448823
    13     2      0.162717      0.328338      0.656115
    14     2      0.856519      0.151823      0.104860
    15     2      0.322237      0.672319      1.044204
    16     2      0.922154      0.723001      0.580752
ITEM: TIMESTEP
1807
ITEM: NUMBER OF ATOMS
16
ITEM: BOX BOUNDS xy xz yz  pp  pp  pp
     -0.300000      4.040544      0.000000
     -0.300000      4.040544      0.000000
     -0.300000      2.769228      0.000000
ITEM: ATOMS id type xs ys zs
     1     1      0.219707      0.222897      0.171127
     2     1      0.649816      0.265916      0.614520
     3     1      0.317543      0.800179      0.511769
     4     1      0.822407      0.709954      1.036710
     5     2      0.862313      1.027158      0.192629
     6     2      0.530367      1.018234      1.050158
     7     2      0.991134      0.463860      0.239470
     8     2      0.505872      0.700956      1.040531
     9     2      0.923787      0.229633      0.763697
    10     2      0.387380      1.053915      0.763664
    11     2      0.169527      0.494382      0.701135
    12     2      0.498272      0.522285      0.449110
    13     2      0.162852      0.327947      0.656369
    14     2      0.855777      0.152314      0.104693
    15     2      0.322514      0.672791      1.044697
    16     2      0.921743      0.723097      0.581074
ITEM: TIMESTEP
1808
ITEM: NUMBER OF ATOMS
16
ITEM: BOX BOUNDS xy xz yz  pp  pp  pp
     -0.300000      4.040544      0.000000
     -0.300000      4.040544      0.000000
     -0.300000      2.769228      0.000000
ITEM: ATOMS id type xs ys zs
     1     1      0.220091      0.222913      0.171538
     2     1      0.650008      0.266685      0.614502
     3     1      0.317692      0.800362      0.512243
     4     1      0.822717      0.710330      1.036453
     5     2      0.862340      1.026904      0.191936
     6     2      0.530444      1.017985      1.049963
     7     2      0.991106      0.464637      0.239857
     8     2      0.505384      0.701040      1.041343
     9     2      0.924340      0.229533      0.764118
    10     2      0.387334      1.054077      0.763896
    11     2      0.169217      0.493713      0.701730
    12     2      0.498136      0.522128      0.449251
    13     2      0.162594      0.327507      0.655336
    14     2      0.855505      0.152821      0.105290
    15     2      0.322382      0.672608      1.044834
    16     2      0.921771      0.723367      0.581183
ITEM: TIMESTEP
1809
ITEM: NUMBER OF ATOMS
16
ITEM: BOX BOUNDS xy xz yz  pp  pp  pp
     -0.300000      4.040544      0.000000
     -0.300000      4.040544      0.000000
     -0.300000      2.769228      0.000000
ITEM: ATOMS id type xs ys zs
     1     1      0.220267      0.222845      0.172209
     2     1      0.649747      0.266703      0.614493
     3     1      0.317442      0.800100      0.511890
     4     1      0.822620      0.710022      1.036046
     5     2      0.862245      1.027342      0.191578
     6     2      0.530409      1.018710      1.049812
     7     2      0.990565      0.464675      0.239421
     8     2      0.505759      0.700776      1.041438
     9     2      0.925060      0.229353      0.765170
    10     2      0.387295      1.054246      0.764338
    11     2      0.168592      0.493757      0.701134
    12     2      0.498293      0.522052      0.449587
    13     2      0.162455      0.327406      0.655980
    14     2      0.854846      0.153300      0.105170
    15     2      0.322289      0.672451      1.045441
    16     2      0.921761      0.724133      0.581304
ITEM: TIMESTEP
1810
ITEM: NUMBER OF ATOMS
16
ITEM: BOX BOUNDS xy xz yz  pp  pp  pp
     -0.300000      4.040544      0.000000
     -0.300000      4.040544      0.000000
     -0.300000      2.769228      0.000000
ITEM: ATOMS id type xs ys zs
     1     1      0.220418      0.223071      0.171958
     2     1      0.649701      0.265926      0.614100
     3     1      0.317288      0.800190      0.511628
     4     1      0.822570      0.709624      1.035693
     5     2      0.862103      1.027066      0.191918
     6     2      0.529738      1.018879      1.049836
     7     2      0.990859      0.464836      0.240128
     8     2      0.506356      0.700698      1.041847
     9     2      0.924894      0.229150      0.765323
    10     2      0.387316      1.054370      0.764716
    11     2      0.168358      0.493585      0.700181
    12     2      0.498539      0.522614      0.450049
    13     2      0.162792      0.326535      0.655680
    14     2      0.854888      0.153467      0.105334
    15     2      0.322320      0.672679      1.045977
    16     2      0.921659      0.724551      0.581416
ITEM: TIMESTEP
1811
ITEM: NUMBER OF ATOMS
16
ITEM: BOX BOUNDS xy xz yz  pp  pp  pp
     -0.300000      4.040544      0.000000
     -0.300000      4.040544      0.000000
     -0.300000      2.769228      0.000000
ITEM: ATOMS id type xs ys zs
     1     1      0.220255      0.222626      0.171784
     2     1      0.649866      0.266181      0.614572
     3     1      0.317391      0.799703      0.512236
     4     1      0.822695      0.709596      1.034845
     5     2      0.862583      1.027413      0.191705
     6     2      0.529353      1.019399      1.050332
     7     2      0.991140      0.464859      0.240283
     8     2      0.506261      0.700676      1.041998
     9     2      0.925660      0.229211      0.765103
    10     2      0.386948      1.054542      0.764894
    11     2      0.168173      0.493182      0.700427
    12     2      0.498193      0.523104      0.450859
    13     2      0.163357      0.326749      0.656044
    14     2      0.855321      0.153647      0.104615
    15     2      0.322000      0.673060      1.045482
    16     2      0.921892      0.724111      0.581629
ITEM: TIMESTEP
1812
ITEM: NUMBER OF ATOMS
16
ITEM: BOX BOUNDS xy xz yz  pp  pp  pp
     -0.300000      4.040544      0.000000
     -0.300000      4.040544      0.000000
     -0.300000      2.769228      0.000000
ITEM: ATOMS id type xs ys zs
     1     1      0.219803      0.222450      0.171404
     2     1      0.649959      0.266081      0.614356
     3     1      0.317228      0.799276      0.512336
     4     1      0.822991      0.708654      1.034441
     5     2      0.862476      1.027171      0.191118
     6     2      0.529184      1.019266      1.050700
     7     2      0.990552      0.465337      0.240935
     8     2      0.506451      0.700980      1.041592
     9     2      0.926333      0.229382      0.765709
    10     2      0.387646      1.055056      0.765052
    11     2      0.168225      0.493663      0.700226
    12     2      0.498207      0.522784      0.450832
    13     2      0.163726      0.326520      0.655899
    14     2      0.854658      0.153327      0.104946
    15     2      0.322287      0.672835      1.045308
    16     2      0.922328      0.724318      0.581545
ITEM: TIMESTEP
1813
ITEM: NUMBER OF ATOMS
16
ITEM: BOX BOUNDS xy xz yz  pp  pp  pp
     -0.300000      4.040544      0.000000
     -0.300000      4.040544      0.000000
     -0.300000      2.769228      0.000000
ITEM: ATOMS id type xs ys zs
     1     1      0.220047      0.222367      0.171372
     2     1      0.650282      0.265659      0.613902
     3     1      0.316592      0.799056      0.513746
     4     1      0.822646      0.708292      1.034175
     5     2      0.862609      1.026970      0.190282
     6     2      0.528937      1.019025      1.050631
     7     2      0.990983      0.465136      0.242225
     8     2      0.506269      0.700059      1.040307
     9     2      0.927243      0.229088      0.765461
    10     2      0.388148      1.054834      0.765584
    11     2      0.167849      0.493750      0.700341
    12     2      0.497928      0.522854      0.450629
    13     2      0.164136      0.326742      0.656136
    14     2      0.854769      0.153191      0.105071
    15     2      0.322454      0.673251      1.046110
    16     2      0.922124      0.724668      0.581097
ITEM: TIMESTEP
1814
ITEM: NUMBER OF ATOMS
16
ITEM: BOX BOUNDS xy xz yz  pp  pp  pp
     -0.300000      4.040544      0.000000
     -0.300000      4.040544      0.000000
     -0.300000      2.769228      0.000000
ITEM: ATOMS id type xs ys zs
     1     1      0.220168      0.222583      0.171900
     2     1      0.650626      0.266155      0.613636
     3     1      0.316594      0.799277      0.514258
     4     1      0.822402      0.708569      1.033957
     5     2      0.862958      1.027221      0.189542
     6     2      0.528950      1.019707      1.050608
     7     2      0.990619      0.465390      0.242230
     8     2      0.506406      0.700110      1.040281
     9     2      0.927413      0.228720      0.765519
    10     2      0.388251      1.055149      0.765868
    11     2      0.167864      0.493356      0.700078
    12     2      0.497628      0.523181      0.451173
    13     2      0.164403      0.326365      0.656344
    14     2      0.855161      0.153905      0.105207
    15     2      0.322345      0.673958      1.046228
    16     2      0.921588      0.724873      0.581260
ITEM: TIMESTEP
1815
ITEM: NUMBER OF ATOMS
16
ITEM: BOX BOUNDS xy xz yz  pp  pp  pp
     -0.300000      4.040544      0.000000
     -0.300000      4.040544      0.000000
     -0.300000      2.769228      0.000000
ITEM: ATOMS id type xs ys zs
     1     1      0.220160      0.222145      0.172130
     2     1      0.651169      0.266995      0.613290
     3     1      0.316379      0.798630      0.513894
     4     1      0.822553      0.708102      1.034123
     5     2      0.862871      1.027571      0.188916
     6     2      0.528663      1.020288      1.049389
     7     2      0.990259      0.465589      0.242387
     8     2      0.506541      0.700376      1.040804
     9     2      0.927803      0.228348      0.765963
    10     2      0.388133      1.054918      0.765966
    11     2      0.167961      0.493228      0.700312
    12     2      0.497219      0.523236      0.451972
    13     2      0.164300      0.326520      0.656481
    14     2      0.854647      0.153887      0.104523
    15     2      0.321936      0.674285      1.046322
    16     2      0.921229      0.724897      0.581300
ITEM: TIMESTEP
1816
ITEM: NUMBER OF ATOMS
16
ITEM: BOX BOUNDS xy xz yz  pp  pp  pp
     -0.300000      4.040544      0.000000
     -0.300000      4.040544      0.000000
     -0.300000      2.769228      0.000000
ITEM: ATOMS id type xs ys zs
     1     1      0.220482      0.222306      0.171068
     2     1      0.651795      0.266796      0.613620
     3     1      0.316716      0.798454      0.514316
     4     1      0.822327      0.708661      1.034898
     5     2      0.862123      1.027725      0.188409
     6     2      0.528987      1.021292      1.049521
     7     2      0.989617      0.465249      0.243458
     8     2      0.506301      0.700691      1.040875
     9     2      0.928076      0.228156      0.766123
    10     2      0.387809      1.055459      0.765393
    11     2      0.168033      0.493025      0.699753
    12     2      0.497596      0.522924      0.451914
    13     2      0.164677      0.325711      0.656502
    14     2      0.854234      0.154148      0.104312
    15     2      0.321637      0.674740      1.046315
    16     2      0.921024      0.724639      0.581439
ITEM: TIMESTEP
1817
ITEM: NUMBER OF ATOMS
16
ITEM: BOX BOUNDS xy xz yz  pp  pp  pp
     -0.300000      4.040544      0.000000
     -0.300000      4.040544      0.000000
     -0.300000      2.769228      0.000000
ITEM: ATOMS id type xs ys zs
     1     1      0.220964      0.222792      0.171603
     2     1      0.651845      0.266998      0.613332
     3     1      0.316464      0.799140      0.515358
     4     1      0.822263      0.708391      1.034378
     5     2      0.862393      1.027452      0.187833
     6     2      0.528301      1.021636      1.050136
     7     2      0.989373      0.464773      0.243480
     8     2      0.506379      0.700161      1.040429
     9     2      0.928335      0.228627      0.766021
    10     2      0.387568      1.055303      0.765539
    11     2      0.168443      0.492738      0.698902
    12     2      0.496830      0.522878      0.452482
    13     2      0.164986      0.325324      0.656629
    14     2      0.853552      0.154400      0.104201
    15     2      0.321634      0.675139      1.046417
    16     2      0.921110      0.724824      0.580992
ITEM: TIMESTEP
1818
ITEM: NUMBER OF ATOMS
16
ITEM: BOX BOUNDS xy xz yz  pp  pp  pp
     -0.300000      4.040544      0.000000
     -0.300000      4.040544      0.000000
     -0.300000      2.769228      0.000000
ITEM: ATOMS id type xs ys zs
     1     1      0.221615      0.222451      0.171760
     2     1      0.652187      0.266737      0.614187
     3     1      0.316235      0.799086      0.516141
     4     1      0.822297      0.708542      1.033523
     5     2      0.862626      1.027722      0.187608
     6     2      0.528207      1.022085      1.050141
     7     2      0.989536      0.464717      0.243177
     8     2      0.506494      0.699771      1.040659
     9     2      0.928732      0.228710      0.765586
    10     2      0.387203      1.054965      0.765890
    11     2      0.168146      0.492959      0.697913
    12     2      0.496775      0.522620      0.452654
    13     2      0.165092      0.324733      0.656548
    14     2      0.853421      0.154691      0.104763
    15     2      0.321913      0.675625      1.046572
    16     2      0.921394      0.725180      0.581419
ITEM: TIMESTEP
1819
ITEM: NUMBER OF ATOMS
16
ITEM: BOX BOUNDS xy xz yz  pp  pp  pp
     -0.300000      4.040544      0.000000
     -0.300000      4.040544      0.000000
     -0.300000      2.769228      0.000000
ITEM: ATOMS id type xs ys zs
     1     1      0.221502      0.222456      0.171581
     2     1      0.652490      0.265935      0.614293
     3     1      0.316210      0.798779      0.516537
     4     1      0.821885      0.708212      1.032892
     5     2      0.862245      1.027917      0.187249
     6     2      0.527440      1.022326      1.049689
     7     2      0.989219      0.464933      0.243323
     8     2      0.506329      0.699589      1.041363
     9     2      0.929221      0.228285      0.765567
    10     2      0.387190      1.055969      0.766372
    11     2      0.168340      0.492241      0.698721
    12     2      0.496746      0.522461      0.452637
    13     2      0.165205      0.324479      0.656220
    14     2      0.853201      0.154638      0.105220
    15     2      0.321419      0.675577      1.045760
    16     2      0.921227      0.725702      0.581194
ITEM: TIMESTEP
1820
ITEM: NUMBER OF ATOMS
16
ITEM: BOX BOUNDS xy xz yz  pp  pp  pp
     -0.300000      4.040544      0.000000
     -0.300000      4.040544      0.000000
     -0.300000      2.769228      0.000000
ITEM: ATOMS id type xs ys zs
     1     1      0.221374      0.222320      0.171014
     2     1      0.652464      0.265964      0.613297
     3     1      0.315729      0.798900      0.516088
     4     1      0.821889      0.707427      1.032594
     5     2      0.862398      1.027851      0.186710
     6     2      0.527440      1.022630      1.049600
     7     2      0.989279      0.464792      0.243853
     8     2      0.506318      0.699868      1.040909
     9     2      0.930119      0.228473      0.764815
    10     2      0.387110      1.055826      0.766105
    11     2      0.168773      0.492032      0.698831
    12     2      0.497058      0.521572      0.453557
    13     2      0.165552      0.323976      0.656572
    14     2      0.853263      0.154632      0.104934
    15     2      0.321852      0.675881      1.045511
    16     2      0.921501      0.725517      0.580846
ITEM: TIMESTEP
1821
ITEM: NUMBER OF ATOMS
16
ITEM: BOX BOUNDS xy xz yz  pp  pp  pp
     -0.300000      4.040544      0.000000
     -0.300000      4.040544      0.000000
     -0.300000      2.769228      0.000000
ITEM: ATOMS id type xs ys zs
     1     1      0.221058      0.222393      0.171362
     2     1      0.652583      0.265882      0.613201
     3     1      0.315131      0.798740      0.517049
     4     1      0.821713      0.707114      1.032453
     5     2      0.862611      1.028040      0.186386
     6     2      0.527576      1.023434      1.050177
     7     2      0.989153      0.465138      0.244266
     8     2      0.506810      0.699663      1.040674
     9     2      0.930743      0.228082      0.764609
    10     2      0.387184      1.056155      0.765605
    11     2      0.168510      0.491458      0.697924
    12     2      0.497287      0.521786      0.453598
    13     2      0.165697      0.323564      0.657198
    14     2      0.852889      0.153827      0.104431
    15     2      0.321753      0.676580      1.045938
    16     2      0.921514      0.724991      0.580915
ITEM: TIMESTEP
1822
ITEM: NUMBER OF ATOMS
16
ITEM: BOX BOUNDS xy xz yz  pp  pp  pp
     -0.300000      4.040544      0.000000
     -0.300000      4.040544      0.000000
     -0.300000      2.769228      0.000000
ITEM: ATOMS id type xs ys zs
     1     1      0.221367      0.222277      0.171229
     2     1      0.652626      0.265219      0.613662
     3     1      0.314963      0.798331      0.517538
     4     1      0.821175      0.706950      1.032823
     5     2      0.862186      1.028050      0.185877
     6     2      0.527365      1.023552      1.050814
     7     2      0.988669      0.464970      0.244194
     8     2      0.507079      0.698949      1.040390
     9     2      0.931309      0.227458      0.764715
    10     2      0.387525      1.056749      0.765996
    11     2      0.168365      0.491321      0.697614
    12     2      0.497425      0.521375      0.453982
    13     2      0.166172      0.323009      0.658210
    14     2      0.852727      0.154318      0.105011
    15     2      0.321727      0.677260      1.045941
    16     2      0.921992      0.725075      0.580745
ITEM: TIMESTEP
1823
ITEM: NUMBER OF ATOMS
16
ITEM: BOX BOUNDS xy xz yz  pp  pp  pp
     -0.300000      4.040544      0.000000
     -0.300000      4.040544      0.000000
     -0.300000      2.769228      0.000000
ITEM: ATOMS id type xs ys zs
     1     1      0.221749      0.222558      0.170898
     2     1      0.653204      0.265148      0.613223
     3     1      0.314555      0.798254      0.518099
     4     1      0.821155      0.707120      1.032924
     5     2      0.862424      1.027680      0.184975
     6     2      0.527023      1.023588      1.050300
     7     2      0.989206      0.464700      0.244895
     8     2      0.506989      0.698439      1.039805
     9     2      0.931263      0.227409      0.764664
    10     2      0.387963      1.056583      0.765626
    11     2      0.168196      0.490815      0.698044
    12     2      0.497570      0.521541      0.454876
    13     2      0.166496      0.323013      0.657626
    14     2      0.852406      0.153720      0.105204
    15     2      0.321101      0.677506      1.046202
    16     2      0.922063      0.725053      0.580405
ITEM: TIMESTEP
1824
ITEM: NUMBER OF ATOMS
16
ITEM: BOX BOUNDS xy xz yz  pp  pp  pp
     -0.300000      4.040544      0.000000
     -0.300000      4.040544      0.000000
     -0.300000      2.769228      0.000000
ITEM: ATOMS id type xs ys zs
     1     1      0.222058      0.222641      0.170928
     2     1      0.653500      0.265538      0.613643
     3     1      0.314682      0.797606      0.518068
     4     1      0.821510      0.706931      1.032237
     5     2      0.862834      1.027900      0.185136
     6     2      0.525890      1.023811      1.050355
     7     2      0.989433      0.464848      0.245553
     8     2      0.506740      0.699021      1.038961
     9     2      0.931788      0.227653      0.765016
    10     2      0.387532      1.056187      0.766409
    11     2      0.167474      0.490594      0.698078
    12     2      0.497670      0.521691      0.454939
    13     2      0.166761      0.322615      0.657978
    14     2      0.851806      0.154265      0.105884
    15     2      0.321124      0.678508      1.046554
    16     2      0.922102      0.725376      0.579955
ITEM: TIMESTEP
1825
ITEM: NUMBER OF ATOMS
16
ITEM: BOX BOUNDS xy xz yz  pp  pp  pp
     -0.300000      4.040544      0.000000
     -0.300000      4.040544      0.000000
     -0.300000      2.769228      0.000000
ITEM: ATOMS id type xs ys zs
     1     1      0.221938      0.222762      0.170635
     2     1      0.653456      0.265862      0.614216
     3     1      0.314856      0.796815      0.518096
     4     1      0.821674      0.706266      1.031384
     5     2      0.863335      1.028043      0.184462
     6     2      0.525168      1.024213      1.050367
     7     2      0.989671      0.464882      0.246192
     8     2      0.506536      0.698893      1.038831
     9     2      0.932263      0.227634      0.765358
    10     2      0.387904      1.055942      0.766642
    11     2      0.167234      0.490145      0.697621
    12     2      0.497624      0.521911      0.455428
    13     2      0.166500      0.322407      0.658229
    14     2      0.852151      0.153980      0.105879
    15     2      0.321392      0.678779      1.046223
    16     2      0.922169      0.724821      0.579762
ITEM: TIMESTEP
1826
ITEM: NUMBER OF ATOMS
16
ITEM: BOX BOUNDS xy xz yz  pp  pp  pp
     -0.300000      4.040544      0.000000
     -0.300000      4.040544      0.000000
     -0.300000      2.769228      0.000000
ITEM: ATOMS id type xs ys zs
     1     1      0.221804      0.223113      0.170341
     2     1      0.653575      0.265665      0.614483
     3     1      0.315035      0.796794      0.517814
     4     1      0.822313      0.705794      1.030520
     5     2      0.863467      1.028114      0.183920
     6     2      0.524763      1.024588      1.050157
     7     2      0.989321      0.465251      0.246371
     8     2      0.506536      0.698690      1.039196
     9     2      0.932839      0.227550      0.765965
    10     2      0.388032      1.055838      0.766366
    11     2      0.167294      0.490303      0.696975
    12     2      0.497643      0.522911      0.455438
    13     2      0.167001      0.321705      0.658256
    14     2      0.852291      0.154279      0.106602
    15     2      0.321812      0.679395      1.045629
    16     2      0.921681      0.724819      0.579556
ITEM: TIMESTEP
1827
ITEM: NUMBER OF ATOMS
16
ITEM: BOX BOUNDS xy xz yz  pp  pp  pp
     -0.300000      4.040544      0.000000
     -0.300000      4.040544      0.000000
     -0.300000      2.769228      0.000000
ITEM: ATOMS id type xs ys zs
     1     1      0.222121      0.223282      0.169878
     2     1      0.653651      0.265871      0.615147
     3     1      0.314658      0.796225      0.518297
     4     1      0.822469      0.705902      1.029927
     5     2      0.863586      1.028092      0.183940
     6     2      0.524942      1.024302      1.050104
     7     2      0.989142      0.465360      0.246145
     8     2      0.506283      0.699028      1.039074
     9     2      0.933107      0.227379      0.766199
    10     2      0.387407      1.056053      0.765829
    11     2      0.167721      0.489779      0.696853