ITEM: TIMESTEP
1801
ITEM: NUMBER OF ATOMS
16
ITEM: BOX BOUNDS xy xz yz  pp  pp  pp
     -0.300000      4.040544      0.000000
     -0.300000      4.040544      0.000000
     -0.300000      2.769228      0.000000
ITEM: ATOMS id type xs ys zs
     1     1      0.219189      0.221807      0.171210
     2     1      0.651604      0.262264      0.617196
     3     1      0.319006      0.801527      0.513817
     4     1      0.822981      0.713138      1.037367
     5     2      0.861147      1.028657      0.193285
     6     2      0.531394      1.018041      1.047522
     7     2      0.990705      0.464328      0.235730
     8     2      0.504015      0.701470      1.039946
     9     2      0.921818      0.229296      0.766187
    10     2      0.387344      1.053219      0.760651
    11     2      0.169221      0.493163      0.702902
    12     2      0.497311      0.522683      0.446100
    13     2      0.161655      0.329255      0.657508
    14     2      0.856831      0.152412      0.104708
    15     2      0.322700      0.670490      1.045860
    16     2      0.922661      0.722858      0.580264
ITEM: TIMESTEP
1802
ITEM: NUMBER OF ATOMS
16
ITEM: BOX BOUNDS xy xz yz  pp  pp  pp
     -0.300000      4.040544      0.000000
     -0.300000      4.040544      0.000000
     -0.300000      2.769228      0.000000
ITEM: ATOMS id type xs ys zs
     1     1      0.219417      0.222143      0.170979
     2     1      0.651386      0.262265      0.616140
     3     1      0.318859      0.801096      0.513433
     4     1      0.822702      0.711710      1.037445
     5     2      0.860865      1.028875      0.193235
     6     2      0.531312      1.018215      1.046519
     7     2      0.990532      0.463931      0.235757
     8     2      0.503989      0.701563      1.039514
     9     2      0.922780      0.229101      0.765812
    10     2      0.387695      1.053653      0.761862
    11     2      0.168840      0.492772      0.702293
    12     2      0.497308      0.522733      0.446599
    13     2      0.161420      0.328732      0.657649
    14     2      0.857024      0.153085      0.104284
    15     2      0.322488      0.671108      1.046159
    16     2      0.922715      0.722987      0.580086
ITEM: TIMESTEP
1803
ITEM: NUMBER OF ATOMS
16
ITEM: BOX BOUNDS xy xz yz  pp  pp  pp
     -0.300000      4.040544      0.000000
     -0.300000      4.040544      0.000000
     -0.300000      2.769228      0.000000
ITEM: ATOMS id type xs ys zs
     1     1      0.219937      0.222162      0.170735
     2     1      0.651488      0.262191      0.615874
     3     1      0.318751      0.800224      0.513552
     4     1      0.822786      0.711649      1.037485
     5     2      0.861383      1.029389      0.192268
     6     2      0.531012      1.017852      1.046758
     7     2      0.990782      0.463933      0.235555
     8     2      0.503619      0.701804      1.040382
     9     2      0.922963      0.229442      0.766565
    10     2      0.387620      1.053712      0.762391
    11     2      0.168787      0.493044      0.702371
    12     2      0.497378      0.523121      0.446371
    13     2      0.161048      0.328900      0.657510
    14     2      0.857135      0.153512      0.103104
    15     2      0.322019      0.671346      1.045799
    16     2      0.922327      0.723597      0.580767
ITEM: TIMESTEP
1804
ITEM: NUMBER OF ATOMS
16
ITEM: BOX BOUNDS xy xz yz  pp  pp  pp
     -0.300000      4.040544      0.000000
     -0.300000      4.040544      0.000000
     -0.300000      2.769228      0.000000
ITEM: ATOMS id type xs ys zs
     1     1      0.220287      0.222300      0.171147
     2     1      0.651355      0.262299      0.616006
     3     1      0.318441      0.800082      0.513884
     4     1      0.822811      0.711491      1.037573
     5     2      0.861344      1.029566      0.192383
     6     2      0.531218      1.018212      1.047770
     7     2      0.990642      0.464053      0.235573
     8     2      0.503436      0.701857      1.039952
     9     2      0.923141      0.229321      0.767498
    10     2      0.387106      1.053472      0.762853
    11     2      0.168857      0.493442      0.702394
    12     2      0.497109      0.523474      0.446482
    13     2      0.161026      0.328981      0.657436
    14     2      0.856104      0.152961      0.103342
    15     2      0.321370      0.671763      1.046606
    16     2      0.922347      0.724217      0.580797
ITEM: TIMESTEP
1805
ITEM: NUMBER OF ATOMS
16
ITEM: BOX BOUNDS xy xz yz  pp  pp  pp
     -0.300000      4.040544      0.000000
     -0.300000      4.040544      0.000000
     -0.300000      2.769228      0.000000
ITEM: ATOMS id type xs ys zs
     1     1      0.220323      0.222317      0.172449
     2     1      0.651745      0.262057      0.615921
     3     1      0.318080      0.799741      0.513080
     4     1      0.822891      0.711657      1.037045
     5     2      0.862045      1.029565      0.192139
     6     2      0.531450      1.018063      1.047786
     7     2      0.990354      0.464790      0.235484
     8     2      0.502856      0.702075      1.040068
     9     2      0.923119      0.229332      0.768357
    10     2      0.387052      1.053859      0.762770
    11     2      0.168814      0.493397      0.702670
    12     2      0.496249      0.523402      0.446397
    13     2      0.160969      0.328392      0.657422
    14     2      0.856441      0.152894      0.103273
    15     2      0.321349      0.672687      1.046872
    16     2      0.922128      0.724219      0.580268
ITEM: TIMESTEP
1806
ITEM: NUMBER OF ATOMS
16
ITEM: BOX BOUNDS xy xz yz  pp  pp  pp
     -0.300000      4.040544      0.000000
     -0.300000      4.040544      0.000000
     -0.300000      2.769228      0.000000
ITEM: ATOMS id type xs ys zs
     1     1      0.220628      0.221989      0.172395
     2     1      0.651452      0.262679      0.615789
     3     1      0.317818      0.799277      0.512587
     4     1      0.822620      0.711209      1.035976
     5     2      0.862030      1.029654      0.191600
     6     2      0.530903      1.018406      1.047533
     7     2      0.990485      0.464798      0.235030
     8     2      0.503137      0.702063      1.041067
     9     2      0.923645      0.229796      0.768431
    10     2      0.386223      1.053996      0.762436
    11     2      0.168613      0.493695      0.701646
    12     2      0.496050      0.523711      0.445745
    13     2      0.161046      0.328576      0.657075
    14     2      0.856338      0.153668      0.102483
    15     2      0.321236      0.672691      1.046527
    16     2      0.922200      0.723928      0.579996
ITEM: TIMESTEP
1807
ITEM: NUMBER OF ATOMS
16
ITEM: BOX BOUNDS xy xz yz  pp  pp  pp
     -0.300000      4.040544      0.000000
     -0.300000      4.040544      0.000000
     -0.300000      2.769228      0.000000
ITEM: ATOMS id type xs ys zs
     1     1      0.220608      0.222177      0.173022
     2     1      0.651634      0.262799      0.615276
     3     1      0.317277      0.798785      0.513187
     4     1      0.822660      0.710619      1.036242
     5     2      0.861886      1.029281      0.192250
     6     2      0.530305      1.017785      1.048046
     7     2      0.990498      0.464213      0.235304
     8     2      0.503064      0.702099      1.041115
     9     2      0.923769      0.229399      0.769171
    10     2      0.386291      1.054434      0.763107
    11     2      0.168590      0.493828      0.701687
    12     2      0.496151      0.523779      0.445715
    13     2      0.160991      0.328361      0.658073
    14     2      0.856339      0.154539      0.103045
    15     2      0.321147      0.672503      1.046540
    16     2      0.922190      0.724031      0.579715
ITEM: TIMESTEP
1808
ITEM: NUMBER OF ATOMS
16
ITEM: BOX BOUNDS xy xz yz  pp  pp  pp
     -0.300000      4.040544      0.000000
     -0.300000      4.040544      0.000000
     -0.300000      2.769228      0.000000
ITEM: ATOMS id type xs ys zs
     1     1      0.220265      0.222426      0.173778
     2     1      0.651335      0.263140      0.614978
     3     1      0.316759      0.798188      0.512542
     4     1      0.822713      0.710032      1.036684
     5     2      0.861753      1.029398      0.191409
     6     2      0.529725      1.017897      1.048452
     7     2      0.990664      0.464386      0.235324
     8     2      0.502780      0.702435      1.041731
     9     2      0.924090      0.229351      0.768866
    10     2      0.386848      1.055117      0.762991
    11     2      0.168364      0.493707      0.701211
    12     2      0.495919      0.523516      0.445822
    13     2      0.160599      0.328020      0.658541
    14     2      0.856008      0.154842      0.102057
    15     2      0.321358      0.672783      1.045660
    16     2      0.922237      0.723972      0.579511
ITEM: TIMESTEP
1809
ITEM: NUMBER OF ATOMS
16
ITEM: BOX BOUNDS xy xz yz  pp  pp  pp
     -0.300000      4.040544      0.000000
     -0.300000      4.040544      0.000000
     -0.300000      2.769228      0.000000
ITEM: ATOMS id type xs ys zs
     1     1      0.220620      0.222634      0.173786
     2     1      0.651290      0.262990      0.615743
     3     1      0.316386      0.798210      0.513234
     4     1      0.822985      0.710153      1.035296
     5     2      0.861654      1.030024      0.190932
     6     2      0.529172      1.018190      1.048993
     7     2      0.990179      0.464250      0.235058
     8     2      0.502783      0.702165      1.041874
     9     2      0.924567      0.228792      0.768768
    10     2      0.387322      1.055180      0.763650
    11     2      0.168513      0.493039      0.700533
    12     2      0.495596      0.523180      0.446127
    13     2      0.160822      0.328801      0.659089
    14     2      0.856149      0.155070      0.101720
    15     2      0.321537      0.673316      1.044846
    16     2      0.922552      0.723372      0.578304
ITEM: TIMESTEP
1810
ITEM: NUMBER OF ATOMS
16
ITEM: BOX BOUNDS xy xz yz  pp  pp  pp
     -0.300000      4.040544      0.000000
     -0.300000      4.040544      0.000000
     -0.300000      2.769228      0.000000
ITEM: ATOMS id type xs ys zs
     1     1      0.220728      0.222964      0.173478
     2     1      0.651156      0.263356      0.614681
     3     1      0.316856      0.798469      0.513601
     4     1      0.823288      0.710259      1.035354
     5     2      0.861568      1.029739      0.190689
     6     2      0.528726      1.017895      1.048437
     7     2      0.989955      0.463799      0.236018
     8     2      0.502751      0.702108      1.041608
     9     2      0.925422      0.228625      0.768757
    10     2      0.388100      1.055096      0.763632
    11     2      0.168529      0.492921      0.700075
    12     2      0.495322      0.522956      0.445734
    13     2      0.161028      0.328641      0.658719
    14     2      0.856183      0.155059      0.101685
    15     2      0.321697      0.674333      1.045001
    16     2      0.922536      0.723659      0.578988
ITEM: TIMESTEP
1811
ITEM: NUMBER OF ATOMS
16
ITEM: BOX BOUNDS xy xz yz  pp  pp  pp
     -0.300000      4.040544      0.000000
     -0.300000      4.040544      0.000000
     -0.300000      2.769228      0.000000
ITEM: ATOMS id type xs ys zs
     1     1      0.220433      0.223353      0.173266
     2     1      0.650670      0.263127      0.613810
     3     1      0.316451      0.798579      0.513865
     4     1      0.823277      0.709884      1.034995
     5     2      0.861540      1.029869      0.191048
     6     2      0.528824      1.017866      1.048569
     7     2      0.990029      0.464176      0.236100
     8     2      0.502932      0.701638      1.041261
     9     2      0.926330      0.228801      0.768447
    10     2      0.388100      1.054936      0.763599
    11     2      0.168570      0.493355      0.699484
    12     2      0.495413      0.522806      0.446486
    13     2      0.160780      0.328650      0.658593
    14     2      0.855852      0.155252      0.101519
    15     2      0.320836      0.674810      1.045259
    16     2      0.921938      0.724055      0.578186
ITEM: TIMESTEP
1812
ITEM: NUMBER OF ATOMS
16
ITEM: BOX BOUNDS xy xz yz  pp  pp  pp
     -0.300000      4.040544      0.000000
     -0.300000      4.040544      0.000000
     -0.300000      2.769228      0.000000
ITEM: ATOMS id type xs ys zs
     1     1      0.220676      0.223295      0.173173
     2     1      0.651370      0.263103      0.613766
     3     1      0.316180      0.798266      0.513712
     4     1      0.823105      0.710047      1.035299
     5     2      0.861132      1.029700      0.191341
     6     2      0.528328      1.018113      1.048474
     7     2      0.990968      0.463846      0.236681
     8     2      0.503833      0.700796      1.041408
     9     2      0.926939      0.228806      0.768509
    10     2      0.388161      1.054793      0.764113
    11     2      0.167959      0.492894      0.699755
    12     2      0.495453      0.523172      0.446702
    13     2      0.160460      0.328686      0.658914
    14     2      0.855649      0.155976      0.101258
    15     2      0.320712      0.674523      1.044863
    16     2      0.922193      0.724417      0.577712
ITEM: TIMESTEP
1813
ITEM: NUMBER OF ATOMS
16
ITEM: BOX BOUNDS xy xz yz  pp  pp  pp
     -0.300000      4.040544      0.000000
     -0.300000      4.040544      0.000000
     -0.300000      2.769228      0.000000
ITEM: ATOMS id type xs ys zs
     1     1      0.221181      0.223483      0.173118
     2     1      0.651399      0.263433      0.613379
     3     1      0.316044      0.798158      0.513888
     4     1      0.822748      0.709191      1.034302
     5     2      0.861185      1.029504      0.191995
     6     2      0.528564      1.018331      1.048100
     7     2      0.990990      0.463655      0.236772
     8     2      0.503430      0.700290      1.041771
     9     2      0.927177      0.228127      0.768072
    10     2      0.387765      1.054457      0.764891
    11     2      0.167672      0.491907      0.699303
    12     2      0.495540      0.522897      0.447367
    13     2      0.160451      0.328561      0.659027
    14     2      0.855321      0.156565      0.101529
    15     2      0.320694      0.675017      1.044434
    16     2      0.922307      0.724587      0.577672
ITEM: TIMESTEP
1814
ITEM: NUMBER OF ATOMS
16
ITEM: BOX BOUNDS xy xz yz  pp  pp  pp
     -0.300000      4.040544      0.000000
     -0.300000      4.040544      0.000000
     -0.300000      2.769228      0.000000
ITEM: ATOMS id type xs ys zs
     1     1      0.221485      0.223539      0.173783
     2     1      0.650516      0.263697      0.613144
     3     1      0.315871      0.797943      0.513368
     4     1      0.823019      0.709315      1.034517
     5     2      0.861662      1.029210      0.191789
     6     2      0.528351      1.018532      1.048336
     7     2      0.990960      0.463490      0.236988
     8     2      0.503597      0.700010      1.042490
     9     2      0.927792      0.228500      0.768749
    10     2      0.387807      1.054833      0.765343
    11     2      0.167375      0.491600      0.699948
    12     2      0.495477      0.523087      0.447664
    13     2      0.160558      0.328676      0.659426
    14     2      0.855222      0.156989      0.101798
    15     2      0.320615      0.675862      1.044958
    16     2      0.922351      0.724310      0.577532
ITEM: TIMESTEP
1815
ITEM: NUMBER OF ATOMS
16
ITEM: BOX BOUNDS xy xz yz  pp  pp  pp
     -0.300000      4.040544      0.000000
     -0.300000      4.040544      0.000000
     -0.300000      2.769228      0.000000
ITEM: ATOMS id type xs ys zs
     1     1      0.221512      0.224224      0.173130
     2     1      0.650644      0.264225      0.613550
     3     1      0.315739      0.797437      0.513616
     4     1      0.822956      0.708964      1.034431
     5     2      0.861996      1.029123      0.191075
     6     2      0.528081      1.018804      1.047747
     7     2      0.991374      0.463089      0.237244
     8     2      0.503434      0.699766      1.043150
     9     2      0.928557      0.228323      0.768456
    10     2      0.388185      1.054842      0.765750
    11     2      0.167053      0.491893      0.699131
    12     2      0.495631      0.523574      0.447524
    13     2      0.160515      0.328229      0.658906
    14     2      0.854911      0.157389      0.101016
    15     2      0.320766      0.676616      1.044856
    16     2      0.922118      0.724380      0.578093
ITEM: TIMESTEP
1816
ITEM: NUMBER OF ATOMS
16
ITEM: BOX BOUNDS xy xz yz  pp  pp  pp
     -0.300000      4.040544      0.000000
     -0.300000      4.040544      0.000000
     -0.300000      2.769228      0.000000
ITEM: ATOMS id type xs ys zs
     1     1      0.221840      0.224098      0.172639
     2     1      0.650674      0.264298      0.613963
     3     1      0.315958      0.797573      0.512968
     4     1      0.822600      0.708895      1.034233
     5     2      0.861760      1.029251      0.190595
     6     2      0.528000      1.019197      1.047250
     7     2      0.991523      0.462789      0.238113
     8     2      0.503599      0.699309      1.043388
     9     2      0.928917      0.228203      0.768068
    10     2      0.388921      1.054731      0.765601
    11     2      0.167198      0.492124      0.698201
    12     2      0.496122      0.523680      0.447169
    13     2      0.160876      0.328391      0.658654
    14     2      0.854654      0.157391      0.100989
    15     2      0.320577      0.676931      1.044764
    16     2      0.921497      0.724157      0.577833
ITEM: TIMESTEP
1817
ITEM: NUMBER OF ATOMS
16
ITEM: BOX BOUNDS xy xz yz  pp  pp  pp
     -0.300000      4.040544      0.000000
     -0.300000      4.040544      0.000000
     -0.300000      2.769228      0.000000
ITEM: ATOMS id type xs ys zs
     1     1      0.221793      0.224598      0.172176
     2     1      0.651699      0.264364      0.614023
     3     1      0.316601      0.797385      0.512688
     4     1      0.822220      0.708736      1.033315
     5     2      0.862368      1.029162      0.190627
     6     2      0.527461      1.019326      1.046161
     7     2      0.991068      0.462951      0.238855
     8     2      0.503530      0.699266      1.043468
     9     2      0.929215      0.227840      0.767557
    10     2      0.388830      1.054801      0.766679
    11     2      0.167782      0.491432      0.698035
    12     2      0.496432      0.523861      0.448038
    13     2      0.161504      0.328071      0.658681
    14     2      0.854592      0.157603      0.100600
    15     2      0.321047      0.676996      1.044044
    16     2      0.921991      0.723790      0.577766
ITEM: TIMESTEP
1818
ITEM: NUMBER OF ATOMS
16
ITEM: BOX BOUNDS xy xz yz  pp  pp  pp
     -0.300000      4.040544      0.000000
     -0.300000      4.040544      0.000000
     -0.300000      2.769228      0.000000
ITEM: ATOMS id type xs ys zs
     1     1      0.222045      0.224849      0.172276
     2     1      0.651684      0.264641      0.613650
     3     1      0.316334      0.797763      0.513029
     4     1      0.822040      0.708560      1.032984
     5     2      0.862333      1.029388      0.190095
     6     2      0.527305      1.019151      1.045495
     7     2      0.990278      0.463156      0.238786
     8     2      0.503455      0.699474      1.043558
     9     2      0.929706      0.227596      0.767055
    10     2      0.388353      1.054906      0.767062
    11     2      0.167778      0.491085      0.697509
    12     2      0.496968      0.523836      0.448427
    13     2      0.161417      0.328326      0.659229
    14     2      0.854831      0.158125      0.100786
    15     2      0.321121      0.677238      1.044025
    16     2      0.922324      0.724009      0.577429
ITEM: TIMESTEP
1819
ITEM: NUMBER OF ATOMS
16
ITEM: BOX BOUNDS xy xz yz  pp  pp  pp
     -0.300000      4.040544      0.000000
     -0.300000      4.040544      0.000000
     -0.300000      2.769228      0.000000
ITEM: ATOMS id type xs ys zs
     1     1      0.221823      0.225246      0.172182
     2     1      0.652495      0.265122      0.614566
     3     1      0.315733      0.797974      0.512889
     4     1      0.822732      0.708457      1.033481
     5     2      0.862586      1.028831      0.189779
     6     2      0.527321      1.019082      1.045669
     7     2      0.990295      0.463353      0.238922
     8     2      0.503564      0.699361      1.043188
     9     2      0.930420      0.227306      0.766451
    10     2      0.388223      1.055074      0.767778
    11     2      0.167597      0.491125      0.697322
    12     2      0.497309      0.523818      0.448895
    13     2      0.161431      0.327969      0.659073
    14     2      0.854539      0.158043      0.100692
    15     2      0.321190      0.677946      1.043555
    16     2      0.921992      0.723923      0.578479
ITEM: TIMESTEP
1820
ITEM: NUMBER OF ATOMS
16
ITEM: BOX BOUNDS xy xz yz  pp  pp  pp
     -0.300000      4.040544      0.000000
     -0.300000      4.040544      0.000000
     -0.300000      2.769228      0.000000
ITEM: ATOMS id type xs ys zs
     1     1      0.221907      0.225925      0.172500
     2     1      0.652501      0.265628      0.614167
     3     1      0.315492      0.797672      0.513099
     4     1      0.822826      0.707853      1.033603
     5     2      0.862212      1.028990      0.188963
     6     2      0.526947      1.018975      1.046356
     7     2      0.990170      0.463302      0.238679
     8     2      0.503699      0.699447      1.042631
     9     2      0.930726      0.226879      0.766127
    10     2      0.388071      1.055138      0.767264
    11     2      0.167569      0.491379      0.696541
    12     2      0.497532      0.523990      0.448924
    13     2      0.161926      0.326473      0.660065
    14     2      0.854414      0.158052      0.100830
    15     2      0.321338      0.678364      1.044405
    16     2      0.921763      0.723516      0.578087
ITEM: TIMESTEP
1821
ITEM: NUMBER OF ATOMS
16
ITEM: BOX BOUNDS xy xz yz  pp  pp  pp
     -0.300000      4.040544      0.000000
     -0.300000      4.040544      0.000000
     -0.300000      2.769228      0.000000
ITEM: ATOMS id type xs ys zs
     1     1      0.221845      0.225903      0.172125
     2     1      0.652050      0.265065      0.614138
     3     1      0.315567      0.797534      0.514040
     4     1      0.822769      0.707602      1.033421
     5     2      0.862588      1.028994      0.188958
     6     2      0.527266      1.019034      1.045977
     7     2      0.990281      0.462992      0.239209
     8     2      0.503900      0.699669      1.042666
     9     2      0.931155      0.226828      0.766048
    10     2      0.388619      1.055340      0.767823
    11     2      0.168135      0.491018      0.696692
    12     2      0.497482      0.524013      0.448570
    13     2      0.162210      0.326213      0.660611
    14     2      0.854253      0.158310      0.101306
    15     2      0.321815      0.678478      1.044109
    16     2      0.921581      0.723713      0.578391
ITEM: TIMESTEP
1822
ITEM: NUMBER OF ATOMS
16
ITEM: BOX BOUNDS xy xz yz  pp  pp  pp
     -0.300000      4.040544      0.000000
     -0.300000      4.040544      0.000000
     -0.300000      2.769228      0.000000
ITEM: ATOMS id type xs ys zs
     1     1      0.221823      0.225755      0.171603
     2     1      0.652547      0.265254      0.614761
     3     1      0.315252      0.797190      0.514005
     4     1      0.822869      0.707471      1.033569
     5     2      0.862808      1.028468      0.188398
     6     2      0.527044      1.019152      1.046095
     7     2      0.989948      0.462492      0.239281
     8     2      0.503955      0.699575      1.043018
     9     2      0.931623      0.226149      0.766435
    10     2      0.388412      1.055506      0.768151
    11     2      0.168689      0.491337      0.696061
    12     2      0.497264      0.524140      0.448583
    13     2      0.162304      0.325959      0.661138
    14     2      0.854193      0.158890      0.102084
    15     2      0.321462      0.678226      1.044549
    16     2      0.921559      0.723444      0.578766
ITEM: TIMESTEP
1823
ITEM: NUMBER OF ATOMS
16
ITEM: BOX BOUNDS xy xz yz  pp  pp  pp
     -0.300000      4.040544      0.000000
     -0.300000      4.040544      0.000000
     -0.300000      2.769228      0.000000
ITEM: ATOMS id type xs ys zs
     1     1      0.221839      0.225802      0.172301
     2     1      0.653233      0.265451      0.614687
     3     1      0.315011      0.797383      0.514644
     4     1      0.822829      0.707200      1.033414
     5     2      0.862913      1.028693      0.188381
     6     2      0.527196      1.018952      1.046486
     7     2      0.989370      0.461951      0.239599
     8     2      0.504250      0.699684      1.043104
     9     2      0.931993      0.225873      0.766079
    10     2      0.388514      1.055053      0.769017
    11     2      0.168364      0.491235      0.695849
    12     2      0.497594      0.523942      0.448083
    13     2      0.161827      0.325581      0.661244
    14     2      0.853884      0.159177      0.102338
    15     2      0.321492      0.678316      1.044223
    16     2      0.921476      0.723817      0.579672
ITEM: TIMESTEP
1824
ITEM: NUMBER OF ATOMS
16
ITEM: BOX BOUNDS xy xz yz  pp  pp  pp
     -0.300000      4.040544      0.000000
     -0.300000      4.040544      0.000000
     -0.300000      2.769228      0.000000
ITEM: ATOMS id type xs ys zs
     1     1      0.221857      0.225449      0.172882
     2     1      0.653342      0.264951      0.613965
     3     1      0.315492      0.797545      0.514776
     4     1      0.823418      0.707230      1.032845
     5     2      0.862920      1.028558      0.187898
     6     2      0.526821      1.019072      1.046361
     7     2      0.989466      0.462258      0.238999
     8     2      0.504313      0.699167      1.043772
     9     2      0.932476      0.225606      0.766167
    10     2      0.388371      1.054948      0.769862
    11     2      0.168336      0.491217      0.695686
    12     2      0.498261      0.523886      0.448085
    13     2      0.161787      0.325193      0.660812
    14     2      0.852774      0.159655      0.102553
    15     2      0.321303      0.678871      1.044756
    16     2      0.921284      0.723814      0.579581
ITEM: TIMESTEP
1825
ITEM: NUMBER OF ATOMS
16
ITEM: BOX BOUNDS xy xz yz  pp  pp  pp
     -0.300000      4.040544      0.000000
     -0.300000      4.040544      0.000000
     -0.300000      2.769228      0.000000
ITEM: ATOMS id type xs ys zs
     1     1      0.221544      0.225108      0.172674
     2     1      0.652639      0.264692      0.614733
     3     1      0.315706      0.796911      0.514534
     4     1      0.822933      0.707475      1.032160
     5     2      0.863222      1.028747      0.187017
     6     2      0.526873      1.019396      1.047048
     7     2      0.989253      0.462285      0.239151
     8     2      0.503914      0.699645      1.044299
     9     2      0.932885      0.225372      0.765379
    10     2      0.388576      1.055742      0.769346
    11     2      0.168448      0.490996      0.695709
    12     2      0.498425      0.524034      0.447838
    13     2      0.161492      0.324715      0.661332
    14     2      0.852493      0.160083      0.102083
    15     2      0.321495      0.679412      1.045474
    16     2      0.921464      0.723684      0.579099
ITEM: TIMESTEP
1826
ITEM: NUMBER OF ATOMS
16
ITEM: BOX BOUNDS xy xz yz  pp  pp  pp
     -0.300000      4.040544      0.000000
     -0.300000      4.040544      0.000000
     -0.300000      2.769228      0.000000
ITEM: ATOMS id type xs ys zs
     1     1      0.222212      0.225178      0.172197
     2     1      0.653062      0.264756      0.614020
     3     1      0.316076      0.796335      0.515587
     4     1      0.822905      0.707029      1.031971
     5     2      0.863228      1.028339      0.186765
     6     2      0.527171      1.019537      1.046796
     7     2      0.989386      0.462217      0.239738
     8     2      0.504336      0.699004      1.044382
     9     2      0.932821      0.224557      0.766119
    10     2      0.388452      1.055580      0.770296
    11     2      0.168569      0.490488      0.695644
    12     2      0.498648      0.524314      0.447593
    13     2      0.161368      0.324446      0.661117
    14     2      0.851742      0.160263      0.102702
    15     2      0.321791      0.680368      1.046200
    16     2      0.921886      0.724024      0.578472
ITEM: TIMESTEP
1827
ITEM: NUMBER OF ATOMS
16
ITEM: BOX BOUNDS xy xz yz  pp  pp  pp
     -0.300000      4.040544      0.000000
     -0.300000      4.040544      0.000000
     -0.300000      2.769228      0.000000
ITEM: ATOMS id type xs ys zs
     1     1      0.222593      0.225165      0.173010
     2     1      0.653108      0.264420      0.614333
     3     1      0.316020      0.796225      0.516743
     4     1      0.823066      0.707408      1.031691
     5     2      0.863331      1.027840      0.186675
     6     2      0.527763      1.019600      1.046118
     7     2      0.989414      0.462597      0.240292
     8     2      0.504442      0.698885      1.044118
     9     2      0.933178      0.224094      0.766031
    10     2      0.388456      1.056064      0.770160
    11     2      0.168056      0.490496      0.695198