ITEM: TIMESTEP
1801
ITEM: NUMBER OF ATOMS
16
ITEM: BOX BOUNDS xy xz yz  pp  pp  pp
     -0.300000      4.040544      0.000000
     -0.300000      4.040544      0.000000
     -0.300000      2.769228      0.000000
ITEM: ATOMS id type xs ys zs
     1     1      0.218059      0.222321      0.171734
     2     1      0.652435      0.262326      0.616682
     3     1      0.318557      0.801529      0.513110
     4     1      0.823450      0.713030      1.037533
     5     2      0.861035      1.028617      0.193296
     6     2      0.531785      1.017163      1.048084
     7     2      0.990530      0.463785      0.236344
     8     2      0.504252      0.701182      1.039469
     9     2      0.921910      0.229100      0.765713
    10     2      0.387058      1.054295      0.760725
    11     2      0.169378      0.494325      0.702658
    12     2      0.497945      0.521876      0.445806
    13     2      0.160616      0.329391      0.655838
    14     2      0.857141      0.152476      0.103874
    15     2      0.322592      0.669827      1.045552
    16     2      0.922779      0.722838      0.581018
ITEM: TIMESTEP
1802
ITEM: NUMBER OF ATOMS
16
ITEM: BOX BOUNDS xy xz yz  pp  pp  pp
     -0.300000      4.040544      0.000000
     -0.300000      4.040544      0.000000
     -0.300000      2.769228      0.000000
ITEM: ATOMS id type xs ys zs
     1     1      0.218782      0.222605      0.171882
     2     1      0.652450      0.262407      0.616334
     3     1      0.318636      0.801799      0.513505
     4     1      0.822978      0.712694      1.037426
     5     2      0.861514      1.027964      0.192806
     6     2      0.532102      1.017602      1.047408
     7     2      0.990233      0.463800      0.235731
     8     2      0.504385      0.701182      1.039641
     9     2      0.921882      0.228319      0.764704
    10     2      0.387010      1.054562      0.760842
    11     2      0.168948      0.493856      0.701519
    12     2      0.498579      0.521295      0.446223
    13     2      0.160296      0.329022      0.655745
    14     2      0.857125      0.152427      0.104176
    15     2      0.322131      0.670341      1.046028
    16     2      0.922205      0.722354      0.580791
ITEM: TIMESTEP
1803
ITEM: NUMBER OF ATOMS
16
ITEM: BOX BOUNDS xy xz yz  pp  pp  pp
     -0.300000      4.040544      0.000000
     -0.300000      4.040544      0.000000
     -0.300000      2.769228      0.000000
ITEM: ATOMS id type xs ys zs
     1     1      0.219145      0.222659      0.172046
     2     1      0.652276      0.262433      0.615711
     3     1      0.318616      0.801872      0.514185
     4     1      0.823402      0.712342      1.037599
     5     2      0.861896      1.028108      0.192063
     6     2      0.531896      1.017603      1.047759
     7     2      0.989963      0.463956      0.235077
     8     2      0.504397      0.701159      1.039499
     9     2      0.921873      0.228031      0.765196
    10     2      0.387193      1.054708      0.760745
    11     2      0.168433      0.493318      0.702213
    12     2      0.498730      0.521646      0.446160
    13     2      0.160534      0.328829      0.656384
    14     2      0.856844      0.152603      0.104291
    15     2      0.321422      0.671184      1.046626
    16     2      0.922168      0.722502      0.580925
ITEM: TIMESTEP
1804
ITEM: NUMBER OF ATOMS
16
ITEM: BOX BOUNDS xy xz yz  pp  pp  pp
     -0.300000      4.040544      0.000000
     -0.300000      4.040544      0.000000
     -0.300000      2.769228      0.000000
ITEM: ATOMS id type xs ys zs
     1     1      0.219278      0.223001      0.171413
     2     1      0.652118      0.262726      0.615558
     3     1      0.318103      0.801494      0.514140
     4     1      0.823719      0.711450      1.037326
     5     2      0.862152      1.028592      0.191758
     6     2      0.531667      1.016955      1.046912
     7     2      0.990083      0.464454      0.235133
     8     2      0.504593      0.700333      1.039798
     9     2      0.922379      0.228155      0.764329
    10     2      0.386837      1.054791      0.761489
    11     2      0.168644      0.492762      0.702652
    12     2      0.498918      0.521634      0.445527
    13     2      0.160664      0.328414      0.656363
    14     2      0.856903      0.153107      0.104022
    15     2      0.321491      0.671399      1.047100
    16     2      0.922694      0.722771      0.580367
ITEM: TIMESTEP
1805
ITEM: NUMBER OF ATOMS
16
ITEM: BOX BOUNDS xy xz yz  pp  pp  pp
     -0.300000      4.040544      0.000000
     -0.300000      4.040544      0.000000
     -0.300000      2.769228      0.000000
ITEM: ATOMS id type xs ys zs
     1     1      0.218795      0.223055      0.171900
     2     1      0.651482      0.262836      0.614407
     3     1      0.317665      0.801124      0.514510
     4     1      0.823750      0.710845      1.036641
     5     2      0.862412      1.028424      0.191269
     6     2      0.531735      1.017484      1.046272
     7     2      0.989565      0.464645      0.236827
     8     2      0.505083      0.699416      1.039515
     9     2      0.922759      0.228653      0.764868
    10     2      0.386957      1.055464      0.762453
    11     2      0.168410      0.492805      0.702311
    12     2      0.497888      0.521547      0.445250
    13     2      0.160705      0.328332      0.655696
    14     2      0.857361      0.153313      0.104615
    15     2      0.321367      0.671729      1.047092
    16     2      0.922961      0.722208      0.581320
ITEM: TIMESTEP
1806
ITEM: NUMBER OF ATOMS
16
ITEM: BOX BOUNDS xy xz yz  pp  pp  pp
     -0.300000      4.040544      0.000000
     -0.300000      4.040544      0.000000
     -0.300000      2.769228      0.000000
ITEM: ATOMS id type xs ys zs
     1     1      0.218718      0.223827      0.171895
     2     1      0.651374      0.262979      0.614109
     3     1      0.317320      0.801104      0.515715
     4     1      0.823990      0.710756      1.036880
     5     2      0.862447      1.028845      0.190142
     6     2      0.532187      1.017878      1.046223
     7     2      0.989551      0.464761      0.238008
     8     2      0.504609      0.699223      1.039453
     9     2      0.923101      0.228262      0.764982
    10     2      0.386823      1.055238      0.762740
    11     2      0.168151      0.493215      0.702329
    12     2      0.497684      0.521621      0.444402
    13     2      0.161161      0.327977      0.656362
    14     2      0.857035      0.153118      0.104740
    15     2      0.320993      0.671350      1.047025
    16     2      0.922609      0.722650      0.581281
ITEM: TIMESTEP
1807
ITEM: NUMBER OF ATOMS
16
ITEM: BOX BOUNDS xy xz yz  pp  pp  pp
     -0.300000      4.040544      0.000000
     -0.300000      4.040544      0.000000
     -0.300000      2.769228      0.000000
ITEM: ATOMS id type xs ys zs
     1     1      0.218693      0.224189      0.172213
     2     1      0.651534      0.262740      0.613153
     3     1      0.317198      0.801124      0.515944
     4     1      0.823622      0.710072      1.036421
     5     2      0.862876      1.029266      0.190538
     6     2      0.532576      1.017928      1.045938
     7     2      0.989517      0.464794      0.237873
     8     2      0.504438      0.699078      1.038927
     9     2      0.923795      0.228832      0.765415
    10     2      0.386732      1.055445      0.762645
    11     2      0.167690      0.493129      0.702017
    12     2      0.497800      0.521424      0.445266
    13     2      0.161397      0.327645      0.656088
    14     2      0.856283      0.153188      0.104185
    15     2      0.321026      0.672074      1.047315
    16     2      0.922799      0.722512      0.580832
ITEM: TIMESTEP
1808
ITEM: NUMBER OF ATOMS
16
ITEM: BOX BOUNDS xy xz yz  pp  pp  pp
     -0.300000      4.040544      0.000000
     -0.300000      4.040544      0.000000
     -0.300000      2.769228      0.000000
ITEM: ATOMS id type xs ys zs
     1     1      0.218522      0.224271      0.171458
     2     1      0.651367      0.263096      0.612627
     3     1      0.318167      0.801114      0.516333
     4     1      0.823484      0.709642      1.036510
     5     2      0.862982      1.029362      0.190194
     6     2      0.532705      1.018606      1.045471
     7     2      0.989358      0.464569      0.238271
     8     2      0.504386      0.699090      1.038644
     9     2      0.924491      0.228193      0.764617
    10     2      0.386404      1.055689      0.762311
    11     2      0.167692      0.493575      0.701912
    12     2      0.497748      0.521899      0.444694
    13     2      0.161400      0.327945      0.656038
    14     2      0.855997      0.153093      0.103416
    15     2      0.320580      0.672269      1.047292
    16     2      0.922175      0.722225      0.580372
ITEM: TIMESTEP
1809
ITEM: NUMBER OF ATOMS
16
ITEM: BOX BOUNDS xy xz yz  pp  pp  pp
     -0.300000      4.040544      0.000000
     -0.300000      4.040544      0.000000
     -0.300000      2.769228      0.000000
ITEM: ATOMS id type xs ys zs
     1     1      0.218631      0.224549      0.171406
     2     1      0.651084      0.262762      0.613119
     3     1      0.317936      0.801510      0.516510
     4     1      0.823381      0.709402      1.036944
     5     2      0.863019      1.029949      0.189133
     6     2      0.532532      1.018995      1.046086
     7     2      0.989940      0.464083      0.239132
     8     2      0.504949      0.698835      1.038749
     9     2      0.924729      0.228078      0.764522
    10     2      0.386750      1.055726      0.762302
    11     2      0.167851      0.493626      0.701846
    12     2      0.498184      0.522129      0.444802
    13     2      0.161642      0.327428      0.655579
    14     2      0.855685      0.153117      0.102662
    15     2      0.320373      0.672492      1.047862
    16     2      0.922422      0.721960      0.580346
ITEM: TIMESTEP
1810
ITEM: NUMBER OF ATOMS
16
ITEM: BOX BOUNDS xy xz yz  pp  pp  pp
     -0.300000      4.040544      0.000000
     -0.300000      4.040544      0.000000
     -0.300000      2.769228      0.000000
ITEM: ATOMS id type xs ys zs
     1     1      0.218353      0.224743      0.171527
     2     1      0.650527      0.262480      0.612661
     3     1      0.316832      0.801260      0.517136
     4     1      0.823423      0.709374      1.037303
     5     2      0.863141      1.030281      0.188528
     6     2      0.532554      1.019123      1.044826
     7     2      0.989245      0.464154      0.239289
     8     2      0.505422      0.698435      1.039559
     9     2      0.925186      0.227879      0.764439
    10     2      0.387249      1.055955      0.762674
    11     2      0.167188      0.493485      0.700820
    12     2      0.497552      0.521777      0.445126
    13     2      0.161937      0.327387      0.655487
    14     2      0.855187      0.152421      0.101770
    15     2      0.320473      0.672821      1.047165
    16     2      0.922673      0.721456      0.580218
ITEM: TIMESTEP
1811
ITEM: NUMBER OF ATOMS
16
ITEM: BOX BOUNDS xy xz yz  pp  pp  pp
     -0.300000      4.040544      0.000000
     -0.300000      4.040544      0.000000
     -0.300000      2.769228      0.000000
ITEM: ATOMS id type xs ys zs
     1     1      0.217974      0.224415      0.171299
     2     1      0.650571      0.263084      0.612115
     3     1      0.317403      0.800977      0.517733
     4     1      0.823422      0.709375      1.037266
     5     2      0.863180      1.030026      0.188356
     6     2      0.532321      1.019001      1.045156
     7     2      0.989426      0.464540      0.238973
     8     2      0.505571      0.698389      1.039962
     9     2      0.925705      0.227927      0.763881
    10     2      0.387419      1.056626      0.762771
    11     2      0.167515      0.493609      0.700462
    12     2      0.497218      0.521925      0.444965
    13     2      0.162026      0.327032      0.655087
    14     2      0.854836      0.152570      0.102221
    15     2      0.320329      0.673213      1.046939
    16     2      0.922445      0.722026      0.579760
ITEM: TIMESTEP
1812
ITEM: NUMBER OF ATOMS
16
ITEM: BOX BOUNDS xy xz yz  pp  pp  pp
     -0.300000      4.040544      0.000000
     -0.300000      4.040544      0.000000
     -0.300000      2.769228      0.000000
ITEM: ATOMS id type xs ys zs
     1     1      0.218719      0.224140      0.171092
     2     1      0.651172      0.263100      0.612054
     3     1      0.317224      0.800247      0.517617
     4     1      0.823097      0.708720      1.036172
     5     2      0.863695      1.029794      0.187807
     6     2      0.532136      1.019028      1.045933
     7     2      0.989174      0.464326      0.239500
     8     2      0.505890      0.698178      1.039984
     9     2      0.925518      0.227890      0.763677
    10     2      0.386849      1.056255      0.763098
    11     2      0.167561      0.493644      0.700044
    12     2      0.497393      0.522883      0.446119
    13     2      0.162288      0.326532      0.655130
    14     2      0.854511      0.153657      0.101488
    15     2      0.320691      0.673638      1.047401
    16     2      0.922049      0.721805      0.579579
ITEM: TIMESTEP
1813
ITEM: NUMBER OF ATOMS
16
ITEM: BOX BOUNDS xy xz yz  pp  pp  pp
     -0.300000      4.040544      0.000000
     -0.300000      4.040544      0.000000
     -0.300000      2.769228      0.000000
ITEM: ATOMS id type xs ys zs
     1     1      0.219087      0.223631      0.171080
     2     1      0.651227      0.262905      0.611441
     3     1      0.316831      0.800050      0.517061
     4     1      0.822719      0.708993      1.036128
     5     2      0.864030      1.029638      0.187874
     6     2      0.531871      1.019728      1.045588
     7     2      0.989006      0.464185      0.239425
     8     2      0.505677      0.698134      1.039701
     9     2      0.925813      0.228258      0.764006
    10     2      0.386607      1.056898      0.762517
    11     2      0.167481      0.493603      0.699538
    12     2      0.497350      0.522810      0.446313
    13     2      0.162426      0.326004      0.655726
    14     2      0.854166      0.153445      0.101877
    15     2      0.320447      0.673387      1.047149
    16     2      0.922313      0.722211      0.579933
ITEM: TIMESTEP
1814
ITEM: NUMBER OF ATOMS
16
ITEM: BOX BOUNDS xy xz yz  pp  pp  pp
     -0.300000      4.040544      0.000000
     -0.300000      4.040544      0.000000
     -0.300000      2.769228      0.000000
ITEM: ATOMS id type xs ys zs
     1     1      0.218499      0.223838      0.171511
     2     1      0.651057      0.262931      0.611178
     3     1      0.316825      0.799744      0.516992
     4     1      0.822748      0.709483      1.036437
     5     2      0.864696      1.029454      0.187828
     6     2      0.531846      1.019828      1.045797
     7     2      0.989235      0.464284      0.239778
     8     2      0.505476      0.698057      1.039725
     9     2      0.926337      0.228275      0.763968
    10     2      0.386327      1.056743      0.763160
    11     2      0.167550      0.493127      0.698747
    12     2      0.497355      0.522840      0.446086
    13     2      0.163208      0.326307      0.655295
    14     2      0.853943      0.153794      0.101774
    15     2      0.320591      0.674034      1.047438
    16     2      0.922215      0.722383      0.580207
ITEM: TIMESTEP
1815
ITEM: NUMBER OF ATOMS
16
ITEM: BOX BOUNDS xy xz yz  pp  pp  pp
     -0.300000      4.040544      0.000000
     -0.300000      4.040544      0.000000
     -0.300000      2.769228      0.000000
ITEM: ATOMS id type xs ys zs
     1     1      0.218285      0.224165      0.172026
     2     1      0.651963      0.263089      0.610548
     3     1      0.316614      0.799496      0.516802
     4     1      0.822253      0.709153      1.037388
     5     2      0.865348      1.029790      0.187037
     6     2      0.531671      1.020179      1.045964
     7     2      0.988865      0.464692      0.238670
     8     2      0.505376      0.698140      1.039957
     9     2      0.927095      0.228208      0.764069
    10     2      0.386297      1.056585      0.764310
    11     2      0.167707      0.493322      0.697810
    12     2      0.497005      0.522987      0.446384
    13     2      0.163010      0.326515      0.654678
    14     2      0.853378      0.153700      0.101390
    15     2      0.321184      0.674676      1.047943
    16     2      0.921974      0.722497      0.579537
ITEM: TIMESTEP
1816
ITEM: NUMBER OF ATOMS
16
ITEM: BOX BOUNDS xy xz yz  pp  pp  pp
     -0.300000      4.040544      0.000000
     -0.300000      4.040544      0.000000
     -0.300000      2.769228      0.000000
ITEM: ATOMS id type xs ys zs
     1     1      0.218246      0.224236      0.172258
     2     1      0.651987      0.263394      0.610321
     3     1      0.316643      0.799703      0.517086
     4     1      0.823251      0.708845      1.036617
     5     2      0.865493      1.029703      0.187265
     6     2      0.531629      1.019132      1.045640
     7     2      0.988706      0.464492      0.238607
     8     2      0.505237      0.697715      1.040280
     9     2      0.927596      0.228333      0.763683
    10     2      0.386754      1.057175      0.763963
    11     2      0.168208      0.493698      0.698570
    12     2      0.497602      0.523201      0.446212
    13     2      0.163071      0.326022      0.654056
    14     2      0.853219      0.154256      0.101477
    15     2      0.320611      0.675025      1.048131
    16     2      0.921961      0.722677      0.579929
ITEM: TIMESTEP
1817
ITEM: NUMBER OF ATOMS
16
ITEM: BOX BOUNDS xy xz yz  pp  pp  pp
     -0.300000      4.040544      0.000000
     -0.300000      4.040544      0.000000
     -0.300000      2.769228      0.000000
ITEM: ATOMS id type xs ys zs
     1     1      0.218512      0.224061      0.172548
     2     1      0.652164      0.263094      0.609401
     3     1      0.316713      0.799660      0.517723
     4     1      0.823523      0.708985      1.036555
     5     2      0.865333      1.029563      0.186899
     6     2      0.531486      1.019242      1.046089
     7     2      0.988738      0.464356      0.239547
     8     2      0.505422      0.697110      1.041097
     9     2      0.927720      0.228673      0.763802
    10     2      0.386818      1.057232      0.764152
    11     2      0.167861      0.493536      0.699197
    12     2      0.497546      0.523598      0.446017
    13     2      0.162951      0.325699      0.654885
    14     2      0.853144      0.153979      0.101138
    15     2      0.320378      0.675843      1.049062
    16     2      0.922009      0.722892      0.580660
ITEM: TIMESTEP
1818
ITEM: NUMBER OF ATOMS
16
ITEM: BOX BOUNDS xy xz yz  pp  pp  pp
     -0.300000      4.040544      0.000000
     -0.300000      4.040544      0.000000
     -0.300000      2.769228      0.000000
ITEM: ATOMS id type xs ys zs
     1     1      0.218877      0.224206      0.173775
     2     1      0.651906      0.263339      0.609463
     3     1      0.316451      0.798787      0.518023
     4     1      0.823641      0.709006      1.035888
     5     2      0.865410      1.029366      0.187690
     6     2      0.530862      1.019721      1.046504
     7     2      0.989005      0.464444      0.239995
     8     2      0.505624      0.696990      1.040674
     9     2      0.927850      0.228802      0.763493
    10     2      0.387050      1.057694      0.764893
    11     2      0.167509      0.493422      0.698984
    12     2      0.497680      0.523872      0.445589
    13     2      0.163446      0.325184      0.655096
    14     2      0.852842      0.154063      0.102156
    15     2      0.320808      0.675982      1.049078
    16     2      0.922116      0.723114      0.580062
ITEM: TIMESTEP
1819
ITEM: NUMBER OF ATOMS
16
ITEM: BOX BOUNDS xy xz yz  pp  pp  pp
     -0.300000      4.040544      0.000000
     -0.300000      4.040544      0.000000
     -0.300000      2.769228      0.000000
ITEM: ATOMS id type xs ys zs
     1     1      0.218315      0.223931      0.173874
     2     1      0.651852      0.264280      0.609820
     3     1      0.316358      0.798302      0.518917
     4     1      0.823295      0.708846      1.035677
     5     2      0.865299      1.028933      0.187354
     6     2      0.530068      1.019275      1.046613
     7     2      0.989300      0.464635      0.240470
     8     2      0.505631      0.696811      1.041282
     9     2      0.928286      0.228976      0.763094
    10     2      0.387185      1.057799      0.764923
    11     2      0.167489      0.492666      0.698449
    12     2      0.497775      0.523737      0.445816
    13     2      0.163439      0.324783      0.654575
    14     2      0.852659      0.154038      0.101760
    15     2      0.321120      0.676459      1.048569
    16     2      0.922181      0.722970      0.580338
ITEM: TIMESTEP
1820
ITEM: NUMBER OF ATOMS
16
ITEM: BOX BOUNDS xy xz yz  pp  pp  pp
     -0.300000      4.040544      0.000000
     -0.300000      4.040544      0.000000
     -0.300000      2.769228      0.000000
ITEM: ATOMS id type xs ys zs
     1     1      0.218643      0.223856      0.174245
     2     1      0.652105      0.264659      0.608946
     3     1      0.316725      0.798179      0.518929
     4     1      0.823611      0.708668      1.035365
     5     2      0.865415      1.029310      0.187967
     6     2      0.529809      1.019111      1.046745
     7     2      0.989107      0.465111      0.240964
     8     2      0.504900      0.697000      1.041286
     9     2      0.928700      0.229292      0.763794
    10     2      0.387123      1.057953      0.765430
    11     2      0.167331      0.492384      0.697300
    12     2      0.497795      0.523898      0.446391
    13     2      0.163276      0.325136      0.654550
    14     2      0.851456      0.153926      0.100861
    15     2      0.321002      0.676611      1.048222
    16     2      0.921775      0.723029      0.580235
ITEM: TIMESTEP
1821
ITEM: NUMBER OF ATOMS
16
ITEM: BOX BOUNDS xy xz yz  pp  pp  pp
     -0.300000      4.040544      0.000000
     -0.300000      4.040544      0.000000
     -0.300000      2.769228      0.000000
ITEM: ATOMS id type xs ys zs
     1     1      0.219316      0.224201      0.174454
     2     1      0.652446      0.264516      0.608461
     3     1      0.316204      0.797670      0.518083
     4     1      0.823825      0.708330      1.034878
     5     2      0.865670      1.029526      0.187627
     6     2      0.530241      1.019343      1.046476
     7     2      0.988934      0.464561      0.240742
     8     2      0.505012      0.696584      1.041205
     9     2      0.929176      0.229071      0.763631
    10     2      0.387185      1.057988      0.765561
    11     2      0.166925      0.492895      0.696548
    12     2      0.497580      0.524150      0.446728
    13     2      0.163001      0.325025      0.654484
    14     2      0.850666      0.153823      0.101359
    15     2      0.320567      0.677508      1.048621
    16     2      0.922230      0.723593      0.579690
ITEM: TIMESTEP
1822
ITEM: NUMBER OF ATOMS
16
ITEM: BOX BOUNDS xy xz yz  pp  pp  pp
     -0.300000      4.040544      0.000000
     -0.300000      4.040544      0.000000
     -0.300000      2.769228      0.000000
ITEM: ATOMS id type xs ys zs
     1     1      0.219355      0.224218      0.174583
     2     1      0.652941      0.264559      0.607521
     3     1      0.316073      0.797822      0.518429
     4     1      0.822953      0.708507      1.034808
     5     2      0.866074      1.029561      0.187229
     6     2      0.529980      1.019123      1.046063
     7     2      0.988638      0.464610      0.240781
     8     2      0.504890      0.696496      1.041479
     9     2      0.929851      0.228885      0.764246
    10     2      0.386746      1.057233      0.765289
    11     2      0.167156      0.492757      0.695828
    12     2      0.497768      0.523885      0.447702
    13     2      0.163213      0.324650      0.654800
    14     2      0.851220      0.153965      0.101264
    15     2      0.320280      0.678117      1.049159
    16     2      0.922290      0.723148      0.579582
ITEM: TIMESTEP
1823
ITEM: NUMBER OF ATOMS
16
ITEM: BOX BOUNDS xy xz yz  pp  pp  pp
     -0.300000      4.040544      0.000000
     -0.300000      4.040544      0.000000
     -0.300000      2.769228      0.000000
ITEM: ATOMS id type xs ys zs
     1     1      0.219281      0.224505      0.174170
     2     1      0.652775      0.263797      0.607489
     3     1      0.316015      0.796804      0.518154
     4     1      0.822909      0.707704      1.034457
     5     2      0.865379      1.029453      0.187247
     6     2      0.530012      1.019749      1.046297
     7     2      0.988787      0.464548      0.240201
     8     2      0.504477      0.696133      1.041450
     9     2      0.930077      0.227892      0.764208
    10     2      0.386790      1.057127      0.765065
    11     2      0.166918      0.493173      0.695756
    12     2      0.497587      0.523648      0.448213
    13     2      0.163221      0.324739      0.654897
    14     2      0.850727      0.154554      0.102052
    15     2      0.320368      0.678202      1.049396
    16     2      0.921880      0.722794      0.579084
ITEM: TIMESTEP
1824
ITEM: NUMBER OF ATOMS
16
ITEM: BOX BOUNDS xy xz yz  pp  pp  pp
     -0.300000      4.040544      0.000000
     -0.300000      4.040544      0.000000
     -0.300000      2.769228      0.000000
ITEM: ATOMS id type xs ys zs
     1     1      0.220056      0.224349      0.175469
     2     1      0.652527      0.263481      0.607846
     3     1      0.315952      0.796766      0.518208
     4     1      0.822357      0.707767      1.033666
     5     2      0.865430      1.028701      0.187236
     6     2      0.530019      1.019846      1.046399
     7     2      0.989084      0.464707      0.240919
     8     2      0.504620      0.696029      1.042229
     9     2      0.930205      0.228134      0.764413
    10     2      0.387018      1.057630      0.765839
    11     2      0.166769      0.492845      0.695681
    12     2      0.497164      0.524059      0.448238
    13     2      0.163999      0.324382      0.655391
    14     2      0.850411      0.154794      0.102081
    15     2      0.320387      0.678648      1.050140
    16     2      0.921925      0.722813      0.578760
ITEM: TIMESTEP
1825
ITEM: NUMBER OF ATOMS
16
ITEM: BOX BOUNDS xy xz yz  pp  pp  pp
     -0.300000      4.040544      0.000000
     -0.300000      4.040544      0.000000
     -0.300000      2.769228      0.000000
ITEM: ATOMS id type xs ys zs
     1     1      0.219987      0.224578      0.174869
     2     1      0.652678      0.263849      0.606847
     3     1      0.315990      0.797027      0.518046
     4     1      0.822297      0.707546      1.033348
     5     2      0.865718      1.028274      0.187280
     6     2      0.529988      1.019836      1.046562
     7     2      0.989211      0.464290      0.241358
     8     2      0.504636      0.695952      1.041628
     9     2      0.930364      0.228167      0.763846
    10     2      0.386832      1.057696      0.766687
    11     2      0.166744      0.492875      0.694878
    12     2      0.497597      0.523937      0.448135
    13     2      0.163621      0.324448      0.655324
    14     2      0.850316      0.154690      0.102246
    15     2      0.320161      0.678378      1.050462
    16     2      0.921718      0.723167      0.578379
ITEM: TIMESTEP
1826
ITEM: NUMBER OF ATOMS
16
ITEM: BOX BOUNDS xy xz yz  pp  pp  pp
     -0.300000      4.040544      0.000000
     -0.300000      4.040544      0.000000
     -0.300000      2.769228      0.000000
ITEM: ATOMS id type xs ys zs
     1     1      0.219808      0.224783      0.174791
     2     1      0.653128      0.263770      0.606323
     3     1      0.315988      0.796528      0.518578
     4     1      0.822005      0.706741      1.033214
     5     2      0.865344      1.027647      0.187411
     6     2      0.530139      1.019744      1.045576
     7     2      0.988984      0.464566      0.241438
     8     2      0.505457      0.696978      1.041212
     9     2      0.931163      0.228091      0.763786
    10     2      0.386892      1.057510      0.766804
    11     2      0.166356      0.492800      0.694778
    12     2      0.497373      0.523875      0.448594
    13     2      0.164003      0.324293      0.654727
    14     2      0.850514      0.154473      0.102408
    15     2      0.320213      0.678518      1.050862
    16     2      0.921561      0.723032      0.578267
ITEM: TIMESTEP
1827
ITEM: NUMBER OF ATOMS
16
ITEM: BOX BOUNDS xy xz yz  pp  pp  pp
     -0.300000      4.040544      0.000000
     -0.300000      4.040544      0.000000
     -0.300000      2.769228      0.000000
ITEM: ATOMS id type xs ys zs
     1     1      0.219198      0.225141      0.174851
     2     1      0.652869      0.263803      0.605661
     3     1      0.315863      0.796007      0.518693
     4     1      0.822244      0.706799      1.032880
     5     2      0.865446      1.028053      0.187429
     6     2      0.530132      1.019981      1.045272
     7     2      0.988879      0.464551      0.241261
     8     2      0.505990      0.696409      1.041716
     9     2      0.931548      0.227677      0.762856
    10     2      0.387194      1.057788      0.766834
    11     2      0.166589      0.492917      0.693808