ITEM: TIMESTEP
1801
ITEM: NUMBER OF ATOMS
16
ITEM: BOX BOUNDS xy xz yz  pp  pp  pp
     -0.300000      4.040544      0.000000
     -0.300000      4.040544      0.000000
     -0.300000      2.769228      0.000000
ITEM: ATOMS id type xs ys zs
     1     1      0.218522      0.221480      0.171533
     2     1      0.652635      0.262164      0.617820
     3     1      0.317781      0.801051      0.514087
     4     1      0.822850      0.713024      1.037235
     5     2      0.861772      1.029071      0.193360
     6     2      0.531690      1.017866      1.048613
     7     2      0.990352      0.464348      0.236267
     8     2      0.504595      0.701983      1.040001
     9     2      0.921922      0.228858      0.766012
    10     2      0.387520      1.054046      0.761227
    11     2      0.169310      0.493026      0.703356
    12     2      0.498051      0.522485      0.446414
    13     2      0.160774      0.330233      0.656234
    14     2      0.857008      0.152068      0.105079
    15     2      0.322904      0.669599      1.046546
    16     2      0.922945      0.722872      0.581340
ITEM: TIMESTEP
1802
ITEM: NUMBER OF ATOMS
16
ITEM: BOX BOUNDS xy xz yz  pp  pp  pp
     -0.300000      4.040544      0.000000
     -0.300000      4.040544      0.000000
     -0.300000      2.769228      0.000000
ITEM: ATOMS id type xs ys zs
     1     1      0.218296      0.221372      0.171035
     2     1      0.652217      0.262452      0.617744
     3     1      0.317514      0.800762      0.514932
     4     1      0.822691      0.712256      1.037218
     5     2      0.861675      1.028733      0.193722
     6     2      0.531191      1.018616      1.048315
     7     2      0.989969      0.464135      0.236096
     8     2      0.504049      0.701549      1.039671
     9     2      0.922289      0.228295      0.766157
    10     2      0.387542      1.054677      0.761017
    11     2      0.168561      0.493399      0.703366
    12     2      0.498461      0.522656      0.446815
    13     2      0.160898      0.329387      0.656897
    14     2      0.856892      0.152708      0.105736
    15     2      0.322845      0.669613      1.046074
    16     2      0.923085      0.722650      0.581525
ITEM: TIMESTEP
1803
ITEM: NUMBER OF ATOMS
16
ITEM: BOX BOUNDS xy xz yz  pp  pp  pp
     -0.300000      4.040544      0.000000
     -0.300000      4.040544      0.000000
     -0.300000      2.769228      0.000000
ITEM: ATOMS id type xs ys zs
     1     1      0.218458      0.221448      0.171465
     2     1      0.652574      0.262932      0.617572
     3     1      0.317202      0.800562      0.514078
     4     1      0.822857      0.711974      1.037015
     5     2      0.861858      1.028480      0.192627
     6     2      0.531185      1.018875      1.048299
     7     2      0.989992      0.464193      0.236393
     8     2      0.504112      0.701463      1.039535
     9     2      0.922649      0.228162      0.765836
    10     2      0.387746      1.055448      0.761434
    11     2      0.168666      0.493341      0.702158
    12     2      0.497842      0.522578      0.446773
    13     2      0.161026      0.329117      0.656971
    14     2      0.856962      0.152565      0.106225
    15     2      0.322760      0.669681      1.045992
    16     2      0.923604      0.722779      0.582231
ITEM: TIMESTEP
1804
ITEM: NUMBER OF ATOMS
16
ITEM: BOX BOUNDS xy xz yz  pp  pp  pp
     -0.300000      4.040544      0.000000
     -0.300000      4.040544      0.000000
     -0.300000      2.769228      0.000000
ITEM: ATOMS id type xs ys zs
     1     1      0.218546      0.221885      0.171295
     2     1      0.652454      0.262911      0.616826
     3     1      0.316971      0.799956      0.514334
     4     1      0.822893      0.711078      1.037197
     5     2      0.862464      1.028792      0.192371
     6     2      0.531147      1.019520      1.048142
     7     2      0.990377      0.464232      0.236454
     8     2      0.504168      0.700563      1.040225
     9     2      0.922885      0.227956      0.765440
    10     2      0.387219      1.054939      0.761809
    11     2      0.168444      0.492932      0.701526
    12     2      0.497612      0.521927      0.446950
    13     2      0.161343      0.329241      0.657768
    14     2      0.856686      0.152961      0.105597
    15     2      0.321869      0.670020      1.045708
    16     2      0.923519      0.722837      0.582353
ITEM: TIMESTEP
1805
ITEM: NUMBER OF ATOMS
16
ITEM: BOX BOUNDS xy xz yz  pp  pp  pp
     -0.300000      4.040544      0.000000
     -0.300000      4.040544      0.000000
     -0.300000      2.769228      0.000000
ITEM: ATOMS id type xs ys zs
     1     1      0.218612      0.221940      0.171937
     2     1      0.652808      0.262634      0.615900
     3     1      0.316722      0.799206      0.514392
     4     1      0.822972      0.710644      1.036682
     5     2      0.862538      1.028751      0.191550
     6     2      0.531707      1.019656      1.047792
     7     2      0.990202      0.464128      0.236666
     8     2      0.503411      0.700473      1.039848
     9     2      0.923712      0.228119      0.765594
    10     2      0.387288      1.054941      0.762070
    11     2      0.169024      0.492754      0.701785
    12     2      0.497285      0.522393      0.447164
    13     2      0.160931      0.328812      0.657170
    14     2      0.856686      0.152966      0.105453
    15     2      0.321430      0.669972      1.045333
    16     2      0.923706      0.723577      0.582039
ITEM: TIMESTEP
1806
ITEM: NUMBER OF ATOMS
16
ITEM: BOX BOUNDS xy xz yz  pp  pp  pp
     -0.300000      4.040544      0.000000
     -0.300000      4.040544      0.000000
     -0.300000      2.769228      0.000000
ITEM: ATOMS id type xs ys zs
     1     1      0.218631      0.222128      0.172305
     2     1      0.652292      0.262100      0.615519
     3     1      0.316254      0.798878      0.514353
     4     1      0.822995      0.710033      1.036296
     5     2      0.863190      1.028666      0.191596
     6     2      0.531503      1.019498      1.047557
     7     2      0.990045      0.463879      0.236923
     8     2      0.503110      0.699966      1.040517
     9     2      0.924469      0.227858      0.765427
    10     2      0.387929      1.055282      0.762135
    11     2      0.169363      0.492697      0.701322
    12     2      0.497384      0.521956      0.447309
    13     2      0.161616      0.328763      0.658211
    14     2      0.856897      0.153266      0.104918
    15     2      0.321181      0.670230      1.046107
    16     2      0.923650      0.723593      0.580842
ITEM: TIMESTEP
1807
ITEM: NUMBER OF ATOMS
16
ITEM: BOX BOUNDS xy xz yz  pp  pp  pp
     -0.300000      4.040544      0.000000
     -0.300000      4.040544      0.000000
     -0.300000      2.769228      0.000000
ITEM: ATOMS id type xs ys zs
     1     1      0.219169      0.221905      0.172687
     2     1      0.651894      0.262168      0.615092
     3     1      0.315624      0.798951      0.513931
     4     1      0.823217      0.709830      1.035949
     5     2      0.863317      1.029254      0.191104
     6     2      0.531809      1.019362      1.048095
     7     2      0.989622      0.463951      0.237174
     8     2      0.503268      0.699890      1.039772
     9     2      0.924974      0.227678      0.764507
    10     2      0.387816      1.055311      0.763032
    11     2      0.169835      0.492494      0.700643
    12     2      0.497404      0.521881      0.447009
    13     2      0.162350      0.328693      0.658454
    14     2      0.857266      0.153536      0.105142
    15     2      0.321376      0.670217      1.046408
    16     2      0.923151      0.723338      0.580742
ITEM: TIMESTEP
1808
ITEM: NUMBER OF ATOMS
16
ITEM: BOX BOUNDS xy xz yz  pp  pp  pp
     -0.300000      4.040544      0.000000
     -0.300000      4.040544      0.000000
     -0.300000      2.769228      0.000000
ITEM: ATOMS id type xs ys zs
     1     1      0.219204      0.222014      0.172828
     2     1      0.652184      0.262751      0.614538
     3     1      0.315795      0.799179      0.513021
     4     1      0.823174      0.709392      1.036049
     5     2      0.864177      1.029487      0.189963
     6     2      0.531933      1.019787      1.048144
     7     2      0.989575      0.464281      0.237962
     8     2      0.503221      0.699766      1.039530
     9     2      0.925575      0.228175      0.765158
    10     2      0.387996      1.055289      0.763486
    11     2      0.169500      0.491903      0.699958
    12     2      0.497582      0.522016      0.447908
    13     2      0.162731      0.328739      0.658553
    14     2      0.856965      0.154232      0.105554
    15     2      0.321717      0.671217      1.045730
    16     2      0.922834      0.722855      0.581732
ITEM: TIMESTEP
1809
ITEM: NUMBER OF ATOMS
16
ITEM: BOX BOUNDS xy xz yz  pp  pp  pp
     -0.300000      4.040544      0.000000
     -0.300000      4.040544      0.000000
     -0.300000      2.769228      0.000000
ITEM: ATOMS id type xs ys zs
     1     1      0.219785      0.222078      0.172896
     2     1      0.651698      0.262820      0.614033
     3     1      0.315646      0.798600      0.512846
     4     1      0.823195      0.708881      1.035252
     5     2      0.864379      1.029163      0.189836
     6     2      0.531912      1.020505      1.047316
     7     2      0.989561      0.464326      0.238164
     8     2      0.503014      0.699701      1.038637
     9     2      0.926072      0.228015      0.764927
    10     2      0.387835      1.055513      0.764156
    11     2      0.169294      0.491652      0.700263
    12     2      0.497201      0.522235      0.447856
    13     2      0.162253      0.328595      0.658409
    14     2      0.856350      0.154275      0.105016
    15     2      0.321473      0.671396      1.045808
    16     2      0.922955      0.723539      0.581510
ITEM: TIMESTEP
1810
ITEM: NUMBER OF ATOMS
16
ITEM: BOX BOUNDS xy xz yz  pp  pp  pp
     -0.300000      4.040544      0.000000
     -0.300000      4.040544      0.000000
     -0.300000      2.769228      0.000000
ITEM: ATOMS id type xs ys zs
     1     1      0.220595      0.221528      0.173320
     2     1      0.651748      0.263429      0.614045
     3     1      0.315977      0.798062      0.512985
     4     1      0.823311      0.708409      1.035163
     5     2      0.864040      1.029276      0.189343
     6     2      0.531478      1.020350      1.047427
     7     2      0.989658      0.464249      0.239099
     8     2      0.502605      0.699600      1.039530
     9     2      0.926423      0.227747      0.764794
    10     2      0.387808      1.056222      0.764737
    11     2      0.168711      0.491399      0.700304
    12     2      0.496899      0.522103      0.448479
    13     2      0.162489      0.328311      0.658706
    14     2      0.856232      0.154657      0.105553
    15     2      0.321703      0.671631      1.045738
    16     2      0.923093      0.723500      0.581084
ITEM: TIMESTEP
1811
ITEM: NUMBER OF ATOMS
16
ITEM: BOX BOUNDS xy xz yz  pp  pp  pp
     -0.300000      4.040544      0.000000
     -0.300000      4.040544      0.000000
     -0.300000      2.769228      0.000000
ITEM: ATOMS id type xs ys zs
     1     1      0.220867      0.222080      0.173191
     2     1      0.651635      0.263878      0.614153
     3     1      0.315732      0.798302      0.513695
     4     1      0.823453      0.708594      1.035445
     5     2      0.864201      1.029112      0.188975
     6     2      0.531932      1.020625      1.047471
     7     2      0.989386      0.463753      0.240012
     8     2      0.502011      0.699892      1.038768
     9     2      0.927365      0.227616      0.764441
    10     2      0.387771      1.055818      0.764417
    11     2      0.169406      0.491571      0.699870
    12     2      0.496718      0.522316      0.448198
    13     2      0.161992      0.327694      0.658885
    14     2      0.856318      0.155018      0.105724
    15     2      0.322101      0.671848      1.044672
    16     2      0.922797      0.723538      0.581412
ITEM: TIMESTEP
1812
ITEM: NUMBER OF ATOMS
16
ITEM: BOX BOUNDS xy xz yz  pp  pp  pp
     -0.300000      4.040544      0.000000
     -0.300000      4.040544      0.000000
     -0.300000      2.769228      0.000000
ITEM: ATOMS id type xs ys zs
     1     1      0.221182      0.222209      0.172588
     2     1      0.651919      0.264014      0.613481
     3     1      0.315505      0.798371      0.513796
     4     1      0.823599      0.708200      1.034430
     5     2      0.863920      1.028884      0.188312
     6     2      0.532252      1.020877      1.047647
     7     2      0.989458      0.463806      0.240121
     8     2      0.502671      0.699012      1.038582
     9     2      0.928191      0.227584      0.763888
    10     2      0.387360      1.056004      0.764623
    11     2      0.169593      0.491599      0.699141
    12     2      0.497026      0.522375      0.447900
    13     2      0.162149      0.328333      0.658828
    14     2      0.856446      0.155331      0.105552
    15     2      0.322187      0.672310      1.044431
    16     2      0.923192      0.723918      0.580662
ITEM: TIMESTEP
1813
ITEM: NUMBER OF ATOMS
16
ITEM: BOX BOUNDS xy xz yz  pp  pp  pp
     -0.300000      4.040544      0.000000
     -0.300000      4.040544      0.000000
     -0.300000      2.769228      0.000000
ITEM: ATOMS id type xs ys zs
     1     1      0.221347      0.222351      0.172348
     2     1      0.651950      0.263995      0.612878
     3     1      0.315786      0.798004      0.514959
     4     1      0.823053      0.707790      1.034707
     5     2      0.863814      1.028888      0.187343
     6     2      0.532404      1.020940      1.047858
     7     2      0.989112      0.463816      0.239945
     8     2      0.502495      0.698736      1.038243
     9     2      0.928661      0.227868      0.764093
    10     2      0.387270      1.056519      0.765008
    11     2      0.169571      0.490907      0.699436
    12     2      0.496638      0.522196      0.447390
    13     2      0.162681      0.327644      0.658703
    14     2      0.856765      0.155145      0.105617
    15     2      0.322123      0.673013      1.044259
    16     2      0.923233      0.724462      0.580522
ITEM: TIMESTEP
1814
ITEM: NUMBER OF ATOMS
16
ITEM: BOX BOUNDS xy xz yz  pp  pp  pp
     -0.300000      4.040544      0.000000
     -0.300000      4.040544      0.000000
     -0.300000      2.769228      0.000000
ITEM: ATOMS id type xs ys zs
     1     1      0.222020      0.222661      0.171805
     2     1      0.652009      0.263763      0.612755
     3     1      0.315750      0.797815      0.515424
     4     1      0.822940      0.707488      1.034200
     5     2      0.863887      1.028762      0.186781
     6     2      0.532186      1.021162      1.048126
     7     2      0.989629      0.464319      0.240668
     8     2      0.503028      0.698920      1.038595
     9     2      0.928964      0.227947      0.764415
    10     2      0.387824      1.056566      0.765497
    11     2      0.169216      0.491069      0.699451
    12     2      0.496728      0.522386      0.446986
    13     2      0.162684      0.327525      0.658633
    14     2      0.856797      0.155490      0.105799
    15     2      0.322585      0.673369      1.043654
    16     2      0.922708      0.724280      0.580663
ITEM: TIMESTEP
1815
ITEM: NUMBER OF ATOMS
16
ITEM: BOX BOUNDS xy xz yz  pp  pp  pp
     -0.300000      4.040544      0.000000
     -0.300000      4.040544      0.000000
     -0.300000      2.769228      0.000000
ITEM: ATOMS id type xs ys zs
     1     1      0.222533      0.222496      0.172065
     2     1      0.651689      0.264037      0.613656
     3     1      0.315796      0.797541      0.515808
     4     1      0.822589      0.707262      1.033553
     5     2      0.863777      1.028272      0.186562
     6     2      0.531437      1.020931      1.047549
     7     2      0.989543      0.464209      0.241539
     8     2      0.503103      0.698912      1.038575
     9     2      0.929260      0.227516      0.764446
    10     2      0.388269      1.056442      0.766066
    11     2      0.168962      0.490993      0.699328
    12     2      0.496840      0.522765      0.447190
    13     2      0.162920      0.327377      0.657939
    14     2      0.856447      0.155538      0.105598
    15     2      0.322570      0.673980      1.042559
    16     2      0.922753      0.724392      0.580337
ITEM: TIMESTEP
1816
ITEM: NUMBER OF ATOMS
16
ITEM: BOX BOUNDS xy xz yz  pp  pp  pp
     -0.300000      4.040544      0.000000
     -0.300000      4.040544      0.000000
     -0.300000      2.769228      0.000000
ITEM: ATOMS id type xs ys zs
     1     1      0.222639      0.222357      0.172794
     2     1      0.651897      0.263637      0.613939
     3     1      0.315886      0.797377      0.515484
     4     1      0.822439      0.706823      1.034080
     5     2      0.864062      1.028624      0.186065
     6     2      0.531096      1.021257      1.048056
     7     2      0.989650      0.463884      0.242199
     8     2      0.503203      0.698623      1.038297
     9     2      0.929442      0.227253      0.764974
    10     2      0.388840      1.056887      0.766909
    11     2      0.168984      0.490690      0.698629
    12     2      0.496985      0.522821      0.446440
    13     2      0.163176      0.327537      0.658127
    14     2      0.855786      0.155928      0.106180
    15     2      0.322327      0.674415      1.042127
    16     2      0.922798      0.724039      0.580660
ITEM: TIMESTEP
1817
ITEM: NUMBER OF ATOMS
16
ITEM: BOX BOUNDS xy xz yz  pp  pp  pp
     -0.300000      4.040544      0.000000
     -0.300000      4.040544      0.000000
     -0.300000      2.769228      0.000000
ITEM: ATOMS id type xs ys zs
     1     1      0.222861      0.222512      0.173257
     2     1      0.652354      0.263695      0.614515
     3     1      0.315344      0.797202      0.515816
     4     1      0.823063      0.706700      1.034261
     5     2      0.865082      1.028432      0.185416
     6     2      0.531206      1.020846      1.048038
     7     2      0.990182      0.463918      0.243153
     8     2      0.503435      0.698460      1.038272
     9     2      0.930013      0.226720      0.765914
    10     2      0.389047      1.056586      0.767197
    11     2      0.169175      0.490817      0.698340
    12     2      0.496384      0.522250      0.446827
    13     2      0.163345      0.327228      0.658263
    14     2      0.855155      0.155830      0.105179
    15     2      0.322210      0.674596      1.041284
    16     2      0.922715      0.724072      0.580394
ITEM: TIMESTEP
1818
ITEM: NUMBER OF ATOMS
16
ITEM: BOX BOUNDS xy xz yz  pp  pp  pp
     -0.300000      4.040544      0.000000
     -0.300000      4.040544      0.000000
     -0.300000      2.769228      0.000000
ITEM: ATOMS id type xs ys zs
     1     1      0.223338      0.222652      0.172952
     2     1      0.652357      0.264018      0.614222
     3     1      0.315425      0.797106      0.515920
     4     1      0.822548      0.706392      1.033377
     5     2      0.865078      1.028071      0.184910
     6     2      0.530549      1.021071      1.047798
     7     2      0.990080      0.463482      0.242942
     8     2      0.503345      0.698506      1.038216
     9     2      0.930475      0.227134      0.765812
    10     2      0.389054      1.057248      0.766855
    11     2      0.168950      0.491064      0.698365
    12     2      0.495994      0.522125      0.447691
    13     2      0.163474      0.327068      0.658321
    14     2      0.855009      0.155793      0.105262
    15     2      0.322172      0.675193      1.041305
    16     2      0.922893      0.723947      0.581008
ITEM: TIMESTEP
1819
ITEM: NUMBER OF ATOMS
16
ITEM: BOX BOUNDS xy xz yz  pp  pp  pp
     -0.300000      4.040544      0.000000
     -0.300000      4.040544      0.000000
     -0.300000      2.769228      0.000000
ITEM: ATOMS id type xs ys zs
     1     1      0.222650      0.222583      0.173376
     2     1      0.652294      0.263446      0.614323
     3     1      0.315994      0.796368      0.515438
     4     1      0.822335      0.705792      1.032921
     5     2      0.865461      1.027260      0.184073
     6     2      0.530432      1.020971      1.048385
     7     2      0.989594      0.463405      0.244047
     8     2      0.503396      0.698517      1.037773
     9     2      0.931046      0.227025      0.766166
    10     2      0.389100      1.057543      0.767247
    11     2      0.169190      0.490878      0.698429
    12     2      0.496016      0.522202      0.447918
    13     2      0.163389      0.326246      0.658232
    14     2      0.855438      0.156244      0.104912
    15     2      0.322673      0.675404      1.041547
    16     2      0.922840      0.723723      0.580063
ITEM: TIMESTEP
1820
ITEM: NUMBER OF ATOMS
16
ITEM: BOX BOUNDS xy xz yz  pp  pp  pp
     -0.300000      4.040544      0.000000
     -0.300000      4.040544      0.000000
     -0.300000      2.769228      0.000000
ITEM: ATOMS id type xs ys zs
     1     1      0.223003      0.223202      0.173858
     2     1      0.652302      0.263345      0.614463
     3     1      0.315481      0.795844      0.516229
     4     1      0.822355      0.706221      1.032473
     5     2      0.865681      1.027310      0.183976
     6     2      0.531062      1.020871      1.048551
     7     2      0.989228      0.463553      0.244063
     8     2      0.503593      0.698294      1.038125
     9     2      0.931911      0.227106      0.766154
    10     2      0.388766      1.057264      0.767084
    11     2      0.169553      0.490877      0.697722
    12     2      0.496758      0.522194      0.447196
    13     2      0.162929      0.325841      0.657909
    14     2      0.855307      0.156707      0.104651
    15     2      0.322565      0.675777      1.041276
    16     2      0.923200      0.723627      0.579478
ITEM: TIMESTEP
1821
ITEM: NUMBER OF ATOMS
16
ITEM: BOX BOUNDS xy xz yz  pp  pp  pp
     -0.300000      4.040544      0.000000
     -0.300000      4.040544      0.000000
     -0.300000      2.769228      0.000000
ITEM: ATOMS id type xs ys zs
     1     1      0.223082      0.223374      0.174106
     2     1      0.652450      0.263195      0.614777
     3     1      0.315190      0.795491      0.516795
     4     1      0.822362      0.705907      1.031383
     5     2      0.864766      1.027172      0.183937
     6     2      0.530649      1.020832      1.048703
     7     2      0.989917      0.462944      0.244246
     8     2      0.503369      0.698951      1.038331
     9     2      0.932876      0.226925      0.766258
    10     2      0.388518      1.056960      0.767581
    11     2      0.170037      0.491038      0.697822
    12     2      0.496533      0.522045      0.447194
    13     2      0.163028      0.325019      0.657754
    14     2      0.854706      0.156947      0.104655
    15     2      0.322376      0.676288      1.041677
    16     2      0.923583      0.723982      0.578927
ITEM: TIMESTEP
1822
ITEM: NUMBER OF ATOMS
16
ITEM: BOX BOUNDS xy xz yz  pp  pp  pp
     -0.300000      4.040544      0.000000
     -0.300000      4.040544      0.000000
     -0.300000      2.769228      0.000000
ITEM: ATOMS id type xs ys zs
     1     1      0.223610      0.223812      0.174016
     2     1      0.652611      0.263498      0.613976
     3     1      0.314714      0.795739      0.517701
     4     1      0.822343      0.705548      1.030979
     5     2      0.864368      1.026726      0.182822
     6     2      0.530353      1.020717      1.049014
     7     2      0.989407      0.462575      0.244141
     8     2      0.503214      0.699280      1.038383
     9     2      0.933272      0.227054      0.766408
    10     2      0.388184      1.056624      0.768776
    11     2      0.169955      0.490164      0.697093
    12     2      0.496998      0.521890      0.446844
    13     2      0.162991      0.324688      0.658074
    14     2      0.854437      0.157090      0.104213
    15     2      0.322046      0.675888      1.041159
    16     2      0.923594      0.724047      0.578784
ITEM: TIMESTEP
1823
ITEM: NUMBER OF ATOMS
16
ITEM: BOX BOUNDS xy xz yz  pp  pp  pp
     -0.300000      4.040544      0.000000
     -0.300000      4.040544      0.000000
     -0.300000      2.769228      0.000000
ITEM: ATOMS id type xs ys zs
     1     1      0.223216      0.224179      0.174863
     2     1      0.652454      0.263865      0.614301
     3     1      0.315257      0.795616      0.518055
     4     1      0.822196      0.705189      1.031037
     5     2      0.863993      1.027080      0.182378
     6     2      0.530132      1.021822      1.048543
     7     2      0.988993      0.461892      0.244315
     8     2      0.503320      0.699289      1.039684
     9     2      0.933531      0.226786      0.766554
    10     2      0.387720      1.056659      0.767981
    11     2      0.169693      0.490311      0.696044
    12     2      0.496896      0.521667      0.446535
    13     2      0.162966      0.324733      0.657583
    14     2      0.854534      0.157474      0.103796
    15     2      0.322293      0.675686      1.041854
    16     2      0.923422      0.724176      0.578473
ITEM: TIMESTEP
1824
ITEM: NUMBER OF ATOMS
16
ITEM: BOX BOUNDS xy xz yz  pp  pp  pp
     -0.300000      4.040544      0.000000
     -0.300000      4.040544      0.000000
     -0.300000      2.769228      0.000000
ITEM: ATOMS id type xs ys zs
     1     1      0.223442      0.224769      0.174210
     2     1      0.652424      0.263731      0.614026
     3     1      0.315217      0.795726      0.517817
     4     1      0.821661      0.704545      1.030863
     5     2      0.863935      1.026356      0.181434
     6     2      0.529916      1.022014      1.048499
     7     2      0.988951      0.462229      0.244152
     8     2      0.503233      0.699115      1.039662
     9     2      0.934301      0.226763      0.767117
    10     2      0.387701      1.057040      0.768661
    11     2      0.168871      0.490453      0.696635
    12     2      0.497364      0.521260      0.446438
    13     2      0.162686      0.323707      0.657238
    14     2      0.853899      0.157380      0.103697
    15     2      0.322316      0.676447      1.041623
    16     2      0.923815      0.724505      0.578360
ITEM: TIMESTEP
1825
ITEM: NUMBER OF ATOMS
16
ITEM: BOX BOUNDS xy xz yz  pp  pp  pp
     -0.300000      4.040544      0.000000
     -0.300000      4.040544      0.000000
     -0.300000      2.769228      0.000000
ITEM: ATOMS id type xs ys zs
     1     1      0.223523      0.225181      0.174140
     2     1      0.652642      0.263630      0.614933
     3     1      0.314531      0.795852      0.517530
     4     1      0.821528      0.704407      1.030931
     5     2      0.863472      1.026408      0.181904
     6     2      0.529730      1.021921      1.049278
     7     2      0.988847      0.461707      0.244632
     8     2      0.502634      0.699674      1.039562
     9     2      0.934127      0.226487      0.767311
    10     2      0.387701      1.057201      0.769051
    11     2      0.168905      0.490556      0.696681
    12     2      0.497393      0.520839      0.446019
    13     2      0.162568      0.323195      0.656993
    14     2      0.853973      0.157924      0.104532
    15     2      0.322201      0.676710      1.041772
    16     2      0.923496      0.724408      0.578104
ITEM: TIMESTEP
1826
ITEM: NUMBER OF ATOMS
16
ITEM: BOX BOUNDS xy xz yz  pp  pp  pp
     -0.300000      4.040544      0.000000
     -0.300000      4.040544      0.000000
     -0.300000      2.769228      0.000000
ITEM: ATOMS id type xs ys zs
     1     1      0.223971      0.224846      0.174589
     2     1      0.652359      0.263574      0.615070
     3     1      0.314801      0.796156      0.517756
     4     1      0.821182      0.704613      1.029708
     5     2      0.863584      1.025674      0.181675
     6     2      0.529481      1.021963      1.048537
     7     2      0.988518      0.461621      0.245113
     8     2      0.503042      0.699343      1.039985
     9     2      0.934585      0.226301      0.767573
    10     2      0.387914      1.057678      0.769085
    11     2      0.169251      0.491046      0.696102
    12     2      0.497846      0.520826      0.445403
    13     2      0.163030      0.322401      0.657115
    14     2      0.853844      0.157711      0.104311
    15     2      0.322083      0.677357      1.041609
    16     2      0.923010      0.724577      0.578787
ITEM: TIMESTEP
1827
ITEM: NUMBER OF ATOMS
16
ITEM: BOX BOUNDS xy xz yz  pp  pp  pp
     -0.300000      4.040544      0.000000
     -0.300000      4.040544      0.000000
     -0.300000      2.769228      0.000000
ITEM: ATOMS id type xs ys zs
     1     1      0.223576      0.224949      0.173830
     2     1      0.652535      0.262687      0.615509
     3     1      0.315172      0.796255      0.517728
     4     1      0.820902      0.704267      1.028876
     5     2      0.863711      1.026096      0.181544
     6     2      0.530095      1.021569      1.049119
     7     2      0.988114      0.461634      0.245882
     8     2      0.503389      0.699165      1.040426
     9     2      0.934836      0.225952      0.767910
    10     2      0.387951      1.057710      0.768223
    11     2      0.168995      0.490954      0.695464