ITEM: TIMESTEP
1801
ITEM: NUMBER OF ATOMS
16
ITEM: BOX BOUNDS xy xz yz  pp  pp  pp
     -0.300000      4.040544      0.000000
     -0.300000      4.040544      0.000000
     -0.300000      2.769228      0.000000
ITEM: ATOMS id type xs ys zs
     1     1      0.218338      0.222042      0.171486
     2     1      0.651139      0.262270      0.617471
     3     1      0.318678      0.801796      0.513440
     4     1      0.822388      0.713058      1.036668
     5     2      0.861063      1.029137      0.193732
     6     2      0.531238      1.017555      1.048340
     7     2      0.990168      0.463374      0.235956
     8     2      0.504457      0.701695      1.039572
     9     2      0.922140      0.229318      0.765341
    10     2      0.387075      1.053040      0.760807
    11     2      0.168979      0.493675      0.703050
    12     2      0.497956      0.522470      0.445970
    13     2      0.160708      0.329495      0.656241
    14     2      0.856457      0.152375      0.104872
    15     2      0.322911      0.669779      1.046236
    16     2      0.922423      0.723000      0.580798
ITEM: TIMESTEP
1802
ITEM: NUMBER OF ATOMS
16
ITEM: BOX BOUNDS xy xz yz  pp  pp  pp
     -0.300000      4.040544      0.000000
     -0.300000      4.040544      0.000000
     -0.300000      2.769228      0.000000
ITEM: ATOMS id type xs ys zs
     1     1      0.218664      0.222418      0.170707
     2     1      0.650961      0.262469      0.617716
     3     1      0.318185      0.802175      0.513540
     4     1      0.822058      0.712417      1.036843
     5     2      0.861097      1.029396      0.193773
     6     2      0.530793      1.017620      1.048309
     7     2      0.990317      0.462997      0.236788
     8     2      0.504716      0.701304      1.039415
     9     2      0.922193      0.228766      0.765859
    10     2      0.387765      1.053029      0.761456
    11     2      0.169001      0.493571      0.703249
    12     2      0.497827      0.522254      0.446949
    13     2      0.160573      0.329282      0.655518
    14     2      0.856435      0.152367      0.105135
    15     2      0.323103      0.669603      1.046710
    16     2      0.922330      0.722765      0.579958
ITEM: TIMESTEP
1803
ITEM: NUMBER OF ATOMS
16
ITEM: BOX BOUNDS xy xz yz  pp  pp  pp
     -0.300000      4.040544      0.000000
     -0.300000      4.040544      0.000000
     -0.300000      2.769228      0.000000
ITEM: ATOMS id type xs ys zs
     1     1      0.218869      0.222638      0.169707
     2     1      0.651025      0.262565      0.617202
     3     1      0.317354      0.801874      0.513794
     4     1      0.822311      0.712641      1.035836
     5     2      0.861158      1.030261      0.194242
     6     2      0.530739      1.018029      1.048659
     7     2      0.990524      0.463009      0.238228
     8     2      0.504781      0.701044      1.039209
     9     2      0.922357      0.228262      0.766282
    10     2      0.387916      1.053146      0.762943
    11     2      0.169137      0.493206      0.703032
    12     2      0.498390      0.522168      0.447917
    13     2      0.160941      0.329212      0.655753
    14     2      0.856201      0.152608      0.105701
    15     2      0.322929      0.669514      1.047375
    16     2      0.922047      0.722778      0.579519
ITEM: TIMESTEP
1804
ITEM: NUMBER OF ATOMS
16
ITEM: BOX BOUNDS xy xz yz  pp  pp  pp
     -0.300000      4.040544      0.000000
     -0.300000      4.040544      0.000000
     -0.300000      2.769228      0.000000
ITEM: ATOMS id type xs ys zs
     1     1      0.218679      0.222711      0.169430
     2     1      0.650822      0.262537      0.616873
     3     1      0.317140      0.801603      0.514569
     4     1      0.822437      0.712183      1.035771
     5     2      0.860411      1.030479      0.193320
     6     2      0.530835      1.018401      1.048579
     7     2      0.990197      0.462937      0.238500
     8     2      0.504927      0.700719      1.038431
     9     2      0.922947      0.228424      0.765627
    10     2      0.387809      1.053659      0.763294
    11     2      0.169015      0.493014      0.702380
    12     2      0.498412      0.522175      0.448041
    13     2      0.161321      0.328657      0.657033
    14     2      0.856320      0.152492      0.105595
    15     2      0.322585      0.669783      1.046540
    16     2      0.922165      0.722834      0.579194
ITEM: TIMESTEP
1805
ITEM: NUMBER OF ATOMS
16
ITEM: BOX BOUNDS xy xz yz  pp  pp  pp
     -0.300000      4.040544      0.000000
     -0.300000      4.040544      0.000000
     -0.300000      2.769228      0.000000
ITEM: ATOMS id type xs ys zs
     1     1      0.218016      0.222837      0.169226
     2     1      0.650731      0.263133      0.617056
     3     1      0.317129      0.801280      0.514995
     4     1      0.822306      0.711349      1.036131
     5     2      0.860809      1.030534      0.193319
     6     2      0.531029      1.018730      1.048833
     7     2      0.990628      0.463261      0.239005
     8     2      0.504568      0.700433      1.038372
     9     2      0.924103      0.227937      0.765366
    10     2      0.387800      1.053639      0.763747
    11     2      0.168890      0.492826      0.701521
    12     2      0.498606      0.522158      0.449276
    13     2      0.161543      0.328396      0.656860
    14     2      0.856128      0.152811      0.105981
    15     2      0.322433      0.669900      1.046288
    16     2      0.921877      0.722480      0.579083
ITEM: TIMESTEP
1806
ITEM: NUMBER OF ATOMS
16
ITEM: BOX BOUNDS xy xz yz  pp  pp  pp
     -0.300000      4.040544      0.000000
     -0.300000      4.040544      0.000000
     -0.300000      2.769228      0.000000
ITEM: ATOMS id type xs ys zs
     1     1      0.217986      0.223334      0.168517
     2     1      0.649978      0.263351      0.616393
     3     1      0.317299      0.801056      0.514567
     4     1      0.822009      0.710599      1.036497
     5     2      0.860534      1.031204      0.192264
     6     2      0.531061      1.018742      1.049255
     7     2      0.990691      0.463444      0.239288
     8     2      0.504598      0.700311      1.037164
     9     2      0.924779      0.228105      0.765648
    10     2      0.387719      1.053621      0.763616
    11     2      0.168672      0.492763      0.700853
    12     2      0.498375      0.522663      0.449092
    13     2      0.162222      0.327741      0.656916
    14     2      0.856216      0.152721      0.105988
    15     2      0.322182      0.670021      1.046900
    16     2      0.922025      0.722857      0.579332
ITEM: TIMESTEP
1807
ITEM: NUMBER OF ATOMS
16
ITEM: BOX BOUNDS xy xz yz  pp  pp  pp
     -0.300000      4.040544      0.000000
     -0.300000      4.040544      0.000000
     -0.300000      2.769228      0.000000
ITEM: ATOMS id type xs ys zs
     1     1      0.218028      0.223939      0.168980
     2     1      0.649348      0.263975      0.615736
     3     1      0.316848      0.800432      0.514630
     4     1      0.822220      0.710293      1.036571
     5     2      0.860474      1.031232      0.192313
     6     2      0.530676      1.018800      1.048903
     7     2      0.990470      0.463964      0.239001
     8     2      0.504898      0.699805      1.037055
     9     2      0.925069      0.227440      0.765728
    10     2      0.387723      1.053399      0.764215
    11     2      0.168745      0.492999      0.700715
    12     2      0.498139      0.522866      0.448273
    13     2      0.162095      0.326940      0.656960
    14     2      0.855924      0.152681      0.105863
    15     2      0.321864      0.670095      1.047085
    16     2      0.922056      0.722660      0.578802
ITEM: TIMESTEP
1808
ITEM: NUMBER OF ATOMS
16
ITEM: BOX BOUNDS xy xz yz  pp  pp  pp
     -0.300000      4.040544      0.000000
     -0.300000      4.040544      0.000000
     -0.300000      2.769228      0.000000
ITEM: ATOMS id type xs ys zs
     1     1      0.218241      0.224664      0.169125
     2     1      0.649311      0.264649      0.615482
     3     1      0.316408      0.800174      0.514704
     4     1      0.822801      0.710172      1.036382
     5     2      0.860117      1.030843      0.190986
     6     2      0.530509      1.019179      1.048905
     7     2      0.990253      0.463941      0.239156
     8     2      0.505285      0.699366      1.036894
     9     2      0.925769      0.227233      0.765602
    10     2      0.387833      1.053868      0.764661
    11     2      0.168564      0.493133      0.700265
    12     2      0.498267      0.522937      0.448387
    13     2      0.162633      0.326882      0.656584
    14     2      0.855393      0.153151      0.106277
    15     2      0.321692      0.670319      1.046514
    16     2      0.921574      0.722736      0.579129
ITEM: TIMESTEP
1809
ITEM: NUMBER OF ATOMS
16
ITEM: BOX BOUNDS xy xz yz  pp  pp  pp
     -0.300000      4.040544      0.000000
     -0.300000      4.040544      0.000000
     -0.300000      2.769228      0.000000
ITEM: ATOMS id type xs ys zs
     1     1      0.218437      0.224747      0.168852
     2     1      0.649625      0.265352      0.615246
     3     1      0.316391      0.799782      0.514936
     4     1      0.822812      0.710071      1.036458
     5     2      0.860366      1.030451      0.190292
     6     2      0.530411      1.019360      1.048673
     7     2      0.990205      0.463919      0.239552
     8     2      0.505525      0.699696      1.036601
     9     2      0.926286      0.227623      0.765230
    10     2      0.388021      1.054014      0.764718
    11     2      0.168892      0.493312      0.700445
    12     2      0.498193      0.522903      0.448324
    13     2      0.162218      0.326377      0.656151
    14     2      0.855841      0.153343      0.106525
    15     2      0.322281      0.671045      1.045860
    16     2      0.921626      0.722520      0.579738
ITEM: TIMESTEP
1810
ITEM: NUMBER OF ATOMS
16
ITEM: BOX BOUNDS xy xz yz  pp  pp  pp
     -0.300000      4.040544      0.000000
     -0.300000      4.040544      0.000000
     -0.300000      2.769228      0.000000
ITEM: ATOMS id type xs ys zs
     1     1      0.218595      0.224873      0.168731
     2     1      0.649523      0.264622      0.615617
     3     1      0.316486      0.799417      0.515143
     4     1      0.823093      0.710287      1.035843
     5     2      0.860252      1.030355      0.190692
     6     2      0.529893      1.019742      1.048896
     7     2      0.989544      0.463982      0.239550
     8     2      0.505668      0.699570      1.036878
     9     2      0.926593      0.227170      0.765375
    10     2      0.388204      1.054456      0.764427
    11     2      0.169506      0.493545      0.699483
    12     2      0.498879      0.523051      0.448260
    13     2      0.162235      0.326015      0.656655
    14     2      0.855598      0.153270      0.106625
    15     2      0.322712      0.672168      1.045440
    16     2      0.922045      0.722181      0.580068
ITEM: TIMESTEP
1811
ITEM: NUMBER OF ATOMS
16
ITEM: BOX BOUNDS xy xz yz  pp  pp  pp
     -0.300000      4.040544      0.000000
     -0.300000      4.040544      0.000000
     -0.300000      2.769228      0.000000
ITEM: ATOMS id type xs ys zs
     1     1      0.218534      0.225049      0.169320
     2     1      0.649719      0.264538      0.615657
     3     1      0.315878      0.798728      0.514201
     4     1      0.823027      0.710275      1.036736
     5     2      0.861047      1.030052      0.190783
     6     2      0.529491      1.019849      1.049676
     7     2      0.989542      0.463781      0.239640
     8     2      0.505343      0.699409      1.036510
     9     2      0.927503      0.226960      0.764982
    10     2      0.388369      1.054652      0.764352
    11     2      0.169787      0.493013      0.699070
    12     2      0.498852      0.522611      0.448649
    13     2      0.162288      0.326068      0.657405
    14     2      0.854491      0.153023      0.107499
    15     2      0.323231      0.672137      1.045475
    16     2      0.921658      0.721433      0.580936
ITEM: TIMESTEP
1812
ITEM: NUMBER OF ATOMS
16
ITEM: BOX BOUNDS xy xz yz  pp  pp  pp
     -0.300000      4.040544      0.000000
     -0.300000      4.040544      0.000000
     -0.300000      2.769228      0.000000
ITEM: ATOMS id type xs ys zs
     1     1      0.218682      0.225306      0.168523
     2     1      0.650204      0.263927      0.616551
     3     1      0.315882      0.798222      0.514947
     4     1      0.822891      0.710003      1.036823
     5     2      0.860218      1.030169      0.189942
     6     2      0.529232      1.020367      1.050388
     7     2      0.989278      0.463262      0.239862
     8     2      0.505223      0.699623      1.037025
     9     2      0.927983      0.227143      0.764436
    10     2      0.388586      1.054584      0.763926
    11     2      0.169706      0.492674      0.699162
    12     2      0.499288      0.522522      0.448385
    13     2      0.162567      0.325865      0.657628
    14     2      0.854581      0.153243      0.107598
    15     2      0.323260      0.672969      1.044789
    16     2      0.921684      0.720802      0.581661
ITEM: TIMESTEP
1813
ITEM: NUMBER OF ATOMS
16
ITEM: BOX BOUNDS xy xz yz  pp  pp  pp
     -0.300000      4.040544      0.000000
     -0.300000      4.040544      0.000000
     -0.300000      2.769228      0.000000
ITEM: ATOMS id type xs ys zs
     1     1      0.219057      0.225323      0.168759
     2     1      0.649915      0.264052      0.616254
     3     1      0.315778      0.798040      0.515499
     4     1      0.822982      0.709871      1.035928
     5     2      0.860092      1.030110      0.189686
     6     2      0.529188      1.020351      1.051159
     7     2      0.989101      0.463279      0.240200
     8     2      0.505392      0.699804      1.036929
     9     2      0.928346      0.227221      0.763871
    10     2      0.388337      1.055233      0.764749
    11     2      0.169282      0.492602      0.699390
    12     2      0.499041      0.523115      0.448157
    13     2      0.162963      0.325486      0.657275
    14     2      0.854200      0.152939      0.107888
    15     2      0.322905      0.673128      1.045526
    16     2      0.921559      0.721151      0.582245
ITEM: TIMESTEP
1814
ITEM: NUMBER OF ATOMS
16
ITEM: BOX BOUNDS xy xz yz  pp  pp  pp
     -0.300000      4.040544      0.000000
     -0.300000      4.040544      0.000000
     -0.300000      2.769228      0.000000
ITEM: ATOMS id type xs ys zs
     1     1      0.218961      0.225304      0.168749
     2     1      0.650110      0.263677      0.616594
     3     1      0.314996      0.797894      0.515884
     4     1      0.822723      0.709141      1.035637
     5     2      0.860397      1.030318      0.190277
     6     2      0.528682      1.020164      1.051188
     7     2      0.989494      0.463158      0.240311
     8     2      0.505214      0.699780      1.036376
     9     2      0.928740      0.226567      0.763560
    10     2      0.388507      1.055916      0.764807
    11     2      0.169080      0.492521      0.698723
    12     2      0.498588      0.523223      0.448284
    13     2      0.162723      0.325597      0.657592
    14     2      0.853473      0.153232      0.107709
    15     2      0.323005      0.673589      1.044743
    16     2      0.921511      0.721016      0.582266
ITEM: TIMESTEP
1815
ITEM: NUMBER OF ATOMS
16
ITEM: BOX BOUNDS xy xz yz  pp  pp  pp
     -0.300000      4.040544      0.000000
     -0.300000      4.040544      0.000000
     -0.300000      2.769228      0.000000
ITEM: ATOMS id type xs ys zs
     1     1      0.219130      0.225344      0.168578
     2     1      0.650784      0.263733      0.617496
     3     1      0.314253      0.798080      0.516230
     4     1      0.822402      0.708810      1.034960
     5     2      0.860333      1.030341      0.190592
     6     2      0.528385      1.020821      1.050537
     7     2      0.989918      0.462809      0.240786
     8     2      0.505405      0.699852      1.036750
     9     2      0.928716      0.226217      0.763732
    10     2      0.388568      1.056441      0.765037
    11     2      0.168916      0.492492      0.699263
    12     2      0.498767      0.523720      0.449374
    13     2      0.163399      0.325188      0.658061
    14     2      0.853444      0.153132      0.108010
    15     2      0.322633      0.673844      1.045975
    16     2      0.920846      0.721108      0.582795
ITEM: TIMESTEP
1816
ITEM: NUMBER OF ATOMS
16
ITEM: BOX BOUNDS xy xz yz  pp  pp  pp
     -0.300000      4.040544      0.000000
     -0.300000      4.040544      0.000000
     -0.300000      2.769228      0.000000
ITEM: ATOMS id type xs ys zs
     1     1      0.218340      0.225408      0.168379
     2     1      0.650917      0.263701      0.618025
     3     1      0.313795      0.797293      0.515963
     4     1      0.822634      0.708589      1.035192
     5     2      0.860075      1.029565      0.190013
     6     2      0.528707      1.020811      1.050335
     7     2      0.990445      0.462765      0.241153
     8     2      0.505292      0.699930      1.036520
     9     2      0.929295      0.226309      0.762963
    10     2      0.388539      1.056369      0.765386
    11     2      0.168749      0.492213      0.699169
    12     2      0.498704      0.523967      0.449706
    13     2      0.163371      0.324534      0.658224
    14     2      0.853495      0.153764      0.108125
    15     2      0.322211      0.674601      1.045990
    16     2      0.921257      0.721788      0.582076
ITEM: TIMESTEP
1817
ITEM: NUMBER OF ATOMS
16
ITEM: BOX BOUNDS xy xz yz  pp  pp  pp
     -0.300000      4.040544      0.000000
     -0.300000      4.040544      0.000000
     -0.300000      2.769228      0.000000
ITEM: ATOMS id type xs ys zs
     1     1      0.219280      0.225438      0.169160
     2     1      0.651066      0.264107      0.617956
     3     1      0.313573      0.797162      0.516198
     4     1      0.823168      0.708148      1.035803
     5     2      0.860152      1.029587      0.189252
     6     2      0.528628      1.021475      1.050593
     7     2      0.990387      0.462970      0.241439
     8     2      0.505259      0.699505      1.037355
     9     2      0.929551      0.225813      0.763036
    10     2      0.389020      1.056201      0.765654
    11     2      0.169076      0.492994      0.698371
    12     2      0.498991      0.523474      0.449763
    13     2      0.164329      0.324014      0.657269
    14     2      0.853018      0.154224      0.108477
    15     2      0.321792      0.674797      1.046447
    16     2      0.921263      0.721759      0.581817
ITEM: TIMESTEP
1818
ITEM: NUMBER OF ATOMS
16
ITEM: BOX BOUNDS xy xz yz  pp  pp  pp
     -0.300000      4.040544      0.000000
     -0.300000      4.040544      0.000000
     -0.300000      2.769228      0.000000
ITEM: ATOMS id type xs ys zs
     1     1      0.219743      0.225641      0.169293
     2     1      0.650446      0.264467      0.617034
     3     1      0.313212      0.797090      0.516378
     4     1      0.823094      0.708014      1.035261
     5     2      0.859933      1.028895      0.190068
     6     2      0.528449      1.021663      1.050864
     7     2      0.990408      0.462857      0.240903
     8     2      0.505346      0.699215      1.036748
     9     2      0.929558      0.225974      0.763621
    10     2      0.388746      1.056548      0.766136
    11     2      0.169365      0.493246      0.698065
    12     2      0.499403      0.523470      0.450519
    13     2      0.164875      0.322957      0.657289
    14     2      0.852094      0.154547      0.108590
    15     2      0.321833      0.675169      1.047094
    16     2      0.921427      0.721375      0.581490
ITEM: TIMESTEP
1819
ITEM: NUMBER OF ATOMS
16
ITEM: BOX BOUNDS xy xz yz  pp  pp  pp
     -0.300000      4.040544      0.000000
     -0.300000      4.040544      0.000000
     -0.300000      2.769228      0.000000
ITEM: ATOMS id type xs ys zs
     1     1      0.220058      0.225706      0.169973
     2     1      0.651113      0.264729      0.616826
     3     1      0.312632      0.797033      0.515925
     4     1      0.823270      0.707493      1.034568
     5     2      0.859842      1.028956      0.189831
     6     2      0.528427      1.021620      1.051138
     7     2      0.990123      0.462857      0.241708
     8     2      0.505131      0.698902      1.037238
     9     2      0.929831      0.225506      0.763288
    10     2      0.389423      1.056803      0.766804
    11     2      0.169287      0.493170      0.697755
    12     2      0.499770      0.523591      0.450711
    13     2      0.165045      0.322572      0.657579
    14     2      0.851603      0.154826      0.108984
    15     2      0.322109      0.675594      1.047112
    16     2      0.920914      0.721709      0.580761
ITEM: TIMESTEP
1820
ITEM: NUMBER OF ATOMS
16
ITEM: BOX BOUNDS xy xz yz  pp  pp  pp
     -0.300000      4.040544      0.000000
     -0.300000      4.040544      0.000000
     -0.300000      2.769228      0.000000
ITEM: ATOMS id type xs ys zs
     1     1      0.220271      0.225192      0.170474
     2     1      0.650823      0.265296      0.617390
     3     1      0.312189      0.797163      0.516073
     4     1      0.822974      0.706998      1.034572
     5     2      0.859529      1.029028      0.189656
     6     2      0.528373      1.021043      1.051181
     7     2      0.990029      0.463067      0.242332
     8     2      0.505394      0.698789      1.037554
     9     2      0.930049      0.225811      0.763105
    10     2      0.389385      1.056339      0.767079
    11     2      0.169377      0.493309      0.696796
    12     2      0.499707      0.524284      0.450983
    13     2      0.164889      0.322269      0.657934
    14     2      0.850667      0.155545      0.109139
    15     2      0.322213      0.676136      1.047160
    16     2      0.921209      0.721306      0.580555
ITEM: TIMESTEP
1821
ITEM: NUMBER OF ATOMS
16
ITEM: BOX BOUNDS xy xz yz  pp  pp  pp
     -0.300000      4.040544      0.000000
     -0.300000      4.040544      0.000000
     -0.300000      2.769228      0.000000
ITEM: ATOMS id type xs ys zs
     1     1      0.220388      0.225498      0.171091
     2     1      0.651141      0.265460      0.617076
     3     1      0.312080      0.797519      0.516408
     4     1      0.822091      0.706722      1.033843
     5     2      0.859691      1.028020      0.189655
     6     2      0.528700      1.020941      1.051033
     7     2      0.990154      0.462874      0.241570
     8     2      0.505800      0.698174      1.038254
     9     2      0.930448      0.225118      0.763708
    10     2      0.389226      1.056473      0.767586
    11     2      0.169433      0.492986      0.695985
    12     2      0.500343      0.524376      0.451435
    13     2      0.165396      0.322086      0.658404
    14     2      0.850733      0.155831      0.109165
    15     2      0.322324      0.676329      1.047095
    16     2      0.920746      0.721387      0.581004
ITEM: TIMESTEP
1822
ITEM: NUMBER OF ATOMS
16
ITEM: BOX BOUNDS xy xz yz  pp  pp  pp
     -0.300000      4.040544      0.000000
     -0.300000      4.040544      0.000000
     -0.300000      2.769228      0.000000
ITEM: ATOMS id type xs ys zs
     1     1      0.220231      0.225940      0.170874
     2     1      0.651435      0.265019      0.616796
     3     1      0.311592      0.797088      0.517015
     4     1      0.822817      0.706980      1.034590
     5     2      0.859467      1.027517      0.189111
     6     2      0.528467      1.020908      1.052176
     7     2      0.990382      0.463112      0.241475
     8     2      0.505663      0.698232      1.038084
     9     2      0.930482      0.224911      0.763868
    10     2      0.389434      1.056282      0.767976
    11     2      0.169089      0.493093      0.696277
    12     2      0.500262      0.524591      0.452514
    13     2      0.165646      0.321301      0.658767
    14     2      0.849824      0.155959      0.109508
    15     2      0.321969      0.676828      1.047374
    16     2      0.920127      0.721259      0.581290
ITEM: TIMESTEP
1823
ITEM: NUMBER OF ATOMS
16
ITEM: BOX BOUNDS xy xz yz  pp  pp  pp
     -0.300000      4.040544      0.000000
     -0.300000      4.040544      0.000000
     -0.300000      2.769228      0.000000
ITEM: ATOMS id type xs ys zs
     1     1      0.220180      0.226076      0.170874
     2     1      0.651377      0.265266      0.617053
     3     1      0.311658      0.796950      0.517674
     4     1      0.822017      0.706569      1.034334
     5     2      0.859462      1.027039      0.188985
     6     2      0.528516      1.021807      1.053141
     7     2      0.989389      0.463323      0.241586
     8     2      0.505379      0.698240      1.037414
     9     2      0.931266      0.224196      0.763698
    10     2      0.389821      1.056501      0.767758
    11     2      0.168910      0.492976      0.696748
    12     2      0.500153      0.524781      0.452970
    13     2      0.165684      0.320535      0.658651
    14     2      0.849221      0.155901      0.109597
    15     2      0.322345      0.677340      1.047083
    16     2      0.919478      0.721135      0.581250
ITEM: TIMESTEP
1824
ITEM: NUMBER OF ATOMS
16
ITEM: BOX BOUNDS xy xz yz  pp  pp  pp
     -0.300000      4.040544      0.000000
     -0.300000      4.040544      0.000000
     -0.300000      2.769228      0.000000
ITEM: ATOMS id type xs ys zs
     1     1      0.220639      0.225994      0.170824
     2     1      0.651673      0.265067      0.616945
     3     1      0.311442      0.797043      0.516580
     4     1      0.821632      0.706198      1.033873
     5     2      0.860144      1.026711      0.188677
     6     2      0.528352      1.021719      1.052513
     7     2      0.988842      0.463572      0.241688
     8     2      0.506148      0.698385      1.037719
     9     2      0.931601      0.223885      0.763205
    10     2      0.390126      1.056742      0.767355
    11     2      0.168989      0.492357      0.696936
    12     2      0.500145      0.524534      0.453448
    13     2      0.165994      0.319867      0.658471
    14     2      0.849353      0.156774      0.109859
    15     2      0.322704      0.677280      1.047169
    16     2      0.920277      0.720955      0.580234
ITEM: TIMESTEP
1825
ITEM: NUMBER OF ATOMS
16
ITEM: BOX BOUNDS xy xz yz  pp  pp  pp
     -0.300000      4.040544      0.000000
     -0.300000      4.040544      0.000000
     -0.300000      2.769228      0.000000
ITEM: ATOMS id type xs ys zs
     1     1      0.220372      0.226516      0.170818
     2     1      0.651734      0.264804      0.616814
     3     1      0.311187      0.796132      0.516619
     4     1      0.821268      0.705758      1.034256
     5     2      0.860016      1.026643      0.187907
     6     2      0.527732      1.021689      1.053280
     7     2      0.988915      0.463577      0.241363
     8     2      0.505917      0.698260      1.036634
     9     2      0.931853      0.224125      0.763364
    10     2      0.389964      1.056622      0.767721
    11     2      0.168814      0.492266      0.697240
    12     2      0.500057      0.525005      0.453277
    13     2      0.166761      0.319444      0.659074
    14     2      0.848993      0.157330      0.109156
    15     2      0.322742      0.677833      1.046251
    16     2      0.920412      0.720348      0.580634
ITEM: TIMESTEP
1826
ITEM: NUMBER OF ATOMS
16
ITEM: BOX BOUNDS xy xz yz  pp  pp  pp
     -0.300000      4.040544      0.000000
     -0.300000      4.040544      0.000000
     -0.300000      2.769228      0.000000
ITEM: ATOMS id type xs ys zs
     1     1      0.219953      0.226627      0.170782
     2     1      0.651910      0.264573      0.616437
     3     1      0.311465      0.795954      0.516077
     4     1      0.820893      0.705113      1.033610
     5     2      0.860446      1.026329      0.187118
     6     2      0.527590      1.021660      1.053395
     7     2      0.988722      0.463906      0.241482
     8     2      0.506078      0.698591      1.036567
     9     2      0.932072      0.223671      0.762962
    10     2      0.389887      1.056544      0.768530
    11     2      0.168792      0.492265      0.697426
    12     2      0.500166      0.525300      0.453628
    13     2      0.167182      0.318807      0.658966
    14     2      0.849306      0.157805      0.109958
    15     2      0.322545      0.677932      1.046230
    16     2      0.920766      0.720335      0.580482
ITEM: TIMESTEP
1827
ITEM: NUMBER OF ATOMS
16
ITEM: BOX BOUNDS xy xz yz  pp  pp  pp
     -0.300000      4.040544      0.000000
     -0.300000      4.040544      0.000000
     -0.300000      2.769228      0.000000
ITEM: ATOMS id type xs ys zs
     1     1      0.219855      0.226396      0.170673
     2     1      0.652445      0.264434      0.616530
     3     1      0.311803      0.796082      0.516556
     4     1      0.820918      0.705132      1.033196
     5     2      0.860905      1.026228      0.186407
     6     2      0.527694      1.021823      1.053540
     7     2      0.988485      0.463867      0.241589
     8     2      0.505862      0.698242      1.036922
     9     2      0.932847      0.224024      0.762724
    10     2      0.389845      1.056832      0.770088
    11     2      0.169333      0.491739      0.696783