ITEM: TIMESTEP
1801
ITEM: NUMBER OF ATOMS
16
ITEM: BOX BOUNDS xy xz yz  pp  pp  pp
     -0.300000      4.040544      0.000000
     -0.300000      4.040544      0.000000
     -0.300000      2.769228      0.000000
ITEM: ATOMS id type xs ys zs
     1     1      0.219151      0.221885      0.171558
     2     1      0.651567      0.262253      0.617689
     3     1      0.319164      0.801196      0.514004
     4     1      0.823064      0.713172      1.036938
     5     2      0.861075      1.028529      0.193860
     6     2      0.531819      1.018008      1.048315
     7     2      0.990229      0.463877      0.235596
     8     2      0.504618      0.701783      1.039796
     9     2      0.921181      0.229046      0.765658
    10     2      0.387458      1.053623      0.761713
    11     2      0.169664      0.493155      0.703428
    12     2      0.497535      0.522336      0.445969
    13     2      0.160341      0.329571      0.656891
    14     2      0.857213      0.152171      0.104036
    15     2      0.322070      0.669804      1.046105
    16     2      0.923387      0.722879      0.580949
ITEM: TIMESTEP
1802
ITEM: NUMBER OF ATOMS
16
ITEM: BOX BOUNDS xy xz yz  pp  pp  pp
     -0.300000      4.040544      0.000000
     -0.300000      4.040544      0.000000
     -0.300000      2.769228      0.000000
ITEM: ATOMS id type xs ys zs
     1     1      0.219341      0.221980      0.171685
     2     1      0.651306      0.262180      0.617897
     3     1      0.318948      0.800679      0.513694
     4     1      0.822905      0.712949      1.036870
     5     2      0.860969      1.028048      0.194311
     6     2      0.531307      1.018231      1.048792
     7     2      0.990619      0.463831      0.234613
     8     2      0.504679      0.701891      1.039579
     9     2      0.921958      0.228936      0.766190
    10     2      0.387610      1.054001      0.762248
    11     2      0.169761      0.492995      0.702762
    12     2      0.497565      0.522398      0.447278
    13     2      0.160581      0.329507      0.657509
    14     2      0.857386      0.152762      0.103233
    15     2      0.322365      0.669547      1.046602
    16     2      0.922913      0.722751      0.580975
ITEM: TIMESTEP
1803
ITEM: NUMBER OF ATOMS
16
ITEM: BOX BOUNDS xy xz yz  pp  pp  pp
     -0.300000      4.040544      0.000000
     -0.300000      4.040544      0.000000
     -0.300000      2.769228      0.000000
ITEM: ATOMS id type xs ys zs
     1     1      0.219538      0.222255      0.171008
     2     1      0.650828      0.262423      0.618718
     3     1      0.318425      0.800607      0.513668
     4     1      0.822279      0.712669      1.036148
     5     2      0.860897      1.028773      0.194397
     6     2      0.531260      1.018140      1.047983
     7     2      0.990853      0.463673      0.235432
     8     2      0.504746      0.702682      1.039766
     9     2      0.922624      0.229032      0.766529
    10     2      0.387748      1.054476      0.762421
    11     2      0.169620      0.492836      0.702757
    12     2      0.497183      0.522547      0.448084
    13     2      0.160705      0.329278      0.657794
    14     2      0.857256      0.153109      0.102909
    15     2      0.322678      0.669671      1.046478
    16     2      0.922907      0.722537      0.580499
ITEM: TIMESTEP
1804
ITEM: NUMBER OF ATOMS
16
ITEM: BOX BOUNDS xy xz yz  pp  pp  pp
     -0.300000      4.040544      0.000000
     -0.300000      4.040544      0.000000
     -0.300000      2.769228      0.000000
ITEM: ATOMS id type xs ys zs
     1     1      0.219920      0.222487      0.169952
     2     1      0.650339      0.262600      0.618057
     3     1      0.317720      0.800267      0.513759
     4     1      0.822273      0.712310      1.036011
     5     2      0.861189      1.028583      0.194384
     6     2      0.531215      1.017811      1.047845
     7     2      0.990840      0.463358      0.235804
     8     2      0.504778      0.702857      1.039759
     9     2      0.922909      0.228946      0.766129
    10     2      0.387685      1.054222      0.763263
    11     2      0.169763      0.492538      0.702880
    12     2      0.497501      0.522760      0.448413
    13     2      0.161102      0.329738      0.658738
    14     2      0.857202      0.153012      0.103340
    15     2      0.322659      0.669724      1.046312
    16     2      0.923030      0.722632      0.580279
ITEM: TIMESTEP
1805
ITEM: NUMBER OF ATOMS
16
ITEM: BOX BOUNDS xy xz yz  pp  pp  pp
     -0.300000      4.040544      0.000000
     -0.300000      4.040544      0.000000
     -0.300000      2.769228      0.000000
ITEM: ATOMS id type xs ys zs
     1     1      0.219601      0.223002      0.170468
     2     1      0.650197      0.262674      0.618210
     3     1      0.317417      0.799709      0.514179
     4     1      0.822059      0.711893      1.034963
     5     2      0.861583      1.028725      0.194189
     6     2      0.531383      1.018514      1.047472
     7     2      0.990698      0.463272      0.236035
     8     2      0.504756      0.702490      1.039358
     9     2      0.923387      0.228670      0.765794
    10     2      0.387569      1.054516      0.764425
    11     2      0.169940      0.492455      0.702542
    12     2      0.497865      0.523396      0.448779
    13     2      0.161198      0.329855      0.658888
    14     2      0.856873      0.152971      0.103639
    15     2      0.323569      0.670105      1.046419
    16     2      0.922415      0.722631      0.580456
ITEM: TIMESTEP
1806
ITEM: NUMBER OF ATOMS
16
ITEM: BOX BOUNDS xy xz yz  pp  pp  pp
     -0.300000      4.040544      0.000000
     -0.300000      4.040544      0.000000
     -0.300000      2.769228      0.000000
ITEM: ATOMS id type xs ys zs
     1     1      0.219196      0.223175      0.171072
     2     1      0.650164      0.262830      0.618116
     3     1      0.316944      0.799196      0.514834
     4     1      0.822008      0.711893      1.034536
     5     2      0.861540      1.028524      0.194649
     6     2      0.531399      1.018663      1.047618
     7     2      0.990512      0.463116      0.237110
     8     2      0.505083      0.702352      1.040010
     9     2      0.923442      0.228038      0.765652
    10     2      0.387171      1.054925      0.765409
    11     2      0.170505      0.492496      0.702624
    12     2      0.497898      0.523017      0.449015
    13     2      0.161511      0.329407      0.659024
    14     2      0.856549      0.153224      0.103916
    15     2      0.323774      0.670774      1.047039
    16     2      0.922576      0.723153      0.580863
ITEM: TIMESTEP
1807
ITEM: NUMBER OF ATOMS
16
ITEM: BOX BOUNDS xy xz yz  pp  pp  pp
     -0.300000      4.040544      0.000000
     -0.300000      4.040544      0.000000
     -0.300000      2.769228      0.000000
ITEM: ATOMS id type xs ys zs
     1     1      0.219557      0.222997      0.170929
     2     1      0.649623      0.262846      0.618531
     3     1      0.316629      0.799213      0.515294
     4     1      0.822509      0.711661      1.034719
     5     2      0.861840      1.028469      0.194596
     6     2      0.531071      1.018657      1.047264
     7     2      0.990583      0.462985      0.238212
     8     2      0.504955      0.702415      1.039997
     9     2      0.923454      0.228028      0.765760
    10     2      0.387260      1.054428      0.765817
    11     2      0.170030      0.493055      0.702093
    12     2      0.498410      0.522660      0.448452
    13     2      0.161576      0.328911      0.658421
    14     2      0.856002      0.153694      0.104513
    15     2      0.324019      0.670950      1.047218
    16     2      0.922513      0.722885      0.581548
ITEM: TIMESTEP
1808
ITEM: NUMBER OF ATOMS
16
ITEM: BOX BOUNDS xy xz yz  pp  pp  pp
     -0.300000      4.040544      0.000000
     -0.300000      4.040544      0.000000
     -0.300000      2.769228      0.000000
ITEM: ATOMS id type xs ys zs
     1     1      0.219831      0.224029      0.170591
     2     1      0.649853      0.262925      0.618342
     3     1      0.316860      0.799402      0.515337
     4     1      0.822250      0.711150      1.035394
     5     2      0.862278      1.028534      0.194850
     6     2      0.530945      1.018481      1.047510
     7     2      0.990366      0.462419      0.238271
     8     2      0.505156      0.701628      1.039787
     9     2      0.923812      0.227935      0.766232
    10     2      0.387550      1.054437      0.766223
    11     2      0.169506      0.492841      0.701611
    12     2      0.498508      0.523072      0.448268
    13     2      0.161766      0.328178      0.658320
    14     2      0.855936      0.154133      0.104536
    15     2      0.324193      0.671037      1.046782
    16     2      0.922411      0.722461      0.581963
ITEM: TIMESTEP
1809
ITEM: NUMBER OF ATOMS
16
ITEM: BOX BOUNDS xy xz yz  pp  pp  pp
     -0.300000      4.040544      0.000000
     -0.300000      4.040544      0.000000
     -0.300000      2.769228      0.000000
ITEM: ATOMS id type xs ys zs
     1     1      0.220046      0.223682      0.171001
     2     1      0.649577      0.262961      0.618297
     3     1      0.316666      0.799083      0.515452
     4     1      0.822840      0.710682      1.034902
     5     2      0.861888      1.028089      0.193698
     6     2      0.530727      1.018616      1.047315
     7     2      0.990612      0.462800      0.238463
     8     2      0.505728      0.702254      1.040237
     9     2      0.923767      0.228203      0.766686
    10     2      0.387239      1.055309      0.765878
    11     2      0.169509      0.492513      0.702147
    12     2      0.498619      0.522464      0.447831
    13     2      0.162188      0.327468      0.658808
    14     2      0.855043      0.154239      0.104628
    15     2      0.324419      0.671443      1.047455
    16     2      0.923136      0.722234      0.582576
ITEM: TIMESTEP
1810
ITEM: NUMBER OF ATOMS
16
ITEM: BOX BOUNDS xy xz yz  pp  pp  pp
     -0.300000      4.040544      0.000000
     -0.300000      4.040544      0.000000
     -0.300000      2.769228      0.000000
ITEM: ATOMS id type xs ys zs
     1     1      0.219828      0.223421      0.170476
     2     1      0.649670      0.262554      0.618178
     3     1      0.315939      0.799257      0.515395
     4     1      0.822636      0.709878      1.033607
     5     2      0.861451      1.027969      0.194461
     6     2      0.530421      1.019119      1.047491
     7     2      0.990710      0.463495      0.238760
     8     2      0.505463      0.702333      1.040336
     9     2      0.924257      0.227580      0.766613
    10     2      0.386978      1.055637      0.766551
    11     2      0.169463      0.492211      0.701808
    12     2      0.498703      0.522489      0.447797
    13     2      0.162306      0.326834      0.659219
    14     2      0.855409      0.154565      0.104618
    15     2      0.324681      0.671528      1.047229
    16     2      0.923299      0.722102      0.582927
ITEM: TIMESTEP
1811
ITEM: NUMBER OF ATOMS
16
ITEM: BOX BOUNDS xy xz yz  pp  pp  pp
     -0.300000      4.040544      0.000000
     -0.300000      4.040544      0.000000
     -0.300000      2.769228      0.000000
ITEM: ATOMS id type xs ys zs
     1     1      0.219577      0.223164      0.170838
     2     1      0.650087      0.262646      0.617987
     3     1      0.316068      0.799522      0.515328
     4     1      0.822928      0.709778      1.032373
     5     2      0.861986      1.027713      0.194624
     6     2      0.530707      1.019279      1.046828
     7     2      0.991386      0.463417      0.238411
     8     2      0.505276      0.701942      1.040531
     9     2      0.924616      0.227393      0.766656
    10     2      0.387367      1.056625      0.765687
    11     2      0.169268      0.491879      0.702009
    12     2      0.498806      0.522837      0.448570
    13     2      0.161651      0.326027      0.659296
    14     2      0.855349      0.154732      0.104470
    15     2      0.324960      0.671492      1.046929
    16     2      0.923334      0.722587      0.582983
ITEM: TIMESTEP
1812
ITEM: NUMBER OF ATOMS
16
ITEM: BOX BOUNDS xy xz yz  pp  pp  pp
     -0.300000      4.040544      0.000000
     -0.300000      4.040544      0.000000
     -0.300000      2.769228      0.000000
ITEM: ATOMS id type xs ys zs
     1     1      0.219446      0.223177      0.170762
     2     1      0.650140      0.263096      0.617663
     3     1      0.315872      0.799092      0.515241
     4     1      0.822715      0.709736      1.032181
     5     2      0.862667      1.027436      0.193700
     6     2      0.530651      1.019184      1.046103
     7     2      0.990907      0.463739      0.237901
     8     2      0.505188      0.701973      1.040843
     9     2      0.925449      0.227548      0.767250
    10     2      0.386943      1.056839      0.766847
    11     2      0.169053      0.492212      0.702134
    12     2      0.499287      0.523167      0.448568
    13     2      0.162286      0.325824      0.659375
    14     2      0.855372      0.154983      0.104311
    15     2      0.324497      0.671464      1.046759
    16     2      0.923240      0.722937      0.582917
ITEM: TIMESTEP
1813
ITEM: NUMBER OF ATOMS
16
ITEM: BOX BOUNDS xy xz yz  pp  pp  pp
     -0.300000      4.040544      0.000000
     -0.300000      4.040544      0.000000
     -0.300000      2.769228      0.000000
ITEM: ATOMS id type xs ys zs
     1     1      0.219695      0.223568      0.171038
     2     1      0.650318      0.263413      0.617083
     3     1      0.316123      0.798891      0.515116
     4     1      0.822535      0.709692      1.032088
     5     2      0.863119      1.027520      0.192944
     6     2      0.530505      1.019681      1.046538
     7     2      0.991270      0.463995      0.237962
     8     2      0.505109      0.701726      1.039852
     9     2      0.925565      0.227605      0.766984
    10     2      0.386881      1.056840      0.766921
    11     2      0.169231      0.491441      0.701066
    12     2      0.498888      0.523151      0.448505
    13     2      0.162250      0.325679      0.659561
    14     2      0.855140      0.155895      0.104024
    15     2      0.324607      0.671896      1.046883
    16     2      0.923226      0.722804      0.582376
ITEM: TIMESTEP
1814
ITEM: NUMBER OF ATOMS
16
ITEM: BOX BOUNDS xy xz yz  pp  pp  pp
     -0.300000      4.040544      0.000000
     -0.300000      4.040544      0.000000
     -0.300000      2.769228      0.000000
ITEM: ATOMS id type xs ys zs
     1     1      0.220249      0.223541      0.170642
     2     1      0.650090      0.263634      0.616683
     3     1      0.315418      0.798899      0.514687
     4     1      0.822685      0.709469      1.032217
     5     2      0.862997      1.027605      0.191851
     6     2      0.530037      1.020055      1.047333
     7     2      0.990817      0.463945      0.238154
     8     2      0.504786      0.701528      1.039451
     9     2      0.926091      0.227701      0.767516
    10     2      0.386357      1.057022      0.767240
    11     2      0.168943      0.491828      0.700897
    12     2      0.498846      0.523336      0.448437
    13     2      0.162495      0.325057      0.659178
    14     2      0.854836      0.155925      0.104633
    15     2      0.325000      0.672162      1.046672
    16     2      0.922978      0.723210      0.581772
ITEM: TIMESTEP
1815
ITEM: NUMBER OF ATOMS
16
ITEM: BOX BOUNDS xy xz yz  pp  pp  pp
     -0.300000      4.040544      0.000000
     -0.300000      4.040544      0.000000
     -0.300000      2.769228      0.000000
ITEM: ATOMS id type xs ys zs
     1     1      0.220453      0.223567      0.170730
     2     1      0.650000      0.263022      0.617166
     3     1      0.315367      0.798618      0.515019
     4     1      0.822775      0.709313      1.033163
     5     2      0.862313      1.028038      0.191289
     6     2      0.529427      1.020264      1.047636
     7     2      0.991079      0.463870      0.238669
     8     2      0.504346      0.701463      1.039622
     9     2      0.926472      0.227874      0.767926
    10     2      0.386606      1.057387      0.766799
    11     2      0.168485      0.491875      0.699618
    12     2      0.498386      0.523481      0.447524
    13     2      0.162572      0.324424      0.660073
    14     2      0.854999      0.156474      0.104845
    15     2      0.324608      0.672156      1.047128
    16     2      0.922733      0.723472      0.581276
ITEM: TIMESTEP
1816
ITEM: NUMBER OF ATOMS
16
ITEM: BOX BOUNDS xy xz yz  pp  pp  pp
     -0.300000      4.040544      0.000000
     -0.300000      4.040544      0.000000
     -0.300000      2.769228      0.000000
ITEM: ATOMS id type xs ys zs
     1     1      0.220408      0.223458      0.171021
     2     1      0.649364      0.263405      0.616674
     3     1      0.315167      0.798645      0.515419
     4     1      0.822676      0.709336      1.033024
     5     2      0.862611      1.028006      0.190685
     6     2      0.528785      1.020143      1.048013
     7     2      0.990991      0.463294      0.238450
     8     2      0.503984      0.701422      1.039627
     9     2      0.926881      0.227651      0.767305
    10     2      0.386078      1.057571      0.767550
    11     2      0.168397      0.491671      0.699279
    12     2      0.499355      0.524163      0.448199
    13     2      0.163361      0.324405      0.659579
    14     2      0.855085      0.156761      0.105267
    15     2      0.324957      0.672542      1.047123
    16     2      0.922762      0.723597      0.581345
ITEM: TIMESTEP
1817
ITEM: NUMBER OF ATOMS
16
ITEM: BOX BOUNDS xy xz yz  pp  pp  pp
     -0.300000      4.040544      0.000000
     -0.300000      4.040544      0.000000
     -0.300000      2.769228      0.000000
ITEM: ATOMS id type xs ys zs
     1     1      0.220193      0.223583      0.170868
     2     1      0.649146      0.263442      0.616416
     3     1      0.315169      0.798008      0.514528
     4     1      0.822919      0.708695      1.032416
     5     2      0.862746      1.028528      0.190751
     6     2      0.528983      1.020236      1.048280
     7     2      0.991019      0.463398      0.238806
     8     2      0.503882      0.701812      1.039064
     9     2      0.927424      0.227733      0.766868
    10     2      0.385708      1.057604      0.767441
    11     2      0.168651      0.491577      0.698537
    12     2      0.498826      0.524783      0.448347
    13     2      0.163312      0.324206      0.659180
    14     2      0.854835      0.157416      0.104895
    15     2      0.325138      0.672840      1.047244
    16     2      0.922758      0.723643      0.581586
ITEM: TIMESTEP
1818
ITEM: NUMBER OF ATOMS
16
ITEM: BOX BOUNDS xy xz yz  pp  pp  pp
     -0.300000      4.040544      0.000000
     -0.300000      4.040544      0.000000
     -0.300000      2.769228      0.000000
ITEM: ATOMS id type xs ys zs
     1     1      0.220200      0.223327      0.171669
     2     1      0.649436      0.263595      0.615403
     3     1      0.315392      0.797541      0.514400
     4     1      0.822801      0.708931      1.032186
     5     2      0.863091      1.028306      0.190123
     6     2      0.528641      1.020947      1.048633
     7     2      0.991095      0.463648      0.239032
     8     2      0.504334      0.701788      1.039300
     9     2      0.927604      0.227958      0.766721
    10     2      0.385497      1.058135      0.767847
    11     2      0.168792      0.491367      0.698876
    12     2      0.499605      0.524504      0.448856
    13     2      0.163555      0.324399      0.658461
    14     2      0.854096      0.157796      0.105487
    15     2      0.324941      0.673118      1.047508
    16     2      0.922899      0.723395      0.581644
ITEM: TIMESTEP
1819
ITEM: NUMBER OF ATOMS
16
ITEM: BOX BOUNDS xy xz yz  pp  pp  pp
     -0.300000      4.040544      0.000000
     -0.300000      4.040544      0.000000
     -0.300000      2.769228      0.000000
ITEM: ATOMS id type xs ys zs
     1     1      0.220177      0.223114      0.171799
     2     1      0.649189      0.263713      0.615538
     3     1      0.315989      0.797443      0.514605
     4     1      0.822627      0.708363      1.031694
     5     2      0.863415      1.027834      0.189663
     6     2      0.527966      1.020688      1.048709
     7     2      0.991338      0.463506      0.238452
     8     2      0.504138      0.701413      1.038786
     9     2      0.927935      0.228041      0.767062
    10     2      0.385426      1.058807      0.768589
    11     2      0.169012      0.491487      0.698101
    12     2      0.499801      0.524680      0.448849
    13     2      0.163545      0.324030      0.659332
    14     2      0.852907      0.158732      0.106345
    15     2      0.325397      0.673579      1.046823
    16     2      0.922205      0.723603      0.581303
ITEM: TIMESTEP
1820
ITEM: NUMBER OF ATOMS
16
ITEM: BOX BOUNDS xy xz yz  pp  pp  pp
     -0.300000      4.040544      0.000000
     -0.300000      4.040544      0.000000
     -0.300000      2.769228      0.000000
ITEM: ATOMS id type xs ys zs
     1     1      0.220338      0.223551      0.172170
     2     1      0.649564      0.263663      0.615748
     3     1      0.315766      0.797099      0.514136
     4     1      0.822430      0.707764      1.031040
     5     2      0.863122      1.027851      0.189841
     6     2      0.528282      1.020540      1.049165
     7     2      0.991171      0.463292      0.238831
     8     2      0.504134      0.701694      1.038781
     9     2      0.928124      0.227799      0.766667
    10     2      0.385174      1.058441      0.768149
    11     2      0.168715      0.491124      0.697292
    12     2      0.500123      0.524875      0.448812
    13     2      0.163757      0.323770      0.659083
    14     2      0.852902      0.158891      0.106496
    15     2      0.324890      0.673639      1.046970
    16     2      0.922659      0.723365      0.581193
ITEM: TIMESTEP
1821
ITEM: NUMBER OF ATOMS
16
ITEM: BOX BOUNDS xy xz yz  pp  pp  pp
     -0.300000      4.040544      0.000000
     -0.300000      4.040544      0.000000
     -0.300000      2.769228      0.000000
ITEM: ATOMS id type xs ys zs
     1     1      0.220950      0.223388      0.172409
     2     1      0.649921      0.264021      0.616195
     3     1      0.315731      0.796658      0.514646
     4     1      0.822645      0.707313      1.030783
     5     2      0.863263      1.028111      0.189145
     6     2      0.528186      1.020594      1.049133
     7     2      0.990971      0.463129      0.240108
     8     2      0.504371      0.701692      1.038480
     9     2      0.928948      0.227446      0.766547
    10     2      0.385066      1.058421      0.768153
    11     2      0.168441      0.491217      0.696835
    12     2      0.500641      0.524986      0.448337
    13     2      0.164087      0.322932      0.659141
    14     2      0.852677      0.159162      0.106772
    15     2      0.325105      0.673427      1.046958
    16     2      0.922254      0.722924      0.581758
ITEM: TIMESTEP
1822
ITEM: NUMBER OF ATOMS
16
ITEM: BOX BOUNDS xy xz yz  pp  pp  pp
     -0.300000      4.040544      0.000000
     -0.300000      4.040544      0.000000
     -0.300000      2.769228      0.000000
ITEM: ATOMS id type xs ys zs
     1     1      0.221024      0.223848      0.173335
     2     1      0.649658      0.264549      0.616309
     3     1      0.315405      0.795790      0.514783
     4     1      0.822427      0.706830      1.030792
     5     2      0.863569      1.027925      0.188457
     6     2      0.527856      1.020663      1.049662
     7     2      0.991343      0.463106      0.240457
     8     2      0.504063      0.701584      1.037991
     9     2      0.929348      0.227052      0.766380
    10     2      0.384761      1.058547      0.768633
    11     2      0.168278      0.491087      0.697100
    12     2      0.500706      0.525474      0.448544
    13     2      0.164528      0.323141      0.658282
    14     2      0.852074      0.159731      0.106925
    15     2      0.325138      0.673768      1.047072
    16     2      0.922301      0.722537      0.581790
ITEM: TIMESTEP
1823
ITEM: NUMBER OF ATOMS
16
ITEM: BOX BOUNDS xy xz yz  pp  pp  pp
     -0.300000      4.040544      0.000000
     -0.300000      4.040544      0.000000
     -0.300000      2.769228      0.000000
ITEM: ATOMS id type xs ys zs
     1     1      0.221288      0.223836      0.173208
     2     1      0.650155      0.264692      0.615707
     3     1      0.315340      0.795308      0.514962
     4     1      0.822485      0.706298      1.031069
     5     2      0.863961      1.027931      0.188537
     6     2      0.528030      1.020961      1.049596
     7     2      0.991462      0.462791      0.241144
     8     2      0.504219      0.701381      1.038166
     9     2      0.929881      0.227512      0.765461
    10     2      0.384938      1.058118      0.769309
    11     2      0.168318      0.491497      0.697796
    12     2      0.500463      0.526000      0.449037
    13     2      0.164573      0.323001      0.658966
    14     2      0.852215      0.159853      0.106194
    15     2      0.325416      0.673505      1.047390
    16     2      0.922597      0.722992      0.581276
ITEM: TIMESTEP
1824
ITEM: NUMBER OF ATOMS
16
ITEM: BOX BOUNDS xy xz yz  pp  pp  pp
     -0.300000      4.040544      0.000000
     -0.300000      4.040544      0.000000
     -0.300000      2.769228      0.000000
ITEM: ATOMS id type xs ys zs
     1     1      0.222164      0.223570      0.173451
     2     1      0.650462      0.265073      0.616021
     3     1      0.315421      0.795229      0.514694
     4     1      0.822411      0.706082      1.030053
     5     2      0.863751      1.027734      0.188610
     6     2      0.528088      1.020822      1.048917
     7     2      0.991448      0.462742      0.240571
     8     2      0.504680      0.701524      1.038406
     9     2      0.930562      0.227281      0.764442
    10     2      0.384877      1.057936      0.769331
    11     2      0.168142      0.491503      0.697180
    12     2      0.501018      0.525988      0.449604
    13     2      0.165113      0.322813      0.658766
    14     2      0.852155      0.160210      0.106981
    15     2      0.325055      0.673650      1.047379
    16     2      0.922074      0.722953      0.581693
ITEM: TIMESTEP
1825
ITEM: NUMBER OF ATOMS
16
ITEM: BOX BOUNDS xy xz yz  pp  pp  pp
     -0.300000      4.040544      0.000000
     -0.300000      4.040544      0.000000
     -0.300000      2.769228      0.000000
ITEM: ATOMS id type xs ys zs
     1     1      0.221835      0.223673      0.173288
     2     1      0.650854      0.265005      0.616171
     3     1      0.314883      0.795275      0.514961
     4     1      0.822618      0.705907      1.029727
     5     2      0.864022      1.027493      0.188571
     6     2      0.528648      1.021384      1.049609
     7     2      0.992077      0.462869      0.241250
     8     2      0.504322      0.701586      1.038928
     9     2      0.930992      0.227472      0.763932
    10     2      0.385211      1.057817      0.769314
    11     2      0.168060      0.491158      0.696688
    12     2      0.501690      0.526285      0.449242
    13     2      0.165298      0.322737      0.659093
    14     2      0.852104      0.160136      0.107569
    15     2      0.324684      0.674476      1.047437
    16     2      0.922190      0.723190      0.581311
ITEM: TIMESTEP
1826
ITEM: NUMBER OF ATOMS
16
ITEM: BOX BOUNDS xy xz yz  pp  pp  pp
     -0.300000      4.040544      0.000000
     -0.300000      4.040544      0.000000
     -0.300000      2.769228      0.000000
ITEM: ATOMS id type xs ys zs
     1     1      0.221928      0.223953      0.174234
     2     1      0.650924      0.264598      0.616451
     3     1      0.314130      0.795381      0.515267
     4     1      0.822652      0.705874      1.029528
     5     2      0.864233      1.027364      0.188006
     6     2      0.528799      1.021282      1.049771
     7     2      0.992272      0.462520      0.241568
     8     2      0.504436      0.701578      1.038845
     9     2      0.931243      0.227057      0.763777
    10     2      0.385362      1.057636      0.769422
    11     2      0.167438      0.490975      0.695773
    12     2      0.500907      0.525793      0.449022
    13     2      0.165610      0.322150      0.659102
    14     2      0.852627      0.160236      0.107601
    15     2      0.324397      0.675512      1.047076
    16     2      0.921807      0.723053      0.582266
ITEM: TIMESTEP
1827
ITEM: NUMBER OF ATOMS
16
ITEM: BOX BOUNDS xy xz yz  pp  pp  pp
     -0.300000      4.040544      0.000000
     -0.300000      4.040544      0.000000
     -0.300000      2.769228      0.000000
ITEM: ATOMS id type xs ys zs
     1     1      0.222603      0.224460      0.173938
     2     1      0.651304      0.265190      0.616456
     3     1      0.314161      0.795504      0.515322
     4     1      0.822440      0.705774      1.028835
     5     2      0.864044      1.026898      0.188216
     6     2      0.528444      1.021012      1.049720
     7     2      0.992159      0.462002      0.242341
     8     2      0.503962      0.701213      1.039397
     9     2      0.931711      0.226843      0.763412
    10     2      0.385597      1.057010      0.768583
    11     2      0.167120      0.490699      0.695431