ITEM: TIMESTEP
1801
ITEM: NUMBER OF ATOMS
16
ITEM: BOX BOUNDS xy xz yz  pp  pp  pp
     -0.300000      4.040544      0.000000
     -0.300000      4.040544      0.000000
     -0.300000      2.769228      0.000000
ITEM: ATOMS id type xs ys zs
     1     1      0.218710      0.221749      0.171157
     2     1      0.651301      0.262911      0.616904
     3     1      0.318201      0.801327      0.513759
     4     1      0.822776      0.713140      1.037410
     5     2      0.861470      1.028873      0.193921
     6     2      0.532054      1.017522      1.047438
     7     2      0.990364      0.463672      0.236337
     8     2      0.504604      0.701152      1.040894
     9     2      0.921291      0.229511      0.765906
    10     2      0.387002      1.053912      0.761350
    11     2      0.169133      0.493377      0.702875
    12     2      0.497878      0.522571      0.446261
    13     2      0.160549      0.329759      0.655568
    14     2      0.857479      0.152273      0.104608
    15     2      0.323032      0.669455      1.045058
    16     2      0.922786      0.723146      0.580639
ITEM: TIMESTEP
1802
ITEM: NUMBER OF ATOMS
16
ITEM: BOX BOUNDS xy xz yz  pp  pp  pp
     -0.300000      4.040544      0.000000
     -0.300000      4.040544      0.000000
     -0.300000      2.769228      0.000000
ITEM: ATOMS id type xs ys zs
     1     1      0.219570      0.221917      0.170613
     2     1      0.650502      0.263159      0.615899
     3     1      0.317712      0.801719      0.513466
     4     1      0.823247      0.712737      1.036783
     5     2      0.861753      1.028788      0.193480
     6     2      0.532234      1.017720      1.047886
     7     2      0.989948      0.462885      0.236830
     8     2      0.505110      0.701513      1.041543
     9     2      0.921901      0.229252      0.765563
    10     2      0.387652      1.053466      0.761244
    11     2      0.168275      0.492853      0.702973
    12     2      0.497675      0.523169      0.446980
    13     2      0.160916      0.329904      0.655754
    14     2      0.857609      0.152188      0.104327
    15     2      0.323177      0.669425      1.044458
    16     2      0.922819      0.723500      0.580716
ITEM: TIMESTEP
1803
ITEM: NUMBER OF ATOMS
16
ITEM: BOX BOUNDS xy xz yz  pp  pp  pp
     -0.300000      4.040544      0.000000
     -0.300000      4.040544      0.000000
     -0.300000      2.769228      0.000000
ITEM: ATOMS id type xs ys zs
     1     1      0.219657      0.222122      0.169615
     2     1      0.650082      0.263454      0.615390
     3     1      0.317006      0.801205      0.513466
     4     1      0.823142      0.712362      1.036015
     5     2      0.861460      1.028816      0.193062
     6     2      0.532096      1.017294      1.047913
     7     2      0.990514      0.463369      0.237421
     8     2      0.505138      0.701751      1.041703
     9     2      0.922293      0.229285      0.765607
    10     2      0.387754      1.053758      0.761885
    11     2      0.167944      0.493031      0.702804
    12     2      0.497503      0.523048      0.447287
    13     2      0.161831      0.329758      0.656037
    14     2      0.857596      0.152806      0.104430
    15     2      0.322974      0.668867      1.044631
    16     2      0.922154      0.723717      0.580758
ITEM: TIMESTEP
1804
ITEM: NUMBER OF ATOMS
16
ITEM: BOX BOUNDS xy xz yz  pp  pp  pp
     -0.300000      4.040544      0.000000
     -0.300000      4.040544      0.000000
     -0.300000      2.769228      0.000000
ITEM: ATOMS id type xs ys zs
     1     1      0.219787      0.222124      0.169825
     2     1      0.649733      0.263683      0.614426
     3     1      0.316210      0.800609      0.513610
     4     1      0.822493      0.712128      1.036294
     5     2      0.861956      1.029151      0.192677
     6     2      0.531885      1.017543      1.047779
     7     2      0.990422      0.463443      0.237701
     8     2      0.505098      0.701134      1.041616
     9     2      0.923077      0.228836      0.765673
    10     2      0.387756      1.054111      0.762723
    11     2      0.167737      0.492839      0.702859
    12     2      0.497436      0.523147      0.447462
    13     2      0.161891      0.329669      0.656366
    14     2      0.857000      0.153215      0.103437
    15     2      0.322954      0.669074      1.045443
    16     2      0.921590      0.723005      0.581780
ITEM: TIMESTEP
1805
ITEM: NUMBER OF ATOMS
16
ITEM: BOX BOUNDS xy xz yz  pp  pp  pp
     -0.300000      4.040544      0.000000
     -0.300000      4.040544      0.000000
     -0.300000      2.769228      0.000000
ITEM: ATOMS id type xs ys zs
     1     1      0.219924      0.221828      0.170574
     2     1      0.649793      0.263842      0.614156
     3     1      0.315844      0.800086      0.514175
     4     1      0.822455      0.711798      1.035188
     5     2      0.862286      1.029280      0.191887
     6     2      0.531602      1.017192      1.047228
     7     2      0.990683      0.462611      0.237429
     8     2      0.504947      0.701062      1.041222
     9     2      0.923972      0.228876      0.765913
    10     2      0.387349      1.054307      0.763110
    11     2      0.167642      0.493554      0.702114
    12     2      0.497077      0.523633      0.446901
    13     2      0.161939      0.329335      0.656047
    14     2      0.857114      0.153736      0.103285
    15     2      0.322940      0.669522      1.045766
    16     2      0.921581      0.723321      0.582181
ITEM: TIMESTEP
1806
ITEM: NUMBER OF ATOMS
16
ITEM: BOX BOUNDS xy xz yz  pp  pp  pp
     -0.300000      4.040544      0.000000
     -0.300000      4.040544      0.000000
     -0.300000      2.769228      0.000000
ITEM: ATOMS id type xs ys zs
     1     1      0.220085      0.221720      0.170400
     2     1      0.649801      0.264099      0.613169
     3     1      0.315304      0.799957      0.513847
     4     1      0.822598      0.710830      1.035507
     5     2      0.862535      1.029248      0.191941
     6     2      0.531547      1.017251      1.046861
     7     2      0.990280      0.462324      0.237847
     8     2      0.504791      0.700559      1.040402
     9     2      0.924528      0.229290      0.766932
    10     2      0.387327      1.054314      0.763610
    11     2      0.167542      0.494076      0.701635
    12     2      0.497032      0.523225      0.446919
    13     2      0.162445      0.328816      0.655991
    14     2      0.856546      0.153499      0.103820
    15     2      0.323347      0.669984      1.046057
    16     2      0.921197      0.723175      0.583054
ITEM: TIMESTEP
1807
ITEM: NUMBER OF ATOMS
16
ITEM: BOX BOUNDS xy xz yz  pp  pp  pp
     -0.300000      4.040544      0.000000
     -0.300000      4.040544      0.000000
     -0.300000      2.769228      0.000000
ITEM: ATOMS id type xs ys zs
     1     1      0.220349      0.221572      0.170296
     2     1      0.650049      0.264002      0.611930
     3     1      0.314949      0.799892      0.514052
     4     1      0.822512      0.710616      1.035321
     5     2      0.862732      1.029356      0.191832
     6     2      0.531537      1.017526      1.047429
     7     2      0.990149      0.462242      0.237005
     8     2      0.505099      0.700095      1.039470
     9     2      0.925054      0.228973      0.767222
    10     2      0.387097      1.054418      0.764104
    11     2      0.167128      0.494073      0.701142
    12     2      0.497042      0.523808      0.446877
    13     2      0.162531      0.328690      0.655743
    14     2      0.856398      0.153556      0.104382
    15     2      0.323291      0.669879      1.046199
    16     2      0.921641      0.723402      0.583033
ITEM: TIMESTEP
1808
ITEM: NUMBER OF ATOMS
16
ITEM: BOX BOUNDS xy xz yz  pp  pp  pp
     -0.300000      4.040544      0.000000
     -0.300000      4.040544      0.000000
     -0.300000      2.769228      0.000000
ITEM: ATOMS id type xs ys zs
     1     1      0.220505      0.221459      0.170570
     2     1      0.650400      0.264101      0.611696
     3     1      0.315080      0.799395      0.515094
     4     1      0.821762      0.710563      1.035084
     5     2      0.863307      1.028884      0.192542
     6     2      0.530552      1.017849      1.047498
     7     2      0.989936      0.462004      0.236900
     8     2      0.504617      0.700415      1.038762
     9     2      0.925508      0.228936      0.766442
    10     2      0.387429      1.054779      0.764452
    11     2      0.167282      0.493980      0.700577
    12     2      0.496711      0.523798      0.446914
    13     2      0.162280      0.328207      0.655860
    14     2      0.855551      0.153881      0.104424
    15     2      0.323214      0.669978      1.045793
    16     2      0.921699      0.723264      0.583811
ITEM: TIMESTEP
1809
ITEM: NUMBER OF ATOMS
16
ITEM: BOX BOUNDS xy xz yz  pp  pp  pp
     -0.300000      4.040544      0.000000
     -0.300000      4.040544      0.000000
     -0.300000      2.769228      0.000000
ITEM: ATOMS id type xs ys zs
     1     1      0.220818      0.221471      0.170250
     2     1      0.649681      0.264079      0.612483
     3     1      0.315473      0.799626      0.516743
     4     1      0.822156      0.710709      1.034602
     5     2      0.863739      1.028601      0.192573
     6     2      0.530170      1.017831      1.047036
     7     2      0.989730      0.462217      0.236552
     8     2      0.504929      0.700461      1.038711
     9     2      0.925938      0.228785      0.766352
    10     2      0.387634      1.054915      0.764168
    11     2      0.167186      0.494764      0.700093
    12     2      0.496664      0.524407      0.447368
    13     2      0.162004      0.328048      0.655572
    14     2      0.855163      0.153991      0.105192
    15     2      0.322988      0.670152      1.045023
    16     2      0.921686      0.723251      0.584392
ITEM: TIMESTEP
1810
ITEM: NUMBER OF ATOMS
16
ITEM: BOX BOUNDS xy xz yz  pp  pp  pp
     -0.300000      4.040544      0.000000
     -0.300000      4.040544      0.000000
     -0.300000      2.769228      0.000000
ITEM: ATOMS id type xs ys zs
     1     1      0.220239      0.221268      0.170218
     2     1      0.649559      0.264191      0.612314
     3     1      0.315443      0.799591      0.516927
     4     1      0.822533      0.710550      1.034134
     5     2      0.863799      1.028431      0.192039
     6     2      0.529802      1.018206      1.047329
     7     2      0.989896      0.462578      0.236553
     8     2      0.505527      0.700057      1.039297
     9     2      0.926374      0.228744      0.765783
    10     2      0.388237      1.054944      0.764190
    11     2      0.167068      0.494848      0.700223
    12     2      0.496707      0.524399      0.447812
    13     2      0.162784      0.327840      0.656150
    14     2      0.854276      0.153719      0.104957
    15     2      0.322382      0.670655      1.044580
    16     2      0.921366      0.723267      0.583866
ITEM: TIMESTEP
1811
ITEM: NUMBER OF ATOMS
16
ITEM: BOX BOUNDS xy xz yz  pp  pp  pp
     -0.300000      4.040544      0.000000
     -0.300000      4.040544      0.000000
     -0.300000      2.769228      0.000000
ITEM: ATOMS id type xs ys zs
     1     1      0.220162      0.221574      0.169689
     2     1      0.649717      0.264350      0.612715
     3     1      0.315499      0.799333      0.517438
     4     1      0.822560      0.709518      1.034511
     5     2      0.863614      1.028512      0.191503
     6     2      0.529898      1.018482      1.047663
     7     2      0.990039      0.462620      0.236880
     8     2      0.505514      0.699574      1.039696
     9     2      0.927189      0.228377      0.766422
    10     2      0.388451      1.054929      0.764213
    11     2      0.167119      0.495060      0.699655
    12     2      0.496692      0.524627      0.448744
    13     2      0.162736      0.327180      0.656027
    14     2      0.854454      0.154048      0.104955
    15     2      0.322507      0.671114      1.044216
    16     2      0.920889      0.723596      0.584523
ITEM: TIMESTEP
1812
ITEM: NUMBER OF ATOMS
16
ITEM: BOX BOUNDS xy xz yz  pp  pp  pp
     -0.300000      4.040544      0.000000
     -0.300000      4.040544      0.000000
     -0.300000      2.769228      0.000000
ITEM: ATOMS id type xs ys zs
     1     1      0.220604      0.222199      0.169427
     2     1      0.649814      0.264678      0.612827
     3     1      0.315457      0.799359      0.517125
     4     1      0.823126      0.709386      1.035235
     5     2      0.863644      1.028695      0.192058
     6     2      0.529914      1.018493      1.047117
     7     2      0.990210      0.462194      0.237637
     8     2      0.505350      0.699657      1.040588
     9     2      0.926821      0.228401      0.766530
    10     2      0.388310      1.055155      0.764741
    11     2      0.166856      0.495218      0.699761
    12     2      0.496717      0.524370      0.449581
    13     2      0.162660      0.327172      0.655963
    14     2      0.853661      0.154509      0.104879
    15     2      0.322223      0.671773      1.044879
    16     2      0.920806      0.723069      0.585092
ITEM: TIMESTEP
1813
ITEM: NUMBER OF ATOMS
16
ITEM: BOX BOUNDS xy xz yz  pp  pp  pp
     -0.300000      4.040544      0.000000
     -0.300000      4.040544      0.000000
     -0.300000      2.769228      0.000000
ITEM: ATOMS id type xs ys zs
     1     1      0.220583      0.222410      0.169572
     2     1      0.649459      0.264218      0.613060
     3     1      0.316111      0.799059      0.517280
     4     1      0.822589      0.708677      1.034076
     5     2      0.863530      1.028561      0.192144
     6     2      0.530187      1.018883      1.047416
     7     2      0.989686      0.462278      0.237390
     8     2      0.505165      0.699020      1.040494
     9     2      0.927471      0.228187      0.766345
    10     2      0.388052      1.054986      0.765423
    11     2      0.166961      0.495720      0.699458
    12     2      0.496914      0.524667      0.449191
    13     2      0.163230      0.326780      0.655907
    14     2      0.853920      0.155230      0.105044
    15     2      0.322484      0.672791      1.044310
    16     2      0.921021      0.723090      0.584969
ITEM: TIMESTEP
1814
ITEM: NUMBER OF ATOMS
16
ITEM: BOX BOUNDS xy xz yz  pp  pp  pp
     -0.300000      4.040544      0.000000
     -0.300000      4.040544      0.000000
     -0.300000      2.769228      0.000000
ITEM: ATOMS id type xs ys zs
     1     1      0.220761      0.222254      0.169635
     2     1      0.649596      0.264381      0.612737
     3     1      0.315485      0.798232      0.517797
     4     1      0.823002      0.708410      1.033578
     5     2      0.863353      1.028441      0.191663
     6     2      0.530193      1.019232      1.046993
     7     2      0.989815      0.462185      0.237271
     8     2      0.504973      0.699119      1.041033
     9     2      0.927665      0.227971      0.766910
    10     2      0.388630      1.054929      0.766546
    11     2      0.166782      0.495789      0.698796
    12     2      0.496684      0.524616      0.449335
    13     2      0.163808      0.326421      0.656187
    14     2      0.853830      0.155353      0.105023
    15     2      0.322254      0.673707      1.044360
    16     2      0.920675      0.723281      0.585356
ITEM: TIMESTEP
1815
ITEM: NUMBER OF ATOMS
16
ITEM: BOX BOUNDS xy xz yz  pp  pp  pp
     -0.300000      4.040544      0.000000
     -0.300000      4.040544      0.000000
     -0.300000      2.769228      0.000000
ITEM: ATOMS id type xs ys zs
     1     1      0.220753      0.222208      0.169974
     2     1      0.649937      0.264575      0.612694
     3     1      0.315348      0.797687      0.518363
     4     1      0.822624      0.708161      1.033614
     5     2      0.863010      1.028567      0.191097
     6     2      0.530642      1.019301      1.047685
     7     2      0.990303      0.462088      0.237433
     8     2      0.504678      0.699751      1.041564
     9     2      0.927842      0.227689      0.766603
    10     2      0.388900      1.054910      0.766299
    11     2      0.166684      0.496188      0.698439
    12     2      0.496168      0.525055      0.449501
    13     2      0.164010      0.325588      0.656318
    14     2      0.853685      0.155467      0.104837
    15     2      0.321226      0.673729      1.043995
    16     2      0.920860      0.723695      0.585071
ITEM: TIMESTEP
1816
ITEM: NUMBER OF ATOMS
16
ITEM: BOX BOUNDS xy xz yz  pp  pp  pp
     -0.300000      4.040544      0.000000
     -0.300000      4.040544      0.000000
     -0.300000      2.769228      0.000000
ITEM: ATOMS id type xs ys zs
     1     1      0.221366      0.222193      0.169680
     2     1      0.649469      0.265079      0.612973
     3     1      0.314744      0.797076      0.517458
     4     1      0.822694      0.707971      1.033380
     5     2      0.862804      1.029235      0.190489
     6     2      0.530938      1.019721      1.048098
     7     2      0.990447      0.462064      0.236905
     8     2      0.504655      0.699816      1.041993
     9     2      0.928340      0.227606      0.766442
    10     2      0.388829      1.054912      0.767472
    11     2      0.166818      0.495954      0.697475
    12     2      0.496384      0.524977      0.449313
    13     2      0.164783      0.325788      0.656514
    14     2      0.852919      0.155131      0.104732
    15     2      0.320881      0.674150      1.044907
    16     2      0.920163      0.724146      0.585686
ITEM: TIMESTEP
1817
ITEM: NUMBER OF ATOMS
16
ITEM: BOX BOUNDS xy xz yz  pp  pp  pp
     -0.300000      4.040544      0.000000
     -0.300000      4.040544      0.000000
     -0.300000      2.769228      0.000000
ITEM: ATOMS id type xs ys zs
     1     1      0.221703      0.222219      0.169868
     2     1      0.649619      0.264685      0.613447
     3     1      0.314064      0.796793      0.517902
     4     1      0.822926      0.708564      1.033096
     5     2      0.862888      1.029667      0.190864
     6     2      0.531328      1.019811      1.048410
     7     2      0.990408      0.461686      0.236969
     8     2      0.504624      0.699904      1.041961
     9     2      0.928730      0.227261      0.766532
    10     2      0.389325      1.054782      0.768790
    11     2      0.166380      0.495766      0.697647
    12     2      0.496374      0.524635      0.449159
    13     2      0.164893      0.325175      0.656651
    14     2      0.852463      0.155289      0.104535
    15     2      0.320699      0.674437      1.044827
    16     2      0.920668      0.724591      0.585449
ITEM: TIMESTEP
1818
ITEM: NUMBER OF ATOMS
16
ITEM: BOX BOUNDS xy xz yz  pp  pp  pp
     -0.300000      4.040544      0.000000
     -0.300000      4.040544      0.000000
     -0.300000      2.769228      0.000000
ITEM: ATOMS id type xs ys zs
     1     1      0.221957      0.222374      0.169435
     2     1      0.649835      0.264748      0.613646
     3     1      0.314312      0.796562      0.518967
     4     1      0.822947      0.707895      1.032540
     5     2      0.863183      1.029916      0.190224
     6     2      0.531134      1.019925      1.048877
     7     2      0.990247      0.461449      0.236327
     8     2      0.504843      0.699290      1.042961
     9     2      0.928589      0.227804      0.766155
    10     2      0.389307      1.055021      0.768665
    11     2      0.166813      0.495646      0.697588
    12     2      0.496646      0.524643      0.449812
    13     2      0.164940      0.324973      0.656935
    14     2      0.852595      0.156378      0.103947
    15     2      0.320276      0.674265      1.045156
    16     2      0.920812      0.724715      0.585766
ITEM: TIMESTEP
1819
ITEM: NUMBER OF ATOMS
16
ITEM: BOX BOUNDS xy xz yz  pp  pp  pp
     -0.300000      4.040544      0.000000
     -0.300000      4.040544      0.000000
     -0.300000      2.769228      0.000000
ITEM: ATOMS id type xs ys zs
     1     1      0.221815      0.222354      0.170410
     2     1      0.649973      0.264017      0.614144
     3     1      0.314486      0.796921      0.518915
     4     1      0.822847      0.707977      1.031986
     5     2      0.862916      1.029946      0.190663
     6     2      0.531394      1.019798      1.049074
     7     2      0.990433      0.461534      0.236169
     8     2      0.505223      0.699624      1.043183
     9     2      0.928697      0.227420      0.766231
    10     2      0.389852      1.055494      0.768702
    11     2      0.167046      0.495420      0.697448
    12     2      0.496591      0.525064      0.450453
    13     2      0.165446      0.324491      0.656215
    14     2      0.852491      0.155708      0.103550
    15     2      0.319563      0.674836      1.045532
    16     2      0.920322      0.724776      0.585711
ITEM: TIMESTEP
1820
ITEM: NUMBER OF ATOMS
16
ITEM: BOX BOUNDS xy xz yz  pp  pp  pp
     -0.300000      4.040544      0.000000
     -0.300000      4.040544      0.000000
     -0.300000      2.769228      0.000000
ITEM: ATOMS id type xs ys zs
     1     1      0.221615      0.222264      0.170436
     2     1      0.650171      0.264417      0.615392
     3     1      0.314281      0.796615      0.518807
     4     1      0.822231      0.707846      1.031623
     5     2      0.862590      1.030019      0.189851
     6     2      0.530562      1.020130      1.049232
     7     2      0.990333      0.460832      0.236745
     8     2      0.505051      0.699545      1.043531
     9     2      0.928889      0.227162      0.765126
    10     2      0.389589      1.055428      0.768630
    11     2      0.167053      0.495584      0.696374
    12     2      0.496734      0.525467      0.450853
    13     2      0.165507      0.323988      0.656831
    14     2      0.852537      0.155916      0.103515
    15     2      0.319930      0.675736      1.045177
    16     2      0.920651      0.724815      0.585882
ITEM: TIMESTEP
1821
ITEM: NUMBER OF ATOMS
16
ITEM: BOX BOUNDS xy xz yz  pp  pp  pp
     -0.300000      4.040544      0.000000
     -0.300000      4.040544      0.000000
     -0.300000      2.769228      0.000000
ITEM: ATOMS id type xs ys zs
     1     1      0.222035      0.222210      0.170887
     2     1      0.649975      0.264437      0.614220
     3     1      0.313870      0.796565      0.518926
     4     1      0.822210      0.707955      1.032138
     5     2      0.862416      1.029480      0.189706
     6     2      0.530803      1.020140      1.049120
     7     2      0.990396      0.460638      0.237366
     8     2      0.504790      0.699052      1.043014
     9     2      0.929078      0.226838      0.764999
    10     2      0.389518      1.054516      0.768498
    11     2      0.167817      0.495910      0.695775
    12     2      0.497058      0.525416      0.450998
    13     2      0.166164      0.324023      0.657018
    14     2      0.852210      0.156090      0.102910
    15     2      0.319841      0.676722      1.044457
    16     2      0.920486      0.724837      0.586066
ITEM: TIMESTEP
1822
ITEM: NUMBER OF ATOMS
16
ITEM: BOX BOUNDS xy xz yz  pp  pp  pp
     -0.300000      4.040544      0.000000
     -0.300000      4.040544      0.000000
     -0.300000      2.769228      0.000000
ITEM: ATOMS id type xs ys zs
     1     1      0.222016      0.223071      0.170932
     2     1      0.649632      0.264566      0.613691
     3     1      0.313747      0.796155      0.519005
     4     1      0.822464      0.708437      1.031433
     5     2      0.862741      1.029702      0.189647
     6     2      0.530729      1.020120      1.049963
     7     2      0.990348      0.461300      0.237585
     8     2      0.504519      0.699368      1.043218
     9     2      0.929540      0.226429      0.765122
    10     2      0.389252      1.054562      0.769014
    11     2      0.167376      0.496245      0.695992
    12     2      0.497162      0.525110      0.451132
    13     2      0.166532      0.323630      0.657099
    14     2      0.852125      0.156776      0.102092
    15     2      0.319900      0.677220      1.043560
    16     2      0.920274      0.724737      0.586806
ITEM: TIMESTEP
1823
ITEM: NUMBER OF ATOMS
16
ITEM: BOX BOUNDS xy xz yz  pp  pp  pp
     -0.300000      4.040544      0.000000
     -0.300000      4.040544      0.000000
     -0.300000      2.769228      0.000000
ITEM: ATOMS id type xs ys zs
     1     1      0.222030      0.222682      0.171466
     2     1      0.650082      0.264411      0.613004
     3     1      0.313256      0.796309      0.518481
     4     1      0.821844      0.708038      1.031702
     5     2      0.862968      1.029732      0.189104
     6     2      0.530039      1.020530      1.049768
     7     2      0.990108      0.461472      0.238524
     8     2      0.504720      0.699320      1.043042
     9     2      0.930218      0.225980      0.765321
    10     2      0.389179      1.054698      0.769307
    11     2      0.167453      0.496452      0.695918
    12     2      0.497755      0.525581      0.450608
    13     2      0.166602      0.323127      0.657336
    14     2      0.851812      0.156644      0.101552
    15     2      0.319973      0.677210      1.043854
    16     2      0.920530      0.724448      0.587005
ITEM: TIMESTEP
1824
ITEM: NUMBER OF ATOMS
16
ITEM: BOX BOUNDS xy xz yz  pp  pp  pp
     -0.300000      4.040544      0.000000
     -0.300000      4.040544      0.000000
     -0.300000      2.769228      0.000000
ITEM: ATOMS id type xs ys zs
     1     1      0.222519      0.222946      0.171398
     2     1      0.650496      0.264753      0.612753
     3     1      0.312801      0.796534      0.518803
     4     1      0.821667      0.707437      1.031768
     5     2      0.862798      1.029862      0.188497
     6     2      0.529672      1.021037      1.050070
     7     2      0.990365      0.461612      0.239289
     8     2      0.504426      0.699108      1.043412
     9     2      0.930098      0.225627      0.765087
    10     2      0.388706      1.055072      0.769935
    11     2      0.167939      0.496435      0.695354
    12     2      0.497373      0.525418      0.450471
    13     2      0.166448      0.323381      0.658920
    14     2      0.851488      0.157298      0.102111
    15     2      0.320224      0.677695      1.044213
    16     2      0.920011      0.724499      0.586958
ITEM: TIMESTEP
1825
ITEM: NUMBER OF ATOMS
16
ITEM: BOX BOUNDS xy xz yz  pp  pp  pp
     -0.300000      4.040544      0.000000
     -0.300000      4.040544      0.000000
     -0.300000      2.769228      0.000000
ITEM: ATOMS id type xs ys zs
     1     1      0.222468      0.222895      0.171145
     2     1      0.650654      0.264316      0.612706
     3     1      0.313063      0.797318      0.518486
     4     1      0.821559      0.707443      1.032107
     5     2      0.863050      1.029836      0.187311
     6     2      0.529560      1.021667      1.050495
     7     2      0.990687      0.461455      0.238956
     8     2      0.503973      0.698537      1.043348
     9     2      0.930225      0.225191      0.764347
    10     2      0.388361      1.055083      0.769506
    11     2      0.167264      0.496761      0.695146
    12     2      0.497748      0.525841      0.450483
    13     2      0.166834      0.322768      0.658446
    14     2      0.851155      0.157905      0.102379
    15     2      0.320042      0.677367      1.044166
    16     2      0.920316      0.724409      0.587475
ITEM: TIMESTEP
1826
ITEM: NUMBER OF ATOMS
16
ITEM: BOX BOUNDS xy xz yz  pp  pp  pp
     -0.300000      4.040544      0.000000
     -0.300000      4.040544      0.000000
     -0.300000      2.769228      0.000000
ITEM: ATOMS id type xs ys zs
     1     1      0.222779      0.222600      0.171493
     2     1      0.650628      0.264164      0.612534
     3     1      0.312873      0.797665      0.518308
     4     1      0.821275      0.707053      1.031878
     5     2      0.863014      1.029302      0.186973
     6     2      0.529607      1.021662      1.050416
     7     2      0.990770      0.461835      0.238767
     8     2      0.504268      0.698451      1.043051
     9     2      0.930146      0.225023      0.764593
    10     2      0.388269      1.055044      0.770020
    11     2      0.167430      0.496616      0.695356
    12     2      0.497671      0.525079      0.451101
    13     2      0.167335      0.322130      0.658472
    14     2      0.851429      0.157738      0.102364
    15     2      0.319756      0.677495      1.044060
    16     2      0.919936      0.724594      0.587800
ITEM: TIMESTEP
1827
ITEM: NUMBER OF ATOMS
16
ITEM: BOX BOUNDS xy xz yz  pp  pp  pp
     -0.300000      4.040544      0.000000
     -0.300000      4.040544      0.000000
     -0.300000      2.769228      0.000000
ITEM: ATOMS id type xs ys zs
     1     1      0.222574      0.223174      0.171942
     2     1      0.650509      0.263745      0.612343
     3     1      0.312284      0.797730      0.518505
     4     1      0.821861      0.707054      1.032161
     5     2      0.862680      1.029168      0.187110
     6     2      0.529499      1.022027      1.050113
     7     2      0.990637      0.461538      0.239128
     8     2      0.504431      0.698032      1.043308
     9     2      0.930645      0.225011      0.764739
    10     2      0.388630      1.055124      0.770705
    11     2      0.167463      0.496666      0.695163