ITEM: TIMESTEP
1801
ITEM: NUMBER OF ATOMS
16
ITEM: BOX BOUNDS xy xz yz  pp  pp  pp
     -0.300000      4.040544      0.000000
     -0.300000      4.040544      0.000000
     -0.300000      2.769228      0.000000
ITEM: ATOMS id type xs ys zs
     1     1      0.218666      0.221848      0.172059
     2     1      0.651125      0.262901      0.617283
     3     1      0.318564      0.801515      0.514010
     4     1      0.822573      0.712722      1.037197
     5     2      0.861857      1.029048      0.192927
     6     2      0.532158      1.017925      1.048345
     7     2      0.990653      0.463999      0.234985
     8     2      0.504361      0.701728      1.038879
     9     2      0.921487      0.228874      0.765427
    10     2      0.387117      1.053352      0.761218
    11     2      0.169955      0.493255      0.701916
    12     2      0.497695      0.522201      0.444941
    13     2      0.161407      0.329790      0.656455
    14     2      0.856248      0.152287      0.104327
    15     2      0.322695      0.669769      1.044904
    16     2      0.922745      0.723460      0.581552
ITEM: TIMESTEP
1802
ITEM: NUMBER OF ATOMS
16
ITEM: BOX BOUNDS xy xz yz  pp  pp  pp
     -0.300000      4.040544      0.000000
     -0.300000      4.040544      0.000000
     -0.300000      2.769228      0.000000
ITEM: ATOMS id type xs ys zs
     1     1      0.218839      0.221792      0.172241
     2     1      0.650754      0.263325      0.616504
     3     1      0.318527      0.801338      0.513540
     4     1      0.822779      0.712519      1.037216
     5     2      0.861506      1.028975      0.192635
     6     2      0.532134      1.018237      1.048750
     7     2      0.990622      0.463681      0.235796
     8     2      0.505045      0.701559      1.038241
     9     2      0.922088      0.228548      0.765570
    10     2      0.387339      1.053477      0.761592
    11     2      0.170197      0.493240      0.701761
    12     2      0.497291      0.522243      0.444781
    13     2      0.161366      0.329386      0.656240
    14     2      0.856173      0.152597      0.104342
    15     2      0.322684      0.670189      1.045229
    16     2      0.923029      0.723348      0.581079
ITEM: TIMESTEP
1803
ITEM: NUMBER OF ATOMS
16
ITEM: BOX BOUNDS xy xz yz  pp  pp  pp
     -0.300000      4.040544      0.000000
     -0.300000      4.040544      0.000000
     -0.300000      2.769228      0.000000
ITEM: ATOMS id type xs ys zs
     1     1      0.218792      0.222113      0.172446
     2     1      0.650710      0.263611      0.616713
     3     1      0.317903      0.801692      0.513791
     4     1      0.823285      0.711571      1.037337
     5     2      0.861844      1.028658      0.191834
     6     2      0.531646      1.018774      1.048343
     7     2      0.990681      0.463175      0.235478
     8     2      0.505000      0.701456      1.038831
     9     2      0.922452      0.228075      0.766311
    10     2      0.387327      1.053500      0.761614
    11     2      0.170153      0.493535      0.701412
    12     2      0.497117      0.522527      0.445476
    13     2      0.161429      0.328763      0.655932
    14     2      0.855673      0.153075      0.104844
    15     2      0.323433      0.670480      1.045102
    16     2      0.922581      0.723753      0.580953
ITEM: TIMESTEP
1804
ITEM: NUMBER OF ATOMS
16
ITEM: BOX BOUNDS xy xz yz  pp  pp  pp
     -0.300000      4.040544      0.000000
     -0.300000      4.040544      0.000000
     -0.300000      2.769228      0.000000
ITEM: ATOMS id type xs ys zs
     1     1      0.218459      0.222294      0.172450
     2     1      0.650630      0.263963      0.616945
     3     1      0.317164      0.801043      0.513989
     4     1      0.823997      0.711007      1.037376
     5     2      0.861574      1.028855      0.190730
     6     2      0.531593      1.019228      1.048297
     7     2      0.990814      0.463190      0.236152
     8     2      0.505181      0.701474      1.039380
     9     2      0.923067      0.227917      0.766228
    10     2      0.387397      1.053823      0.761441
    11     2      0.170279      0.492981      0.701114
    12     2      0.496546      0.522629      0.445200
    13     2      0.161197      0.328564      0.656160
    14     2      0.855725      0.152981      0.104919
    15     2      0.323768      0.671095      1.045410
    16     2      0.922944      0.724091      0.581087
ITEM: TIMESTEP
1805
ITEM: NUMBER OF ATOMS
16
ITEM: BOX BOUNDS xy xz yz  pp  pp  pp
     -0.300000      4.040544      0.000000
     -0.300000      4.040544      0.000000
     -0.300000      2.769228      0.000000
ITEM: ATOMS id type xs ys zs
     1     1      0.218713      0.223009      0.172206
     2     1      0.649965      0.264222      0.617025
     3     1      0.316760      0.800686      0.514590
     4     1      0.824373      0.710914      1.036868
     5     2      0.861389      1.028953      0.190478
     6     2      0.531843      1.019228      1.048532
     7     2      0.990880      0.463237      0.236923
     8     2      0.505464      0.701019      1.039190
     9     2      0.923737      0.227273      0.765711
    10     2      0.388063      1.054499      0.762062
    11     2      0.169713      0.492432      0.701029
    12     2      0.496043      0.522541      0.445230
    13     2      0.161565      0.328366      0.655775
    14     2      0.855957      0.153779      0.104931
    15     2      0.323601      0.671078      1.045636
    16     2      0.922562      0.724436      0.580573
ITEM: TIMESTEP
1806
ITEM: NUMBER OF ATOMS
16
ITEM: BOX BOUNDS xy xz yz  pp  pp  pp
     -0.300000      4.040544      0.000000
     -0.300000      4.040544      0.000000
     -0.300000      2.769228      0.000000
ITEM: ATOMS id type xs ys zs
     1     1      0.219404      0.223011      0.172616
     2     1      0.649220      0.265047      0.617133
     3     1      0.317208      0.799854      0.515276
     4     1      0.824845      0.710428      1.037196
     5     2      0.861155      1.029681      0.190942
     6     2      0.531905      1.019617      1.049160
     7     2      0.991021      0.463408      0.237324
     8     2      0.506207      0.700820      1.038908
     9     2      0.924131      0.227272      0.766252
    10     2      0.387839      1.054604      0.761921
    11     2      0.169612      0.492396      0.701065
    12     2      0.496470      0.521926      0.445630
    13     2      0.161862      0.328482      0.655759
    14     2      0.855755      0.154602      0.104724
    15     2      0.323725      0.672272      1.045642
    16     2      0.922568      0.724935      0.580402
ITEM: TIMESTEP
1807
ITEM: NUMBER OF ATOMS
16
ITEM: BOX BOUNDS xy xz yz  pp  pp  pp
     -0.300000      4.040544      0.000000
     -0.300000      4.040544      0.000000
     -0.300000      2.769228      0.000000
ITEM: ATOMS id type xs ys zs
     1     1      0.219361      0.222621      0.172689
     2     1      0.649144      0.265807      0.617187
     3     1      0.316710      0.800299      0.515941
     4     1      0.824540      0.710085      1.036879
     5     2      0.860831      1.029059      0.190898
     6     2      0.531843      1.020025      1.048804
     7     2      0.990631      0.463542      0.237377
     8     2      0.506116      0.700970      1.039442
     9     2      0.925146      0.227290      0.765435
    10     2      0.387798      1.055007      0.761843
    11     2      0.169860      0.492707      0.700692
    12     2      0.496540      0.522129      0.446898
    13     2      0.162300      0.328373      0.655710
    14     2      0.854975      0.154717      0.105022
    15     2      0.323417      0.672425      1.045170
    16     2      0.922990      0.724745      0.579932
ITEM: TIMESTEP
1808
ITEM: NUMBER OF ATOMS
16
ITEM: BOX BOUNDS xy xz yz  pp  pp  pp
     -0.300000      4.040544      0.000000
     -0.300000      4.040544      0.000000
     -0.300000      2.769228      0.000000
ITEM: ATOMS id type xs ys zs
     1     1      0.220015      0.222681      0.172276
     2     1      0.648935      0.266199      0.617100
     3     1      0.316796      0.799967      0.516018
     4     1      0.824906      0.709695      1.036365
     5     2      0.860932      1.029176      0.190726
     6     2      0.531901      1.020049      1.048917
     7     2      0.990006      0.463847      0.237496
     8     2      0.506583      0.701124      1.039535
     9     2      0.925718      0.227331      0.765641
    10     2      0.387501      1.055096      0.762344
    11     2      0.169895      0.492740      0.699802
    12     2      0.496209      0.522695      0.446598
    13     2      0.162215      0.328182      0.655801
    14     2      0.854920      0.155133      0.104531
    15     2      0.323066      0.672523      1.044870
    16     2      0.922907      0.725091      0.579768
ITEM: TIMESTEP
1809
ITEM: NUMBER OF ATOMS
16
ITEM: BOX BOUNDS xy xz yz  pp  pp  pp
     -0.300000      4.040544      0.000000
     -0.300000      4.040544      0.000000
     -0.300000      2.769228      0.000000
ITEM: ATOMS id type xs ys zs
     1     1      0.219552      0.222572      0.173263
     2     1      0.648901      0.265759      0.616847
     3     1      0.317285      0.799157      0.516333
     4     1      0.825109      0.709375      1.036385
     5     2      0.861286      1.030084      0.190571
     6     2      0.531993      1.020015      1.049526
     7     2      0.990791      0.463642      0.237697
     8     2      0.506846      0.700870      1.040333
     9     2      0.926378      0.227322      0.765843
    10     2      0.387192      1.055601      0.762929
    11     2      0.169266      0.492779      0.699167
    12     2      0.496468      0.522627      0.447046
    13     2      0.162469      0.327917      0.655825
    14     2      0.854719      0.155484      0.104377
    15     2      0.322947      0.673143      1.045229
    16     2      0.922730      0.725729      0.580249
ITEM: TIMESTEP
1810
ITEM: NUMBER OF ATOMS
16
ITEM: BOX BOUNDS xy xz yz  pp  pp  pp
     -0.300000      4.040544      0.000000
     -0.300000      4.040544      0.000000
     -0.300000      2.769228      0.000000
ITEM: ATOMS id type xs ys zs
     1     1      0.219513      0.222046      0.173669
     2     1      0.649474      0.265708      0.615763
     3     1      0.317841      0.799009      0.515940
     4     1      0.825484      0.709086      1.036517
     5     2      0.861453      1.029982      0.190908
     6     2      0.532750      1.019693      1.049244
     7     2      0.990565      0.463554      0.236864
     8     2      0.506524      0.701177      1.040359
     9     2      0.927039      0.227194      0.765748
    10     2      0.387455      1.056332      0.763617
    11     2      0.169232      0.492607      0.699249
    12     2      0.496475      0.522725      0.447727
    13     2      0.162508      0.327318      0.656121
    14     2      0.854666      0.155885      0.104811
    15     2      0.323311      0.673567      1.045270
    16     2      0.922370      0.726108      0.580781
ITEM: TIMESTEP
1811
ITEM: NUMBER OF ATOMS
16
ITEM: BOX BOUNDS xy xz yz  pp  pp  pp
     -0.300000      4.040544      0.000000
     -0.300000      4.040544      0.000000
     -0.300000      2.769228      0.000000
ITEM: ATOMS id type xs ys zs
     1     1      0.219322      0.222168      0.173608
     2     1      0.649010      0.265271      0.616420
     3     1      0.317814      0.798818      0.516006
     4     1      0.825140      0.709062      1.035778
     5     2      0.861100      1.029486      0.190702
     6     2      0.532926      1.020003      1.049060
     7     2      0.990361      0.462859      0.236953
     8     2      0.506627      0.701626      1.040431
     9     2      0.927572      0.227561      0.766062
    10     2      0.387339      1.056599      0.763583
    11     2      0.169013      0.492881      0.699100
    12     2      0.496221      0.523332      0.447656
    13     2      0.162467      0.326499      0.656379
    14     2      0.854319      0.156363      0.104727
    15     2      0.323420      0.673925      1.045131
    16     2      0.922902      0.726375      0.581014
ITEM: TIMESTEP
1812
ITEM: NUMBER OF ATOMS
16
ITEM: BOX BOUNDS xy xz yz  pp  pp  pp
     -0.300000      4.040544      0.000000
     -0.300000      4.040544      0.000000
     -0.300000      2.769228      0.000000
ITEM: ATOMS id type xs ys zs
     1     1      0.219597      0.221678      0.173066
     2     1      0.649666      0.265108      0.616696
     3     1      0.317250      0.798213      0.515875
     4     1      0.824768      0.709366      1.036072
     5     2      0.861011      1.029369      0.190396
     6     2      0.532794      1.019959      1.049729
     7     2      0.990203      0.463086      0.237466
     8     2      0.507081      0.701452      1.039661
     9     2      0.927418      0.227271      0.766427
    10     2      0.387070      1.057151      0.764160
    11     2      0.169149      0.492487      0.698462
    12     2      0.495192      0.523514      0.448086
    13     2      0.162520      0.326353      0.656101
    14     2      0.853713      0.156314      0.104054
    15     2      0.323412      0.674331      1.044317
    16     2      0.922595      0.726573      0.580379
ITEM: TIMESTEP
1813
ITEM: NUMBER OF ATOMS
16
ITEM: BOX BOUNDS xy xz yz  pp  pp  pp
     -0.300000      4.040544      0.000000
     -0.300000      4.040544      0.000000
     -0.300000      2.769228      0.000000
ITEM: ATOMS id type xs ys zs
     1     1      0.219863      0.222318      0.173009
     2     1      0.649985      0.265101      0.616928
     3     1      0.317625      0.798165      0.516272
     4     1      0.824396      0.709050      1.035373
     5     2      0.861145      1.029393      0.189947
     6     2      0.532816      1.019992      1.050105
     7     2      0.990542      0.463160      0.238016
     8     2      0.506896      0.701484      1.040013
     9     2      0.927827      0.227110      0.766402
    10     2      0.387077      1.057224      0.764286
    11     2      0.169642      0.492517      0.698564
    12     2      0.495496      0.523313      0.448328
    13     2      0.162921      0.326342      0.656389
    14     2      0.853131      0.156407      0.104230
    15     2      0.323373      0.674587      1.044023
    16     2      0.922084      0.726526      0.580587
ITEM: TIMESTEP
1814
ITEM: NUMBER OF ATOMS
16
ITEM: BOX BOUNDS xy xz yz  pp  pp  pp
     -0.300000      4.040544      0.000000
     -0.300000      4.040544      0.000000
     -0.300000      2.769228      0.000000
ITEM: ATOMS id type xs ys zs
     1     1      0.219120      0.222787      0.172265
     2     1      0.650269      0.265136      0.617536
     3     1      0.318022      0.797957      0.516480
     4     1      0.824315      0.709284      1.035422
     5     2      0.860561      1.028806      0.189047
     6     2      0.532228      1.020416      1.050106
     7     2      0.990763      0.462874      0.237666
     8     2      0.506455      0.700906      1.039749
     9     2      0.928452      0.226293      0.766298
    10     2      0.386597      1.057171      0.764730
    11     2      0.170630      0.492661      0.698585
    12     2      0.495502      0.523318      0.448414
    13     2      0.162835      0.325474      0.656145
    14     2      0.852800      0.156580      0.103769
    15     2      0.323111      0.674970      1.043597
    16     2      0.921995      0.727097      0.581144
ITEM: TIMESTEP
1815
ITEM: NUMBER OF ATOMS
16
ITEM: BOX BOUNDS xy xz yz  pp  pp  pp
     -0.300000      4.040544      0.000000
     -0.300000      4.040544      0.000000
     -0.300000      2.769228      0.000000
ITEM: ATOMS id type xs ys zs
     1     1      0.219428      0.222620      0.172298
     2     1      0.650778      0.265692      0.617180
     3     1      0.317536      0.798045      0.516586
     4     1      0.824554      0.709175      1.035664
     5     2      0.860177      1.029383      0.187822
     6     2      0.532201      1.021040      1.049924
     7     2      0.990655      0.462307      0.237760
     8     2      0.506028      0.700844      1.039832
     9     2      0.929058      0.226143      0.765825
    10     2      0.387216      1.057294      0.765279
    11     2      0.170158      0.492277      0.698228
    12     2      0.495121      0.523888      0.448406
    13     2      0.163544      0.325591      0.655861
    14     2      0.852500      0.157301      0.102791
    15     2      0.322824      0.675218      1.044489
    16     2      0.922069      0.726892      0.581632
ITEM: TIMESTEP
1816
ITEM: NUMBER OF ATOMS
16
ITEM: BOX BOUNDS xy xz yz  pp  pp  pp
     -0.300000      4.040544      0.000000
     -0.300000      4.040544      0.000000
     -0.300000      2.769228      0.000000
ITEM: ATOMS id type xs ys zs
     1     1      0.219685      0.222399      0.171914
     2     1      0.651683      0.264822      0.616418
     3     1      0.317143      0.797561      0.516694
     4     1      0.824464      0.709004      1.035713
     5     2      0.860478      1.029166      0.188117
     6     2      0.531844      1.021301      1.050423
     7     2      0.990434      0.462361      0.237003
     8     2      0.506511      0.701111      1.040052
     9     2      0.929343      0.225799      0.765514
    10     2      0.387201      1.057206      0.766280
    11     2      0.170540      0.492129      0.697888
    12     2      0.495809      0.523942      0.448730
    13     2      0.163629      0.325369      0.656065
    14     2      0.851135      0.156946      0.102468
    15     2      0.322663      0.675607      1.044952
    16     2      0.921478      0.727339      0.581337
ITEM: TIMESTEP
1817
ITEM: NUMBER OF ATOMS
16
ITEM: BOX BOUNDS xy xz yz  pp  pp  pp
     -0.300000      4.040544      0.000000
     -0.300000      4.040544      0.000000
     -0.300000      2.769228      0.000000
ITEM: ATOMS id type xs ys zs
     1     1      0.220665      0.222721      0.171938
     2     1      0.652248      0.265576      0.616593
     3     1      0.316927      0.797091      0.516847
     4     1      0.824532      0.709219      1.034854
     5     2      0.859864      1.029121      0.187377
     6     2      0.532095      1.021491      1.050917
     7     2      0.990243      0.462299      0.237482
     8     2      0.507042      0.700905      1.040511
     9     2      0.929359      0.225057      0.764702
    10     2      0.386997      1.057251      0.766018
    11     2      0.170567      0.492035      0.697782
    12     2      0.495991      0.523554      0.448544
    13     2      0.163545      0.324431      0.655986
    14     2      0.851477      0.157491      0.102217
    15     2      0.322677      0.675582      1.045260
    16     2      0.920822      0.727533      0.581400
ITEM: TIMESTEP
1818
ITEM: NUMBER OF ATOMS
16
ITEM: BOX BOUNDS xy xz yz  pp  pp  pp
     -0.300000      4.040544      0.000000
     -0.300000      4.040544      0.000000
     -0.300000      2.769228      0.000000
ITEM: ATOMS id type xs ys zs
     1     1      0.220263      0.222017      0.171478
     2     1      0.651850      0.265975      0.616318
     3     1      0.316314      0.796666      0.517220
     4     1      0.824611      0.708519      1.034707
     5     2      0.859756      1.029198      0.186809
     6     2      0.532218      1.021294      1.050650
     7     2      0.990550      0.462464      0.238248
     8     2      0.507176      0.700879      1.040537
     9     2      0.929803      0.225601      0.764871
    10     2      0.387097      1.057239      0.766209
    11     2      0.171071      0.492246      0.697897
    12     2      0.495408      0.523867      0.448317
    13     2      0.163544      0.324096      0.655256
    14     2      0.851061      0.158494      0.101798
    15     2      0.322306      0.675374      1.044625
    16     2      0.920429      0.727927      0.581992
ITEM: TIMESTEP
1819
ITEM: NUMBER OF ATOMS
16
ITEM: BOX BOUNDS xy xz yz  pp  pp  pp
     -0.300000      4.040544      0.000000
     -0.300000      4.040544      0.000000
     -0.300000      2.769228      0.000000
ITEM: ATOMS id type xs ys zs
     1     1      0.219756      0.221829      0.172231
     2     1      0.652061      0.266160      0.616889
     3     1      0.316600      0.796428      0.517469
     4     1      0.824144      0.708190      1.035087
     5     2      0.860327      1.028837      0.186631
     6     2      0.532316      1.021122      1.050970
     7     2      0.990986      0.461721      0.238101
     8     2      0.506573      0.701223      1.040260
     9     2      0.930284      0.225153      0.765317
    10     2      0.387797      1.057490      0.765295
    11     2      0.171033      0.492690      0.697514
    12     2      0.495041      0.523751      0.448090
    13     2      0.163613      0.323902      0.654655
    14     2      0.851014      0.158158      0.102102
    15     2      0.321938      0.675655      1.044300
    16     2      0.920415      0.728573      0.582086
ITEM: TIMESTEP
1820
ITEM: NUMBER OF ATOMS
16
ITEM: BOX BOUNDS xy xz yz  pp  pp  pp
     -0.300000      4.040544      0.000000
     -0.300000      4.040544      0.000000
     -0.300000      2.769228      0.000000
ITEM: ATOMS id type xs ys zs
     1     1      0.219630      0.222167      0.172344
     2     1      0.651797      0.266337      0.616707
     3     1      0.316412      0.796225      0.517626
     4     1      0.823527      0.708281      1.035218
     5     2      0.860511      1.028520      0.186469
     6     2      0.531413      1.021111      1.051160
     7     2      0.991438      0.461451      0.237679
     8     2      0.506739      0.701299      1.039771
     9     2      0.930923      0.225082      0.765798
    10     2      0.388164      1.057300      0.764485
    11     2      0.170380      0.492966      0.697140
    12     2      0.495050      0.523638      0.447655
    13     2      0.164224      0.323369      0.654263
    14     2      0.850832      0.158394      0.102048
    15     2      0.321814      0.676113      1.044596
    16     2      0.920323      0.728947      0.582041
ITEM: TIMESTEP
1821
ITEM: NUMBER OF ATOMS
16
ITEM: BOX BOUNDS xy xz yz  pp  pp  pp
     -0.300000      4.040544      0.000000
     -0.300000      4.040544      0.000000
     -0.300000      2.769228      0.000000
ITEM: ATOMS id type xs ys zs
     1     1      0.219663      0.221777      0.172171
     2     1      0.652560      0.266095      0.617110
     3     1      0.316093      0.796855      0.516937
     4     1      0.823042      0.708022      1.035625
     5     2      0.860465      1.028633      0.185195
     6     2      0.530768      1.021321      1.050520
     7     2      0.990863      0.461071      0.238158
     8     2      0.506852      0.701256      1.040309
     9     2      0.931886      0.225427      0.765796
    10     2      0.388930      1.057229      0.765193
    11     2      0.170502      0.493544      0.696547
    12     2      0.494771      0.523221      0.447456
    13     2      0.164267      0.322417      0.654833
    14     2      0.850429      0.158766      0.101377
    15     2      0.321331      0.675997      1.043447
    16     2      0.920024      0.728401      0.582150
ITEM: TIMESTEP
1822
ITEM: NUMBER OF ATOMS
16
ITEM: BOX BOUNDS xy xz yz  pp  pp  pp
     -0.300000      4.040544      0.000000
     -0.300000      4.040544      0.000000
     -0.300000      2.769228      0.000000
ITEM: ATOMS id type xs ys zs
     1     1      0.219643      0.222304      0.172298
     2     1      0.652343      0.265863      0.617081
     3     1      0.316146      0.797122      0.517187
     4     1      0.823581      0.708363      1.035386
     5     2      0.860332      1.028811      0.185150
     6     2      0.530434      1.021435      1.051187
     7     2      0.991181      0.461537      0.237449
     8     2      0.507206      0.701296      1.040823
     9     2      0.932186      0.224845      0.765315
    10     2      0.389200      1.057985      0.766107
    11     2      0.170281      0.493495      0.696189
    12     2      0.495317      0.523533      0.447424
    13     2      0.164297      0.322209      0.654907
    14     2      0.850118      0.159179      0.101293
    15     2      0.321406      0.676063      1.044001
    16     2      0.919980      0.728707      0.582252
ITEM: TIMESTEP
1823
ITEM: NUMBER OF ATOMS
16
ITEM: BOX BOUNDS xy xz yz  pp  pp  pp
     -0.300000      4.040544      0.000000
     -0.300000      4.040544      0.000000
     -0.300000      2.769228      0.000000
ITEM: ATOMS id type xs ys zs
     1     1      0.220040      0.222124      0.172705
     2     1      0.652170      0.265679      0.616628
     3     1      0.315681      0.796832      0.516870
     4     1      0.823751      0.708052      1.035290
     5     2      0.860371      1.028156      0.184382
     6     2      0.530481      1.020781      1.051468
     7     2      0.991109      0.461258      0.237603
     8     2      0.507147      0.701516      1.040474
     9     2      0.932587      0.224509      0.765333
    10     2      0.388807      1.058056      0.765277
    11     2      0.170073      0.493436      0.696372
    12     2      0.496137      0.524242      0.447343
    13     2      0.164420      0.322434      0.655344
    14     2      0.849980      0.159429      0.101399
    15     2      0.320859      0.676308      1.043971
    16     2      0.919372      0.728108      0.581646
ITEM: TIMESTEP
1824
ITEM: NUMBER OF ATOMS
16
ITEM: BOX BOUNDS xy xz yz  pp  pp  pp
     -0.300000      4.040544      0.000000
     -0.300000      4.040544      0.000000
     -0.300000      2.769228      0.000000
ITEM: ATOMS id type xs ys zs
     1     1      0.220487      0.223136      0.171950
     2     1      0.652427      0.265483      0.616648
     3     1      0.315954      0.796131      0.517731
     4     1      0.823810      0.707549      1.034927
     5     2      0.860091      1.028049      0.184081
     6     2      0.530631      1.021132      1.051510
     7     2      0.991331      0.461339      0.238657
     8     2      0.506932      0.701304      1.040778
     9     2      0.932744      0.224540      0.765721
    10     2      0.388726      1.057585      0.766304
    11     2      0.170356      0.493537      0.696591
    12     2      0.496046      0.524540      0.447800
    13     2      0.164963      0.322320      0.655262
    14     2      0.849530      0.159592      0.101035
    15     2      0.320882      0.676945      1.043934
    16     2      0.919465      0.728214      0.581115
ITEM: TIMESTEP
1825
ITEM: NUMBER OF ATOMS
16
ITEM: BOX BOUNDS xy xz yz  pp  pp  pp
     -0.300000      4.040544      0.000000
     -0.300000      4.040544      0.000000
     -0.300000      2.769228      0.000000
ITEM: ATOMS id type xs ys zs
     1     1      0.220657      0.222910      0.172301
     2     1      0.652226      0.264903      0.616586
     3     1      0.315437      0.795652      0.517854
     4     1      0.823268      0.706902      1.035248
     5     2      0.859858      1.028387      0.183683
     6     2      0.530084      1.022151      1.051452
     7     2      0.991670      0.461706      0.239211
     8     2      0.506923      0.701277      1.041846
     9     2      0.932518      0.224298      0.766731
    10     2      0.388772      1.057272      0.766187
    11     2      0.170052      0.493203      0.696066
    12     2      0.496516      0.524909      0.448337
    13     2      0.164709      0.321864      0.656007
    14     2      0.849287      0.160196      0.101543
    15     2      0.320711      0.676835      1.043604
    16     2      0.919228      0.728491      0.581053
ITEM: TIMESTEP
1826
ITEM: NUMBER OF ATOMS
16
ITEM: BOX BOUNDS xy xz yz  pp  pp  pp
     -0.300000      4.040544      0.000000
     -0.300000      4.040544      0.000000
     -0.300000      2.769228      0.000000
ITEM: ATOMS id type xs ys zs
     1     1      0.221173      0.222523      0.172527
     2     1      0.652326      0.264703      0.616339
     3     1      0.314721      0.795503      0.517997
     4     1      0.823257      0.706346      1.034307
     5     2      0.859695      1.028531      0.183204
     6     2      0.529920      1.021516      1.051932
     7     2      0.990887      0.461827      0.239511
     8     2      0.506945      0.701843      1.041803
     9     2      0.932756      0.223664      0.766763
    10     2      0.389281      1.057153      0.766711
    11     2      0.170295      0.492884      0.695616
    12     2      0.496274      0.525669      0.448374
    13     2      0.164542      0.321103      0.656056
    14     2      0.848783      0.160222      0.100726
    15     2      0.320700      0.677052      1.043301
    16     2      0.918900      0.728249      0.581695
ITEM: TIMESTEP
1827
ITEM: NUMBER OF ATOMS
16
ITEM: BOX BOUNDS xy xz yz  pp  pp  pp
     -0.300000      4.040544      0.000000
     -0.300000      4.040544      0.000000
     -0.300000      2.769228      0.000000
ITEM: ATOMS id type xs ys zs
     1     1      0.221680      0.222372      0.172080
     2     1      0.652127      0.264910      0.615873
     3     1      0.314168      0.795529      0.517690
     4     1      0.823560      0.706927      1.033953
     5     2      0.860438      1.028007      0.183407
     6     2      0.530194      1.021590      1.051965
     7     2      0.990921      0.461889      0.238990
     8     2      0.507218      0.701134      1.041872
     9     2      0.933006      0.223681      0.767100
    10     2      0.389290      1.057463      0.766729
    11     2      0.170261      0.493059      0.695447