ITEM: TIMESTEP
1801
ITEM: NUMBER OF ATOMS
16
ITEM: BOX BOUNDS xy xz yz  pp  pp  pp
     -0.300000      4.040544      0.000000
     -0.300000      4.040544      0.000000
     -0.300000      2.769228      0.000000
ITEM: ATOMS id type xs ys zs
     1     1      0.218790      0.222099      0.170894
     2     1      0.652100      0.262410      0.617429
     3     1      0.318131      0.801093      0.514827
     4     1      0.821765      0.712503      1.037705
     5     2      0.861281      1.029230      0.194009
     6     2      0.531528      1.017621      1.047963
     7     2      0.990343      0.464720      0.235610
     8     2      0.504517      0.701474      1.039605
     9     2      0.921511      0.228561      0.765894
    10     2      0.386938      1.053206      0.761550
    11     2      0.169168      0.493976      0.703184
    12     2      0.497706      0.522367      0.445465
    13     2      0.161249      0.329009      0.655592
    14     2      0.857291      0.151779      0.105360
    15     2      0.322867      0.669863      1.046228
    16     2      0.923390      0.722991      0.580586
ITEM: TIMESTEP
1802
ITEM: NUMBER OF ATOMS
16
ITEM: BOX BOUNDS xy xz yz  pp  pp  pp
     -0.300000      4.040544      0.000000
     -0.300000      4.040544      0.000000
     -0.300000      2.769228      0.000000
ITEM: ATOMS id type xs ys zs
     1     1      0.219135      0.222347      0.170498
     2     1      0.651795      0.262306      0.617155
     3     1      0.317627      0.801197      0.514321
     4     1      0.822496      0.712179      1.037625
     5     2      0.861018      1.029322      0.194320
     6     2      0.531372      1.018510      1.049334
     7     2      0.990440      0.464348      0.234517
     8     2      0.504771      0.701281      1.040180
     9     2      0.921925      0.228698      0.765879
    10     2      0.386837      1.053424      0.762085
    11     2      0.168653      0.493962      0.702792
    12     2      0.498353      0.522944      0.445098
    13     2      0.161980      0.328084      0.655927
    14     2      0.857022      0.152390      0.105800
    15     2      0.322504      0.670576      1.046488
    16     2      0.923867      0.722778      0.581008
ITEM: TIMESTEP
1803
ITEM: NUMBER OF ATOMS
16
ITEM: BOX BOUNDS xy xz yz  pp  pp  pp
     -0.300000      4.040544      0.000000
     -0.300000      4.040544      0.000000
     -0.300000      2.769228      0.000000
ITEM: ATOMS id type xs ys zs
     1     1      0.218958      0.222358      0.170602
     2     1      0.651305      0.262058      0.617298
     3     1      0.317466      0.801460      0.514435
     4     1      0.823009      0.712244      1.037390
     5     2      0.861414      1.029284      0.194037
     6     2      0.530822      1.019031      1.050005
     7     2      0.990594      0.464455      0.233434
     8     2      0.504665      0.700677      1.039656
     9     2      0.922904      0.228841      0.765811
    10     2      0.386501      1.053428      0.761435
    11     2      0.168277      0.493363      0.702298
    12     2      0.498596      0.522772      0.445569
    13     2      0.162356      0.328278      0.655701
    14     2      0.856741      0.152899      0.106504
    15     2      0.322498      0.670796      1.045993
    16     2      0.923674      0.722906      0.580792
ITEM: TIMESTEP
1804
ITEM: NUMBER OF ATOMS
16
ITEM: BOX BOUNDS xy xz yz  pp  pp  pp
     -0.300000      4.040544      0.000000
     -0.300000      4.040544      0.000000
     -0.300000      2.769228      0.000000
ITEM: ATOMS id type xs ys zs
     1     1      0.218915      0.223097      0.170228
     2     1      0.651394      0.262291      0.616676
     3     1      0.317282      0.801721      0.514262
     4     1      0.822533      0.711654      1.036929
     5     2      0.861472      1.029483      0.193950
     6     2      0.530319      1.018962      1.049979
     7     2      0.990527      0.464402      0.233032
     8     2      0.504845      0.700692      1.039455
     9     2      0.924233      0.229223      0.765054
    10     2      0.386457      1.053711      0.761914
    11     2      0.168119      0.493685      0.702334
    12     2      0.498457      0.522131      0.445307
    13     2      0.162266      0.327692      0.655792
    14     2      0.856926      0.153074      0.106772
    15     2      0.322700      0.671591      1.045772
    16     2      0.922613      0.723229      0.580654
ITEM: TIMESTEP
1805
ITEM: NUMBER OF ATOMS
16
ITEM: BOX BOUNDS xy xz yz  pp  pp  pp
     -0.300000      4.040544      0.000000
     -0.300000      4.040544      0.000000
     -0.300000      2.769228      0.000000
ITEM: ATOMS id type xs ys zs
     1     1      0.219055      0.224217      0.170319
     2     1      0.651484      0.262757      0.616670
     3     1      0.317065      0.800976      0.514002
     4     1      0.822015      0.711062      1.036610
     5     2      0.861560      1.030023      0.193471
     6     2      0.530370      1.019443      1.050476
     7     2      0.990629      0.464425      0.233181
     8     2      0.504093      0.700650      1.039102
     9     2      0.925072      0.229055      0.765473
    10     2      0.386302      1.053562      0.761633
    11     2      0.168085      0.493454      0.702201
    12     2      0.498404      0.521846      0.445176
    13     2      0.162132      0.327485      0.656035
    14     2      0.856777      0.153283      0.107255
    15     2      0.322292      0.671609      1.046356
    16     2      0.922899      0.723727      0.581087
ITEM: TIMESTEP
1806
ITEM: NUMBER OF ATOMS
16
ITEM: BOX BOUNDS xy xz yz  pp  pp  pp
     -0.300000      4.040544      0.000000
     -0.300000      4.040544      0.000000
     -0.300000      2.769228      0.000000
ITEM: ATOMS id type xs ys zs
     1     1      0.219032      0.223913      0.170004
     2     1      0.651993      0.262652      0.615692
     3     1      0.317335      0.800490      0.513388
     4     1      0.821936      0.710647      1.037176
     5     2      0.861851      1.030295      0.193579
     6     2      0.530475      1.019377      1.050294
     7     2      0.990631      0.465067      0.232603
     8     2      0.504961      0.700348      1.038500
     9     2      0.925100      0.228879      0.765244
    10     2      0.386335      1.054021      0.761255
    11     2      0.168258      0.493913      0.701377
    12     2      0.498124      0.522227      0.446004
    13     2      0.162031      0.327116      0.656086
    14     2      0.857100      0.153607      0.107603
    15     2      0.322135      0.671696      1.046509
    16     2      0.922432      0.723921      0.581144
ITEM: TIMESTEP
1807
ITEM: NUMBER OF ATOMS
16
ITEM: BOX BOUNDS xy xz yz  pp  pp  pp
     -0.300000      4.040544      0.000000
     -0.300000      4.040544      0.000000
     -0.300000      2.769228      0.000000
ITEM: ATOMS id type xs ys zs
     1     1      0.219064      0.223674      0.170725
     2     1      0.651663      0.263185      0.615212
     3     1      0.317569      0.800481      0.513141
     4     1      0.822158      0.710440      1.037350
     5     2      0.861948      1.030524      0.193041
     6     2      0.530244      1.019154      1.050633
     7     2      0.991276      0.464911      0.232438
     8     2      0.504892      0.700526      1.037789
     9     2      0.925258      0.228643      0.765054
    10     2      0.386039      1.054858      0.761279
    11     2      0.168004      0.494005      0.701012
    12     2      0.498281      0.522210      0.445358
    13     2      0.162414      0.327343      0.656734
    14     2      0.856782      0.153911      0.107894
    15     2      0.322092      0.672081      1.045686
    16     2      0.922109      0.724367      0.580872
ITEM: TIMESTEP
1808
ITEM: NUMBER OF ATOMS
16
ITEM: BOX BOUNDS xy xz yz  pp  pp  pp
     -0.300000      4.040544      0.000000
     -0.300000      4.040544      0.000000
     -0.300000      2.769228      0.000000
ITEM: ATOMS id type xs ys zs
     1     1      0.219156      0.223858      0.170014
     2     1      0.651534      0.263623      0.615207
     3     1      0.317552      0.800265      0.513899
     4     1      0.821928      0.709904      1.036965
     5     2      0.861723      1.030304      0.192249
     6     2      0.529920      1.019625      1.050602
     7     2      0.991017      0.465119      0.231974
     8     2      0.505210      0.700433      1.037573
     9     2      0.926076      0.228332      0.765617
    10     2      0.386671      1.054522      0.761245
    11     2      0.167396      0.493991      0.700239
    12     2      0.497790      0.522118      0.445503
    13     2      0.162557      0.326803      0.657305
    14     2      0.856745      0.154650      0.108634
    15     2      0.321953      0.672462      1.045253
    16     2      0.921748      0.724294      0.581538
ITEM: TIMESTEP
1809
ITEM: NUMBER OF ATOMS
16
ITEM: BOX BOUNDS xy xz yz  pp  pp  pp
     -0.300000      4.040544      0.000000
     -0.300000      4.040544      0.000000
     -0.300000      2.769228      0.000000
ITEM: ATOMS id type xs ys zs
     1     1      0.219641      0.223976      0.169551
     2     1      0.651236      0.263724      0.615015
     3     1      0.317248      0.800211      0.514358
     4     1      0.822157      0.709703      1.036958
     5     2      0.861933      1.030357      0.191528
     6     2      0.529882      1.019989      1.050301
     7     2      0.991798      0.464689      0.232471
     8     2      0.504824      0.700277      1.037641
     9     2      0.926843      0.228505      0.765064
    10     2      0.386589      1.054627      0.761770
    11     2      0.167391      0.493759      0.700148
    12     2      0.497824      0.522179      0.444893
    13     2      0.162581      0.326468      0.657380
    14     2      0.856360      0.154856      0.108324
    15     2      0.322038      0.672543      1.044224
    16     2      0.921854      0.724511      0.582068
ITEM: TIMESTEP
1810
ITEM: NUMBER OF ATOMS
16
ITEM: BOX BOUNDS xy xz yz  pp  pp  pp
     -0.300000      4.040544      0.000000
     -0.300000      4.040544      0.000000
     -0.300000      2.769228      0.000000
ITEM: ATOMS id type xs ys zs
     1     1      0.219474      0.224296      0.168964
     2     1      0.651342      0.264140      0.614891
     3     1      0.317539      0.799800      0.514505
     4     1      0.822536      0.709086      1.036668
     5     2      0.861782      1.030337      0.190266
     6     2      0.529605      1.020418      1.051274
     7     2      0.992196      0.464132      0.232757
     8     2      0.504449      0.700409      1.037462
     9     2      0.927916      0.228327      0.765656
    10     2      0.386918      1.054682      0.762601
    11     2      0.167653      0.494255      0.699410
    12     2      0.497664      0.522096      0.445295
    13     2      0.162708      0.326278      0.658149
    14     2      0.856483      0.155451      0.108362
    15     2      0.322040      0.673112      1.044042
    16     2      0.921649      0.724721      0.582302
ITEM: TIMESTEP
1811
ITEM: NUMBER OF ATOMS
16
ITEM: BOX BOUNDS xy xz yz  pp  pp  pp
     -0.300000      4.040544      0.000000
     -0.300000      4.040544      0.000000
     -0.300000      2.769228      0.000000
ITEM: ATOMS id type xs ys zs
     1     1      0.219682      0.224804      0.168430
     2     1      0.651562      0.264578      0.614543
     3     1      0.317235      0.799863      0.514135
     4     1      0.822609      0.709056      1.036060
     5     2      0.861622      1.030143      0.190173
     6     2      0.529314      1.020024      1.051528
     7     2      0.991932      0.464347      0.233406
     8     2      0.504495      0.700875      1.037568
     9     2      0.928404      0.228076      0.766585
    10     2      0.386310      1.055054      0.763416
    11     2      0.166967      0.493568      0.698692
    12     2      0.497738      0.522393      0.444671
    13     2      0.163007      0.326279      0.657555
    14     2      0.856096      0.155496      0.108110
    15     2      0.321156      0.672920      1.044753
    16     2      0.921967      0.724579      0.582188
ITEM: TIMESTEP
1812
ITEM: NUMBER OF ATOMS
16
ITEM: BOX BOUNDS xy xz yz  pp  pp  pp
     -0.300000      4.040544      0.000000
     -0.300000      4.040544      0.000000
     -0.300000      2.769228      0.000000
ITEM: ATOMS id type xs ys zs
     1     1      0.220223      0.224437      0.168459
     2     1      0.652244      0.264799      0.614087
     3     1      0.316996      0.799734      0.514567
     4     1      0.822853      0.709192      1.034718
     5     2      0.861842      1.030473      0.189622
     6     2      0.529287      1.020043      1.051478
     7     2      0.992232      0.464588      0.233706
     8     2      0.503960      0.700753      1.037902
     9     2      0.928809      0.227888      0.766512
    10     2      0.386209      1.055079      0.763071
    11     2      0.167291      0.493321      0.698090
    12     2      0.497770      0.523169      0.445279
    13     2      0.163242      0.326018      0.656690
    14     2      0.856016      0.155538      0.107109
    15     2      0.320946      0.672949      1.044224
    16     2      0.921812      0.724972      0.582315
ITEM: TIMESTEP
1813
ITEM: NUMBER OF ATOMS
16
ITEM: BOX BOUNDS xy xz yz  pp  pp  pp
     -0.300000      4.040544      0.000000
     -0.300000      4.040544      0.000000
     -0.300000      2.769228      0.000000
ITEM: ATOMS id type xs ys zs
     1     1      0.220346      0.224791      0.168852
     2     1      0.652640      0.264683      0.614556
     3     1      0.316974      0.799193      0.514766
     4     1      0.823124      0.709467      1.033420
     5     2      0.862014      1.030256      0.188418
     6     2      0.529217      1.020245      1.052157
     7     2      0.992158      0.464204      0.234119
     8     2      0.504180      0.700106      1.038566
     9     2      0.928916      0.227646      0.766410
    10     2      0.386757      1.055604      0.763657
    11     2      0.167200      0.492602      0.698125
    12     2      0.497762      0.523607      0.445590
    13     2      0.163577      0.325080      0.656311
    14     2      0.855707      0.155316      0.107631
    15     2      0.320546      0.673059      1.043803
    16     2      0.921919      0.724996      0.583039
ITEM: TIMESTEP
1814
ITEM: NUMBER OF ATOMS
16
ITEM: BOX BOUNDS xy xz yz  pp  pp  pp
     -0.300000      4.040544      0.000000
     -0.300000      4.040544      0.000000
     -0.300000      2.769228      0.000000
ITEM: ATOMS id type xs ys zs
     1     1      0.220549      0.225415      0.168454
     2     1      0.652573      0.264940      0.614182
     3     1      0.317246      0.798930      0.515100
     4     1      0.822806      0.709546      1.032503
     5     2      0.862053      1.030587      0.188194
     6     2      0.529166      1.019835      1.052489
     7     2      0.992502      0.464285      0.233677
     8     2      0.504388      0.700070      1.037223
     9     2      0.929506      0.227303      0.766267
    10     2      0.386946      1.056278      0.763676
    11     2      0.167069      0.492991      0.697965
    12     2      0.497778      0.523496      0.445691
    13     2      0.163864      0.325251      0.656739
    14     2      0.855723      0.155628      0.107849
    15     2      0.320962      0.673136      1.043962
    16     2      0.922015      0.725388      0.583365
ITEM: TIMESTEP
1815
ITEM: NUMBER OF ATOMS
16
ITEM: BOX BOUNDS xy xz yz  pp  pp  pp
     -0.300000      4.040544      0.000000
     -0.300000      4.040544      0.000000
     -0.300000      2.769228      0.000000
ITEM: ATOMS id type xs ys zs
     1     1      0.220374      0.225524      0.168619
     2     1      0.652447      0.265447      0.614037
     3     1      0.317300      0.798143      0.516046
     4     1      0.822817      0.708966      1.032509
     5     2      0.861766      1.029997      0.188030
     6     2      0.528990      1.019939      1.052000
     7     2      0.992460      0.464606      0.233787
     8     2      0.504470      0.699864      1.036799
     9     2      0.929775      0.227525      0.766370
    10     2      0.386889      1.056258      0.764222
    11     2      0.167149      0.492872      0.697939
    12     2      0.497986      0.523422      0.445930
    13     2      0.163947      0.325094      0.656350
    14     2      0.855237      0.155372      0.107947
    15     2      0.320919      0.673298      1.044079
    16     2      0.921633      0.725260      0.584053
ITEM: TIMESTEP
1816
ITEM: NUMBER OF ATOMS
16
ITEM: BOX BOUNDS xy xz yz  pp  pp  pp
     -0.300000      4.040544      0.000000
     -0.300000      4.040544      0.000000
     -0.300000      2.769228      0.000000
ITEM: ATOMS id type xs ys zs
     1     1      0.220417      0.225644      0.168530
     2     1      0.652486      0.265469      0.614547
     3     1      0.317246      0.798187      0.515559
     4     1      0.822241      0.708885      1.031575
     5     2      0.861794      1.029730      0.188155
     6     2      0.528999      1.020113      1.052247
     7     2      0.992406      0.464835      0.234223
     8     2      0.503783      0.699974      1.036940
     9     2      0.930239      0.227809      0.766143
    10     2      0.387056      1.056553      0.764409
    11     2      0.167059      0.492766      0.697923
    12     2      0.498423      0.523213      0.446551
    13     2      0.163563      0.324753      0.656837
    14     2      0.854937      0.155078      0.107273
    15     2      0.320841      0.674134      1.043541
    16     2      0.922473      0.725784      0.583700
ITEM: TIMESTEP
1817
ITEM: NUMBER OF ATOMS
16
ITEM: BOX BOUNDS xy xz yz  pp  pp  pp
     -0.300000      4.040544      0.000000
     -0.300000      4.040544      0.000000
     -0.300000      2.769228      0.000000
ITEM: ATOMS id type xs ys zs
     1     1      0.220652      0.226390      0.168354
     2     1      0.653046      0.265142      0.613890
     3     1      0.317189      0.797480      0.516349
     4     1      0.822284      0.708240      1.032247
     5     2      0.861769      1.029571      0.188205
     6     2      0.528801      1.020704      1.052116
     7     2      0.992693      0.464816      0.234014
     8     2      0.504074      0.700061      1.036779
     9     2      0.930497      0.227677      0.767030
    10     2      0.386991      1.056905      0.764448
    11     2      0.167187      0.492967      0.697719
    12     2      0.498464      0.523219      0.446347
    13     2      0.164167      0.324109      0.657238
    14     2      0.854709      0.154982      0.107004
    15     2      0.320896      0.674020      1.043825
    16     2      0.922332      0.726197      0.584327
ITEM: TIMESTEP
1818
ITEM: NUMBER OF ATOMS
16
ITEM: BOX BOUNDS xy xz yz  pp  pp  pp
     -0.300000      4.040544      0.000000
     -0.300000      4.040544      0.000000
     -0.300000      2.769228      0.000000
ITEM: ATOMS id type xs ys zs
     1     1      0.220970      0.226804      0.168821
     2     1      0.652884      0.265357      0.613621
     3     1      0.316974      0.798626      0.515969
     4     1      0.821909      0.707720      1.032179
     5     2      0.861992      1.029235      0.187751
     6     2      0.528099      1.020884      1.051437
     7     2      0.992953      0.464645      0.233776
     8     2      0.504108      0.699733      1.036289
     9     2      0.930661      0.227247      0.766883
    10     2      0.387033      1.056290      0.764137
    11     2      0.166975      0.492633      0.697430
    12     2      0.498197      0.523195      0.445823
    13     2      0.164048      0.323697      0.657582
    14     2      0.854401      0.155309      0.107565
    15     2      0.320077      0.675017      1.043782
    16     2      0.922107      0.726181      0.584184
ITEM: TIMESTEP
1819
ITEM: NUMBER OF ATOMS
16
ITEM: BOX BOUNDS xy xz yz  pp  pp  pp
     -0.300000      4.040544      0.000000
     -0.300000      4.040544      0.000000
     -0.300000      2.769228      0.000000
ITEM: ATOMS id type xs ys zs
     1     1      0.220788      0.226654      0.168478
     2     1      0.653134      0.265630      0.613744
     3     1      0.316868      0.798835      0.516490
     4     1      0.821529      0.707920      1.032318
     5     2      0.861667      1.029430      0.187338
     6     2      0.528068      1.021308      1.052058
     7     2      0.993468      0.464526      0.233820
     8     2      0.504447      0.699759      1.036117
     9     2      0.931319      0.227233      0.767362
    10     2      0.387441      1.056613      0.764246
    11     2      0.166701      0.492550      0.696724
    12     2      0.498593      0.523580      0.445763
    13     2      0.164644      0.323215      0.657639
    14     2      0.854172      0.155423      0.107754
    15     2      0.320004      0.675255      1.043190
    16     2      0.922265      0.726015      0.583678
ITEM: TIMESTEP
1820
ITEM: NUMBER OF ATOMS
16
ITEM: BOX BOUNDS xy xz yz  pp  pp  pp
     -0.300000      4.040544      0.000000
     -0.300000      4.040544      0.000000
     -0.300000      2.769228      0.000000
ITEM: ATOMS id type xs ys zs
     1     1      0.220587      0.226940      0.168776
     2     1      0.653651      0.265750      0.613445
     3     1      0.316417      0.799731      0.516509
     4     1      0.821426      0.707297      1.032896
     5     2      0.861390      1.028833      0.187132
     6     2      0.527650      1.021325      1.052223
     7     2      0.993437      0.464521      0.234051
     8     2      0.504686      0.699544      1.036172
     9     2      0.931831      0.227268      0.767176
    10     2      0.387054      1.056689      0.764477
    11     2      0.166485      0.493023      0.696487
    12     2      0.498390      0.523584      0.445676
    13     2      0.165143      0.322715      0.658363
    14     2      0.853407      0.155563      0.107234
    15     2      0.319771      0.675232      1.043916
    16     2      0.922286      0.725740      0.583963
ITEM: TIMESTEP
1821
ITEM: NUMBER OF ATOMS
16
ITEM: BOX BOUNDS xy xz yz  pp  pp  pp
     -0.300000      4.040544      0.000000
     -0.300000      4.040544      0.000000
     -0.300000      2.769228      0.000000
ITEM: ATOMS id type xs ys zs
     1     1      0.220435      0.227235      0.169151
     2     1      0.653934      0.265668      0.613073
     3     1      0.316250      0.799525      0.517064
     4     1      0.821246      0.706654      1.032627
     5     2      0.861335      1.028680      0.187087
     6     2      0.527467      1.021491      1.052118
     7     2      0.993878      0.464524      0.233570
     8     2      0.504828      0.698969      1.035881
     9     2      0.931861      0.227696      0.767513
    10     2      0.387605      1.057023      0.764880
    11     2      0.166892      0.492523      0.696098
    12     2      0.498526      0.523503      0.446550
    13     2      0.165642      0.322187      0.658870
    14     2      0.854042      0.155658      0.108061
    15     2      0.319506      0.675380      1.044320
    16     2      0.921709      0.726525      0.583551
ITEM: TIMESTEP
1822
ITEM: NUMBER OF ATOMS
16
ITEM: BOX BOUNDS xy xz yz  pp  pp  pp
     -0.300000      4.040544      0.000000
     -0.300000      4.040544      0.000000
     -0.300000      2.769228      0.000000
ITEM: ATOMS id type xs ys zs
     1     1      0.220816      0.227006      0.169194
     2     1      0.653645      0.265887      0.612717
     3     1      0.315707      0.799613      0.517561
     4     1      0.821466      0.706957      1.032196
     5     2      0.861465      1.028419      0.187017
     6     2      0.527225      1.021357      1.052177
     7     2      0.993813      0.464549      0.234605
     8     2      0.504401      0.699301      1.036364
     9     2      0.932473      0.227979      0.767675
    10     2      0.388013      1.056932      0.763940
    11     2      0.166446      0.491826      0.696154
    12     2      0.498248      0.523279      0.446091
    13     2      0.166182      0.321781      0.658881
    14     2      0.853545      0.156097      0.107848
    15     2      0.319791      0.675899      1.044525
    16     2      0.921521      0.726217      0.583346
ITEM: TIMESTEP
1823
ITEM: NUMBER OF ATOMS
16
ITEM: BOX BOUNDS xy xz yz  pp  pp  pp
     -0.300000      4.040544      0.000000
     -0.300000      4.040544      0.000000
     -0.300000      2.769228      0.000000
ITEM: ATOMS id type xs ys zs
     1     1      0.221623      0.227288      0.169031
     2     1      0.653898      0.266037      0.611925
     3     1      0.315842      0.799899      0.517200
     4     1      0.820818      0.707250      1.031228
     5     2      0.861327      1.028859      0.186434
     6     2      0.526350      1.021380      1.052586
     7     2      0.993872      0.463934      0.235772
     8     2      0.504501      0.699589      1.036523
     9     2      0.932539      0.227159      0.768099
    10     2      0.388259      1.056752      0.764252
    11     2      0.166630      0.491370      0.695507
    12     2      0.498288      0.522866      0.445599
    13     2      0.166481      0.321499      0.659397
    14     2      0.853284      0.157010      0.108461
    15     2      0.319688      0.676046      1.044774
    16     2      0.921207      0.726161      0.582958
ITEM: TIMESTEP
1824
ITEM: NUMBER OF ATOMS
16
ITEM: BOX BOUNDS xy xz yz  pp  pp  pp
     -0.300000      4.040544      0.000000
     -0.300000      4.040544      0.000000
     -0.300000      2.769228      0.000000
ITEM: ATOMS id type xs ys zs
     1     1      0.221307      0.227095      0.169008
     2     1      0.654608      0.266119      0.612373
     3     1      0.315840      0.799768      0.516648
     4     1      0.820943      0.707164      1.031707
     5     2      0.861207      1.028751      0.185129
     6     2      0.526191      1.021545      1.052238
     7     2      0.993895      0.464085      0.236587
     8     2      0.504657      0.699225      1.036733
     9     2      0.932784      0.227836      0.768259
    10     2      0.387475      1.056580      0.764455
    11     2      0.166578      0.491605      0.694923
    12     2      0.498321      0.522863      0.446120
    13     2      0.166365      0.320980      0.659507
    14     2      0.852757      0.157510      0.109025
    15     2      0.319633      0.676076      1.045272
    16     2      0.921609      0.726560      0.582456
ITEM: TIMESTEP
1825
ITEM: NUMBER OF ATOMS
16
ITEM: BOX BOUNDS xy xz yz  pp  pp  pp
     -0.300000      4.040544      0.000000
     -0.300000      4.040544      0.000000
     -0.300000      2.769228      0.000000
ITEM: ATOMS id type xs ys zs
     1     1      0.221804      0.227157      0.168795
     2     1      0.654621      0.266033      0.611518
     3     1      0.315077      0.799555      0.517096
     4     1      0.820966      0.707165      1.031359
     5     2      0.861045      1.028346      0.184989
     6     2      0.526565      1.021562      1.052900
     7     2      0.993001      0.464555      0.236803
     8     2      0.504469      0.699380      1.037628
     9     2      0.933111      0.227438      0.767605
    10     2      0.386998      1.056901      0.764811
    11     2      0.166421      0.490937      0.694847
    12     2      0.498218      0.523226      0.446347
    13     2      0.166856      0.320384      0.659752
    14     2      0.852826      0.157814      0.109270
    15     2      0.320196      0.677019      1.044267
    16     2      0.921715      0.726895      0.582065
ITEM: TIMESTEP
1826
ITEM: NUMBER OF ATOMS
16
ITEM: BOX BOUNDS xy xz yz  pp  pp  pp
     -0.300000      4.040544      0.000000
     -0.300000      4.040544      0.000000
     -0.300000      2.769228      0.000000
ITEM: ATOMS id type xs ys zs
     1     1      0.221896      0.227282      0.169347
     2     1      0.654446      0.265855      0.611263
     3     1      0.315166      0.799366      0.517790
     4     1      0.821182      0.706643      1.031809
     5     2      0.861443      1.028360      0.185239
     6     2      0.526331      1.022073      1.053277
     7     2      0.992741      0.464847      0.236518
     8     2      0.504813      0.699436      1.037174
     9     2      0.933559      0.227392      0.766996
    10     2      0.387451      1.057096      0.765196
    11     2      0.166282      0.491129      0.694191
    12     2      0.498513      0.523657      0.445823
    13     2      0.167018      0.320228      0.659596
    14     2      0.852657      0.158437      0.109464
    15     2      0.319855      0.677542      1.044990
    16     2      0.921250      0.726189      0.582138
ITEM: TIMESTEP
1827
ITEM: NUMBER OF ATOMS
16
ITEM: BOX BOUNDS xy xz yz  pp  pp  pp
     -0.300000      4.040544      0.000000
     -0.300000      4.040544      0.000000
     -0.300000      2.769228      0.000000
ITEM: ATOMS id type xs ys zs
     1     1      0.221780      0.227623      0.168932
     2     1      0.654179      0.265617      0.610700
     3     1      0.314947      0.798871      0.518184
     4     1      0.821573      0.706569      1.032526
     5     2      0.861457      1.027797      0.185081
     6     2      0.526079      1.022514      1.053276
     7     2      0.992459      0.464809      0.237095
     8     2      0.504193      0.700065      1.037320
     9     2      0.934090      0.227304      0.767016
    10     2      0.387276      1.056783      0.765154
    11     2      0.166150      0.491928      0.693914