ITEM: TIMESTEP
1
ITEM: NUMBER OF ATOMS
7
ITEM: BOX BOUNDS ss ss ss
-3.2997 2.8430
-2.6758 3.3913
-2.0136 1.8823
ITEM: ATOMS id type xs ys zs
1 1 .491860 .999456 .569740
2 1 .999287 .642932 .492134
3 1 .840532 .035315 .465442
4 1 .221786 .000867 .481532
5 1 .000877 .596169 .500142
6 1 .510135 .441028 .999289
7 1 .503156 .469051 .000586
ITEM: TIMESTEP
50
ITEM: NUMBER OF ATOMS
7
ITEM: BOX BOUNDS ss ss ss
-3.3238 2.8643
-2.7001 3.4163
-2.0340 1.9044
ITEM: ATOMS id type xs ys zs
1 1 .490992 .994885 .568057
2 1 .996033 .641662 .492824
3 1 .837415 .038651 .466664
4 1 .223130 .001447 .482561
5 1 .005746 .595152 .502076
6 1 .510445 .442299 .992797
7 1 .504527 .468717 .004959
ITEM: TIMESTEP
100
ITEM: NUMBER OF ATOMS
7
ITEM: BOX BOUNDS ss ss ss
-3.3301 2.8749
-2.7085 3.4235
-2.0453 1.9147
ITEM: ATOMS id type xs ys zs
1 1 .489487 .994208 .571737
2 1 .994918 .640480 .491114
3 1 .835871 .037960 .469312
4 1 .221905 .002300 .481377
5 1 .007205 .595504 .502613
6 1 .510114 .442085 .989268
7 1 .502832 .468853 .005456
ITEM: TIMESTEP
150
ITEM: NUMBER OF ATOMS
7
ITEM: BOX BOUNDS ss ss ss
-3.3373 2.8793
-2.7145 3.4170
-2.0567 1.9224
ITEM: ATOMS id type xs ys zs
1 1 .488097 .994722 .572512
2 1 .992106 .643048 .489877
3 1 .838557 .043311 .463233
4 1 .223415 .005744 .481144
5 1 .009884 .595973 .497446
6 1 .508708 .439373 .991812
7 1 .505452 .468799 .007592
ITEM: TIMESTEP
200
ITEM: NUMBER OF ATOMS
7
ITEM: BOX BOUNDS ss ss ss
-3.3375 2.8858
-2.7160 3.4162
-2.0652 1.9207
ITEM: ATOMS id type xs ys zs
1 1 .489316 .993723 .571659
2 1 .992493 .643520 .489630
3 1 .835623 .041359 .466076
4 1 .224626 .007494 .480030
5 1 .008188 .598021 .499514
6 1 .512012 .442576 .988576
7 1 .503014 .473856 .016110
ITEM: TIMESTEP
250
ITEM: NUMBER OF ATOMS
7
ITEM: BOX BOUNDS ss ss ss
-3.3444 2.8866
-2.7142 3.4089
-2.0591 1.9313
ITEM: ATOMS id type xs ys zs
1 1 .491734 .991533 .567511
2 1 .995545 .643288 .487695
3 1 .832843 .042937 .460374
4 1 .229293 .006672 .485271
5 1 .007405 .601082 .504643
6 1 .512138 .443151 .987093
7 1 .502727 .468584 .011650
ITEM: TIMESTEP
300
ITEM: NUMBER OF ATOMS
7
ITEM: BOX BOUNDS ss ss ss
-3.3505 2.8978
-2.7236 3.4115
-2.0614 1.9321
ITEM: ATOMS id type xs ys zs
1 1 .489017 .989656 .566557
2 1 .992327 .646291 .495719
3 1 .836313 .044459 .466728
4 1 .225722 .011068 .480645
5 1 .008546 .600209 .501646
6 1 .509009 .442034 .991733
7 1 .502307 .471201 .014509
ITEM: TIMESTEP
350
ITEM: NUMBER OF ATOMS
7
ITEM: BOX BOUNDS ss ss ss
-3.3475 2.9032
-2.7063 3.4094
-2.0686 1.9331
ITEM: ATOMS id type xs ys zs
1 1 .485635 .991431 .562009
2 1 .995592 .645724 .495575
3 1 .834645 .041127 .465691
4 1 .225598 .002256 .482143
5 1 .004893 .595518 .504118
6 1 .509744 .441612 .980475
7 1 .501966 .473161 .019372
ITEM: TIMESTEP
400
ITEM: NUMBER OF ATOMS
7
ITEM: BOX BOUNDS ss ss ss
-3.3509 2.9099
-2.7124 3.3995
-2.0724 1.9368
ITEM: ATOMS id type xs ys zs
1 1 .486850 .990101 .563752
2 1 .990258 .640850 .505075
3 1 .832093 .041172 .463946
4 1 .220266 .011584 .481202
5 1 .010498 .601342 .503299
6 1 .509668 .441078 .985555
7 1 .506771 .475311 .011418
ITEM: TIMESTEP
1
ITEM: NUMBER OF ATOMS
7
ITEM: BOX BOUNDS ss ss ss
-3.3487 2.9041
-2.6995 3.3914
-2.0563 1.9359
ITEM: ATOMS id type xs ys zs
1 1 .491167 .999324 .566890
2 1 .989496 .644335 .490908
3 1 .833951 .038808 .464901
4 1 .226039 .004793 .480449
5 1 .008318 .598301 .498518
6 1 .509251 .443527 .985673
7 1 .502091 .471077 .012013
ITEM: TIMESTEP
50
ITEM: NUMBER OF ATOMS
7
ITEM: BOX BOUNDS ss ss ss
-3.3487 2.9041
-2.6995 3.4177
-2.0563 1.9359
ITEM: ATOMS id type xs ys zs
1 1 .493363 .993848 .567927
2 1 .988816 .639608 .489289
3 1 .831587 .038539 .461382
4 1 .228698 .004681 .481037
5 1 .008290 .597444 .494979
6 1 .508222 .440148 .984003
7 1 .499918 .467284 .012710
ITEM: TIMESTEP
100
ITEM: NUMBER OF ATOMS
7
ITEM: BOX BOUNDS ss ss ss
-3.3487 2.9030
-2.7102 3.4255
-2.0563 1.9359
ITEM: ATOMS id type xs ys zs
1 1 .490139 .991222 .564737
2 1 .990319 .640643 .494913
3 1 .835067 .040585 .462287
4 1 .225564 .007148 .478192
5 1 .009129 .596848 .498968
6 1 .508298 .441114 .986245
7 1 .506138 .471159 .012254
ITEM: TIMESTEP
150
ITEM: NUMBER OF ATOMS
7
ITEM: BOX BOUNDS ss ss ss
-3.3487 2.9030
-2.7186 3.4169
-2.0492 1.9359
ITEM: ATOMS id type xs ys zs
1 1 .489808 .993006 .564460
2 1 .989550 .638093 .492990
3 1 .833806 .042118 .461014
4 1 .225279 .008605 .478795
5 1 .008419 .600321 .496323
6 1 .510269 .440759 .987163
7 1 .507095 .472627 .008890
ITEM: TIMESTEP
200
ITEM: NUMBER OF ATOMS
7
ITEM: BOX BOUNDS ss ss ss
-3.3487 2.9023
-2.7153 3.4174
-2.0528 1.9359
ITEM: ATOMS id type xs ys zs
1 1 .487403 .992111 .558331
2 1 .992459 .644798 .491287
3 1 .838267 .040726 .461798
4 1 .225604 .008632 .482851
5 1 .008066 .597131 .502855
6 1 .511996 .442972 .985490
7 1 .504483 .471378 .007751
ITEM: TIMESTEP
250
ITEM: NUMBER OF ATOMS
7
ITEM: BOX BOUNDS ss ss ss
-3.3438 2.9003
-2.7145 3.4123
-2.0610 1.9289
ITEM: ATOMS id type xs ys zs
1 1 .487812 .993339 .558115
2 1 .991793 .644158 .492735
3 1 .837404 .039395 .462586
4 1 .224525 .009370 .484001
5 1 .007497 .598369 .505102
6 1 .512110 .443941 .988791
7 1 .505622 .473088 .011058
ITEM: TIMESTEP
300
ITEM: NUMBER OF ATOMS
7
ITEM: BOX BOUNDS ss ss ss
-3.3456 2.9003
-2.7104 3.4020
-2.0666 1.9180
ITEM: ATOMS id type xs ys zs
1 1 .489332 .990659 .557034
2 1 .992707 .640621 .495667
3 1 .836901 .038457 .465593
4 1 .225871 .009615 .482661
5 1 .006298 .596920 .506522
6 1 .509799 .446311 .990754
7 1 .504193 .470434 .010234
ITEM: TIMESTEP
350
ITEM: NUMBER OF ATOMS
7
ITEM: BOX BOUNDS ss ss ss
-3.3550 2.9086
-2.7066 3.3972
-2.0754 1.9168
ITEM: ATOMS id type xs ys zs
1 1 .486803 .991150 .556300
2 1 .993393 .645254 .497916
3 1 .835866 .038031 .464968
4 1 .227612 .011001 .482832
5 1 .011470 .599818 .504682
6 1 .515271 .441414 .984661
7 1 .503383 .471760 .011349
ITEM: TIMESTEP
400
ITEM: NUMBER OF ATOMS
7
ITEM: BOX BOUNDS ss ss ss
-3.3470 2.9048
-2.7034 3.3893
-2.0757 1.9182
ITEM: ATOMS id type xs ys zs
1 1 .485012 .992552 .555217
2 1 .994067 .647447 .498565
3 1 .834123 .037541 .465433
4 1 .227611 .011595 .482638
5 1 .010549 .600440 .506804
6 1 .516159 .441886 .985136
7 1 .506378 .471219 .015555
ITEM: TIMESTEP
1
ITEM: NUMBER OF ATOMS
7
ITEM: BOX BOUNDS ss ss ss
-3.3388 2.9169
-2.6956 3.3914
-2.0737 1.9155
ITEM: ATOMS id type xs ys zs
1 1 .489342 .999504 .571298
2 1 .987550 .644414 .495761
3 1 .831921 .038397 .469343
4 1 .224379 .003935 .484978
5 1 .006976 .597942 .503493
6 1 .507203 .443038 .990878
7 1 .500159 .470414 .016177
ITEM: TIMESTEP
50
ITEM: NUMBER OF ATOMS
7
ITEM: BOX BOUNDS ss ss ss
-3.3388 2.9169
-2.7046 3.4179
-2.0737 1.9155
ITEM: ATOMS id type xs ys zs
1 1 .489649 .994588 .570978
2 1 .987270 .641292 .495379
3 1 .830970 .040696 .467878
4 1 .223988 .004969 .484146
5 1 .004501 .596652 .501695
6 1 .507869 .440834 .992594
7 1 .501114 .469157 .016362
ITEM: TIMESTEP
100
ITEM: NUMBER OF ATOMS
7
ITEM: BOX BOUNDS ss ss ss
-3.3385 2.9169
-2.7068 3.4245
-2.0737 1.9155
ITEM: ATOMS id type xs ys zs
1 1 .491594 .994046 .573801
2 1 .985323 .640681 .495294
3 1 .831480 .041183 .465531
4 1 .223581 .005002 .484571
5 1 .005218 .599215 .501338
6 1 .507212 .439963 .994411
7 1 .498428 .469865 .016078
ITEM: TIMESTEP
150
ITEM: NUMBER OF ATOMS
7
ITEM: BOX BOUNDS ss ss ss
-3.3417 2.9169
-2.7139 3.4233
-2.0737 1.9271
ITEM: ATOMS id type xs ys zs
1 1 .488581 .992490 .566569
2 1 .988880 .640374 .494093
3 1 .829388 .044448 .469951
4 1 .224251 .007581 .481506
5 1 .008236 .594935 .498437
6 1 .508169 .444107 .992026
7 1 .500594 .470065 .013542
ITEM: TIMESTEP
200
ITEM: NUMBER OF ATOMS
7
ITEM: BOX BOUNDS ss ss ss
-3.3407 2.9169
-2.7178 3.4219
-2.0737 1.9186
ITEM: ATOMS id type xs ys zs
1 1 .488364 .991117 .570729
2 1 .989779 .645318 .493568
3 1 .830684 .041693 .473233
4 1 .226444 .010948 .485566
5 1 .005270 .597134 .503590
6 1 .508073 .443164 .985569
7 1 .499961 .472766 .012905
ITEM: TIMESTEP
250
ITEM: NUMBER OF ATOMS
7
ITEM: BOX BOUNDS ss ss ss
-3.3454 2.9169
-2.7258 3.4218
-2.0737 1.9162
ITEM: ATOMS id type xs ys zs
1 1 .485962 .990613 .563628
2 1 .989770 .641118 .491063
3 1 .830583 .046420 .474469
4 1 .225292 .011960 .484211
5 1 .005428 .596545 .509770
6 1 .506932 .446747 .986011
7 1 .499063 .469241 .017391
ITEM: TIMESTEP
300
ITEM: NUMBER OF ATOMS
7
ITEM: BOX BOUNDS ss ss ss
-3.3455 2.9169
-2.7111 3.4211
-2.0737 1.9196
ITEM: ATOMS id type xs ys zs
1 1 .486350 .990284 .568608
2 1 .987577 .643825 .500629
3 1 .832739 .037975 .473746
4 1 .222638 .005620 .487328
5 1 .006542 .602194 .498346
6 1 .505617 .439670 .985886
7 1 .502197 .464741 .013987
ITEM: TIMESTEP
350
ITEM: NUMBER OF ATOMS
7
ITEM: BOX BOUNDS ss ss ss
-3.3501 2.9169
-2.7128 3.4157
-2.0737 1.9204
ITEM: ATOMS id type xs ys zs
1 1 .488137 .993553 .582280
2 1 .988196 .648803 .500423
3 1 .834388 .042907 .465766
4 1 .221685 .008379 .486498
5 1 .012284 .599087 .502697
6 1 .510082 .438059 .984417
7 1 .503093 .473489 .013202
ITEM: TIMESTEP
400
ITEM: NUMBER OF ATOMS
7
ITEM: BOX BOUNDS ss ss ss
-3.3481 2.9169
-2.7125 3.4117
-2.0737 1.9311
ITEM: ATOMS id type xs ys zs
1 1 .487087 .990157 .570968
2 1 .989604 .643355 .490602
3 1 .831295 .043422 .463497
4 1 .224793 .009254 .486915
5 1 .007932 .599854 .502130
6 1 .507054 .441640 .992066
7 1 .499488 .471816 .010379
ITEM: TIMESTEP
1
ITEM: NUMBER OF ATOMS
7
ITEM: BOX BOUNDS ss ss ss
-3.3467 2.9169
-2.6973 3.4055
-2.0607 1.9361
ITEM: ATOMS id type xs ys zs
1 1 .489963 .997490 .566950
2 1 .987637 .642801 .491962
3 1 .832174 .038445 .465370
4 1 .225053 .004380 .480812
5 1 .007983 .596275 .498315
6 1 .508054 .441819 .985532
7 1 .500931 .469936 .012658
ITEM: TIMESTEP
50
ITEM: NUMBER OF ATOMS
7
ITEM: BOX BOUNDS ss ss ss
-3.3467 2.9169
-2.6985 3.4182
-2.0607 1.9361
ITEM: ATOMS id type xs ys zs
1 1 .491006 .995233 .568329
2 1 .988132 .642237 .490599
3 1 .831936 .037616 .467177
4 1 .224780 .004327 .483017
5 1 .009580 .595017 .497414
6 1 .509129 .442047 .987602
7 1 .500442 .469152 .013490
ITEM: TIMESTEP
100
ITEM: NUMBER OF ATOMS
7
ITEM: BOX BOUNDS ss ss ss
-3.3467 2.9169
-2.7113 3.4282
-2.0607 1.9361
ITEM: ATOMS id type xs ys zs
1 1 .488260 .993673 .573504
2 1 .987042 .637857 .489678
3 1 .831508 .040886 .463056
4 1 .227195 .006153 .483761
5 1 .010871 .593627 .499121
6 1 .503548 .443723 .983778
7 1 .503147 .469791 .010495
ITEM: TIMESTEP
150
ITEM: NUMBER OF ATOMS
7
ITEM: BOX BOUNDS ss ss ss
-3.3467 2.9169
-2.7164 3.4298
-2.0607 1.9361
ITEM: ATOMS id type xs ys zs
1 1 .491384 .994081 .570407
2 1 .989416 .640415 .488794
3 1 .829697 .038762 .462641
4 1 .227238 .008873 .481918
5 1 .009325 .596127 .498586
6 1 .508769 .441691 .986284
7 1 .499046 .469052 .011810
ITEM: TIMESTEP
200
ITEM: NUMBER OF ATOMS
7
ITEM: BOX BOUNDS ss ss ss
-3.3467 2.9169
-2.7285 3.4261
-2.0663 1.9361
ITEM: ATOMS id type xs ys zs
1 1 .491138 .996309 .569744
2 1 .987113 .642091 .488602
3 1 .831307 .040762 .462700
4 1 .226714 .010241 .484781
5 1 .009234 .596826 .497451
6 1 .507874 .443246 .985238
7 1 .500396 .470210 .013555
ITEM: TIMESTEP
250
ITEM: NUMBER OF ATOMS
7
ITEM: BOX BOUNDS ss ss ss
-3.3467 2.9169
-2.7275 3.4214
-2.0607 1.9248
ITEM: ATOMS id type xs ys zs
1 1 .491937 .990380 .574936
2 1 .993029 .645541 .494114
3 1 .831776 .042156 .468681
4 1 .225808 .010129 .483329
5 1 .007078 .596923 .498160
6 1 .506921 .440267 .989530
7 1 .502120 .473546 .017100
ITEM: TIMESTEP
300
ITEM: NUMBER OF ATOMS
7
ITEM: BOX BOUNDS ss ss ss
-3.3466 2.9169
-2.7287 3.4172
-2.0766 1.9232
ITEM: ATOMS id type xs ys zs
1 1 .489060 .992224 .572424
2 1 .992352 .641756 .495375
3 1 .831730 .047532 .472425
4 1 .225663 .008200 .489424
5 1 .008794 .602219 .506709
6 1 .507331 .446827 .990887
7 1 .499357 .474628 .014624
ITEM: TIMESTEP
350
ITEM: NUMBER OF ATOMS
7
ITEM: BOX BOUNDS ss ss ss
-3.3466 2.9169
-2.7282 3.4146
-2.0762 1.9204
ITEM: ATOMS id type xs ys zs
1 1 .491902 .991238 .569853
2 1 .989114 .639560 .492884
3 1 .833675 .039117 .471375
4 1 .220901 .012390 .486129
5 1 .009852 .606100 .510228
6 1 .509182 .443782 .987620
7 1 .503931 .470855 .019457
ITEM: TIMESTEP
400
ITEM: NUMBER OF ATOMS
7
ITEM: BOX BOUNDS ss ss ss
-3.3480 2.9169
-2.7301 3.4150
-2.0777 1.9285
ITEM: ATOMS id type xs ys zs
1 1 .496153 .994339 .569269
2 1 .988946 .639893 .491244
3 1 .831569 .040368 .475617
4 1 .222245 .009315 .488644
5 1 .010463 .605866 .507176
6 1 .510159 .443032 .982530
7 1 .499702 .469333 .017521
ITEM: TIMESTEP
1
ITEM: NUMBER OF ATOMS
7
ITEM: BOX BOUNDS ss ss ss
-3.3408 2.9120
-2.7044 3.3971
-2.0600 1.9304
ITEM: ATOMS id type xs ys zs
1 1 .490042 .998561 .567957
2 1 .988491 .644219 .492881
3 1 .832740 .039716 .465951
4 1 .224630 .005348 .481654
5 1 .007060 .597509 .499731
6 1 .507902 .443346 .986818
7 1 .500848 .470785 .012451
ITEM: TIMESTEP
50
ITEM: NUMBER OF ATOMS
7
ITEM: BOX BOUNDS ss ss ss
-3.3408 2.9120
-2.7044 3.4157
-2.0600 1.9304
ITEM: ATOMS id type xs ys zs
1 1 .491657 .995876 .569133
2 1 .988880 .642180 .492621
3 1 .833295 .038201 .466256
4 1 .225222 .005280 .480669
5 1 .006656 .595393 .498728
6 1 .505932 .443688 .985654
7 1 .498722 .467236 .010168
ITEM: TIMESTEP
100
ITEM: NUMBER OF ATOMS
7
ITEM: BOX BOUNDS ss ss ss
-3.3408 2.9110
-2.7153 3.4273
-2.0600 1.9304
ITEM: ATOMS id type xs ys zs
1 1 .490608 .996113 .567588
2 1 .987324 .642484 .490442
3 1 .834874 .043251 .466732
4 1 .226586 .008809 .486947
5 1 .007114 .596164 .499826
6 1 .505370 .442173 .988017
7 1 .499521 .472274 .015888
ITEM: TIMESTEP
150
ITEM: NUMBER OF ATOMS
7
ITEM: BOX BOUNDS ss ss ss
-3.3421 2.9103
-2.7200 3.4299
-2.0600 1.9304
ITEM: ATOMS id type xs ys zs
1 1 .490917 .995473 .568030
2 1 .986822 .640730 .490600
3 1 .835946 .044114 .466453
4 1 .225552 .010402 .488892
5 1 .006197 .595048 .495572
6 1 .507274 .442117 .988237
7 1 .499939 .475274 .015737
ITEM: TIMESTEP
200
ITEM: NUMBER OF ATOMS
7
ITEM: BOX BOUNDS ss ss ss
-3.3454 2.9038
-2.7230 3.4279
-2.0607 1.9304
ITEM: ATOMS id type xs ys zs
1 1 .485027 .990288 .569690
2 1 .990136 .641566 .491419
3 1 .829363 .043482 .463193
4 1 .223931 .012827 .488133
5 1 .007279 .594332 .493772
6 1 .508366 .440707 .983796
7 1 .505198 .472327 .008412
ITEM: TIMESTEP
250
ITEM: NUMBER OF ATOMS
7
ITEM: BOX BOUNDS ss ss ss
-3.3420 2.9038
-2.7212 3.4217
-2.0600 1.9183
ITEM: ATOMS id type xs ys zs
1 1 .488609 .988919 .574572
2 1 .988761 .642062 .493189
3 1 .829912 .043331 .471633
4 1 .222273 .011356 .483436
5 1 .006304 .599499 .499444
6 1 .509849 .442149 .987308
7 1 .501445 .471523 .014563
ITEM: TIMESTEP
300
ITEM: NUMBER OF ATOMS
7
ITEM: BOX BOUNDS ss ss ss
-3.3458 2.9094
-2.7123 3.4050
-2.0627 1.9162
ITEM: ATOMS id type xs ys zs
1 1 .488089 .995708 .571697
2 1 .988762 .644471 .493051
3 1 .831582 .044125 .471240
4 1 .219162 .006550 .482009
5 1 .005932 .600102 .501576
6 1 .509061 .443370 .986096
7 1 .500330 .468286 .014637
ITEM: TIMESTEP
350
ITEM: NUMBER OF ATOMS
7
ITEM: BOX BOUNDS ss ss ss
-3.3515 2.9038
-2.7088 3.4100
-2.0657 1.9243
ITEM: ATOMS id type xs ys zs
1 1 .490004 .994584 .568444
2 1 .991184 .643345 .497093
3 1 .832658 .043106 .470699
4 1 .222131 .003244 .477219
5 1 .012121 .599961 .504948
6 1 .510492 .442436 .984924
7 1 .502900 .470234 .013837
ITEM: TIMESTEP
400
ITEM: NUMBER OF ATOMS
7
ITEM: BOX BOUNDS ss ss ss
-3.3524 2.9123
-2.7103 3.4027
-2.0643 1.9303
ITEM: ATOMS id type xs ys zs
1 1 .488294 .990680 .565138
2 1 .992965 .645974 .484914
3 1 .831834 .039628 .462879
4 1 .219508 .007035 .476504
5 1 .008251 .597577 .500308
6 1 .509051 .441558 .985068
7 1 .500818 .467680 .015092
ITEM: TIMESTEP
1
ITEM: NUMBER OF ATOMS
7
ITEM: BOX BOUNDS ss ss ss
-3.3518 2.9144
-2.7092 3.3915
-2.0599 1.9334
ITEM: ATOMS id type xs ys zs
1 1 .490722 .999573 .567308
2 1 .988054 .645073 .491670
3 1 .832574 .040786 .465990
4 1 .226184 .006341 .481276
5 1 .008900 .598478 .499412
6 1 .508477 .444210 .986296
7 1 .501155 .472093 .012643
ITEM: TIMESTEP
50
ITEM: NUMBER OF ATOMS
7
ITEM: BOX BOUNDS ss ss ss
-3.3518 2.9096
-2.7092 3.4162
-2.0599 1.9334
ITEM: ATOMS id type xs ys zs
1 1 .492117 .995405 .567637
2 1 .990361 .643813 .490841
3 1 .833000 .041536 .468361
4 1 .227195 .006148 .479606
5 1 .008234 .596468 .499571
6 1 .508826 .443406 .983540
7 1 .501669 .472160 .012353
ITEM: TIMESTEP
100
ITEM: NUMBER OF ATOMS
7
ITEM: BOX BOUNDS ss ss ss
-3.3518 2.9096
-2.7182 3.4271
-2.0599 1.9300
ITEM: ATOMS id type xs ys zs
1 1 .493841 .994572 .569009
2 1 .990736 .639164 .494020
3 1 .832762 .042491 .468447
4 1 .229098 .005992 .479086
5 1 .007478 .594274 .495144
6 1 .508694 .443293 .985634
7 1 .500471 .470334 .014796
ITEM: TIMESTEP
150
ITEM: NUMBER OF ATOMS
7
ITEM: BOX BOUNDS ss ss ss
-3.3518 2.9096
-2.7178 3.4337
-2.0550 1.9300
ITEM: ATOMS id type xs ys zs
1 1 .489637 .990397 .569329
2 1 .992822 .641561 .491575
3 1 .830592 .037450 .463450
4 1 .228189 .007299 .480491
5 1 .009291 .596411 .503329
6 1 .512347 .444985 .986140
7 1 .501238 .473714 .016528
ITEM: TIMESTEP
200
ITEM: NUMBER OF ATOMS
7
ITEM: BOX BOUNDS ss ss ss
-3.3450 2.9096
-2.7197 3.4279
-2.0587 1.9300
ITEM: ATOMS id type xs ys zs
1 1 .488657 .990199 .565058
2 1 .990510 .643351 .492501
3 1 .832142 .041185 .471327
4 1 .226450 .005043 .481087
5 1 .008705 .597238 .496398
6 1 .508851 .444497 .979719
7 1 .502828 .467160 .009016
ITEM: TIMESTEP
250
ITEM: NUMBER OF ATOMS
7
ITEM: BOX BOUNDS ss ss ss
-3.3443 2.9096
-2.7246 3.4417
-2.0592 1.9267
ITEM: ATOMS id type xs ys zs
1 1 .489721 .988214 .567627
2 1 .987367 .642632 .488059
3 1 .830027 .040819 .472742
4 1 .224756 .005169 .480699
5 1 .009473 .596652 .494536
6 1 .510640 .444703 .980148
7 1 .503571 .465468 .005972
ITEM: TIMESTEP
300
ITEM: NUMBER OF ATOMS
7
ITEM: BOX BOUNDS ss ss ss
-3.3429 2.9095
-2.7303 3.4245
-2.0654 1.9267
ITEM: ATOMS id type xs ys zs
1 1 .486382 .991042 .564011
2 1 .989223 .641547 .494797
3 1 .829549 .044221 .466524
4 1 .221533 .011122 .482545
5 1 .008774 .602546 .505342
6 1 .509152 .444243 .983332
7 1 .496475 .471379 .009252
ITEM: TIMESTEP
350
ITEM: NUMBER OF ATOMS
7
ITEM: BOX BOUNDS ss ss ss
-3.3454 2.9015
-2.7251 3.4181
-2.0662 1.9352
ITEM: ATOMS id type xs ys zs
1 1 .488980 .993226 .563788
2 1 .990191 .640705 .490965
3 1 .829801 .042392 .468799
4 1 .224159 .010321 .481146
5 1 .009401 .602991 .501651
6 1 .508457 .442056 .978310
7 1 .497765 .470412 .007971
ITEM: TIMESTEP
400
ITEM: NUMBER OF ATOMS
7
ITEM: BOX BOUNDS ss ss ss
-3.3508 2.8996
-2.7195 3.4185
-2.0737 1.9318
ITEM: ATOMS id type xs ys zs
1 1 .489069 .994542 .565807
2 1 .989874 .637903 .491293
3 1 .828205 .037743 .479630
4 1 .224639 .012014 .477322
5 1 .013892 .597832 .515591
6 1 .513730 .440726 .984175
7 1 .503838 .472111 .011363
ITEM: TIMESTEP
1
ITEM: NUMBER OF ATOMS
7
ITEM: BOX BOUNDS ss ss ss
-3.3539 2.8816
-2.7092 3.4147
-2.0688 1.9280
ITEM: ATOMS id type xs ys zs
1 1 .493444 .995365 .569365
2 1 .993608 .642228 .493713
3 1 .836681 .040332 .467365
4 1 .227438 .006187 .483022
5 1 .009456 .596162 .500889
6 1 .511323 .442491 .988104
7 1 .504081 .470041 .014828
ITEM: TIMESTEP
50
ITEM: NUMBER OF ATOMS
7
ITEM: BOX BOUNDS ss ss ss
-3.3539 2.8816
-2.7092 3.4246
-2.0688 1.9280
ITEM: ATOMS id type xs ys zs
1 1 .493083 .995495 .568502
2 1 .992177 .641424 .490678
3 1 .834798 .037839 .468672
4 1 .227781 .005772 .483777
5 1 .009304 .595202 .499368
6 1 .511460 .440979 .985842
7 1 .504538 .468916 .015157
ITEM: TIMESTEP
100
ITEM: NUMBER OF ATOMS
7
ITEM: BOX BOUNDS ss ss ss
-3.3539 2.8816
-2.7163 3.4303
-2.0688 1.9264
ITEM: ATOMS id type xs ys zs
1 1 .491587 .993905 .566212
2 1 .989629 .640588 .491204
3 1 .835449 .038663 .465531
4 1 .228922 .006684 .482667
5 1 .009538 .595545 .501641
6 1 .511529 .442323 .984243
7 1 .504378 .468999 .018497
ITEM: TIMESTEP
150
ITEM: NUMBER OF ATOMS
7
ITEM: BOX BOUNDS ss ss ss
-3.3539 2.8851
-2.7190 3.4344
-2.0688 1.9264
ITEM: ATOMS id type xs ys zs
1 1 .495709 .990550 .570364
2 1 .992045 .636515 .492774
3 1 .835076 .040268 .461417
4 1 .228249 .004100 .484485
5 1 .010343 .595260 .504589
6 1 .506588 .441026 .990247
7 1 .503152 .468144 .014116
ITEM: TIMESTEP
200
ITEM: NUMBER OF ATOMS
7
ITEM: BOX BOUNDS ss ss ss
-3.3539 2.8951
-2.7385 3.4312
-2.0688 1.9264
ITEM: ATOMS id type xs ys zs
1 1 .488377 .996433 .570414
2 1 .993288 .642872 .496679
3 1 .835322 .045235 .474662
4 1 .224736 .013073 .485142
5 1 .006506 .596679 .503953
6 1 .509419 .447276 .983398
7 1 .502982 .469356 .010988
ITEM: TIMESTEP
250
ITEM: NUMBER OF ATOMS
7
ITEM: BOX BOUNDS ss ss ss
-3.3539 2.8991
-2.7301 3.4324
-2.0685 1.9264
ITEM: ATOMS id type xs ys zs
1 1 .495194 .990180 .569062
2 1 .993519 .640078 .490141
3 1 .832822 .042227 .467026
4 1 .224738 .010088 .488257
5 1 .007480 .597530 .498134
6 1 .509714 .442777 .978523
7 1 .501435 .470298 .015479
ITEM: TIMESTEP
300
ITEM: NUMBER OF ATOMS
7
ITEM: BOX BOUNDS ss ss ss
-3.3539 2.9094
-2.7287 3.4352
-2.0677 1.9264
ITEM: ATOMS id type xs ys zs
1 1 .488145 .989106 .565392
2 1 .990395 .638992 .491431
3 1 .827561 .039265 .466305
4 1 .224621 .007480 .489487
5 1 .005792 .598184 .499821
6 1 .505966 .442695 .987236
7 1 .504392 .470020 .011087
ITEM: TIMESTEP
350
ITEM: NUMBER OF ATOMS
7
ITEM: BOX BOUNDS ss ss ss
-3.3539 2.9135
-2.7301 3.4347
-2.0713 1.9264
ITEM: ATOMS id type xs ys zs
1 1 .492103 .987829 .571238
2 1 .995957 .641938 .492904
3 1 .831742 .047643 .468087
4 1 .225237 .009767 .486365
5 1 .006355 .593278 .500852
6 1 .507140 .443380 .984038
7 1 .500724 .476009 .007978
ITEM: TIMESTEP
400
ITEM: NUMBER OF ATOMS
7
ITEM: BOX BOUNDS ss ss ss
-3.3636 2.9185
-2.7226 3.4355
-2.0686 1.9200
ITEM: ATOMS id type xs ys zs
1 1 .493301 .989409 .572324
2 1 .995641 .639988 .494128
3 1 .832616 .046127 .469747
4 1 .227497 .009295 .483848
5 1 .008105 .590642 .499180
6 1 .507201 .442909 .985389
7 1 .500045 .476917 .008968
ITEM: TIMESTEP
1
ITEM: NUMBER OF ATOMS
7
ITEM: BOX BOUNDS ss ss ss
-3.3472 2.9135
-2.7157 3.4205
-2.0646 1.9200
ITEM: ATOMS id type xs ys zs
1 1 .490502 .994806 .569343
2 1 .988369 .642525 .493598
3 1 .832665 .041298 .467553
4 1 .225238 .007145 .483295
5 1 .008269 .595831 .501350
6 1 .508171 .442857 .989666
7 1 .501346 .470019 .013869
ITEM: TIMESTEP
50
ITEM: NUMBER OF ATOMS
7
ITEM: BOX BOUNDS ss ss ss
-3.3472 2.9135
-2.7157 3.4205
-2.0646 1.9200
ITEM: ATOMS id type xs ys zs
1 1 .489753 .995654 .575099
2 1 .986826 .641952 .492319
3 1 .831475 .041665 .469281
4 1 .226355 .007557 .486322
5 1 .006916 .595069 .498401
6 1 .508781 .442419 .987526
7 1 .500696 .469750 .014484
ITEM: TIMESTEP
100
ITEM: NUMBER OF ATOMS
7
ITEM: BOX BOUNDS ss ss ss
-3.3472 2.9135
-2.7157 3.4348
-2.0646 1.9200
ITEM: ATOMS id type xs ys zs
1 1 .491194 .993678 .577301
2 1 .988911 .640024 .492532
3 1 .832259 .040030 .472862
4 1 .227432 .007571 .486207
5 1 .007740 .593517 .494762
6 1 .509996 .440978 .984822
7 1 .500027 .466496 .012265
ITEM: TIMESTEP
150
ITEM: NUMBER OF ATOMS
7
ITEM: BOX BOUNDS ss ss ss
-3.3472 2.9135
-2.7207 3.4341
-2.0646 1.9200
ITEM: ATOMS id type xs ys zs
1 1 .489107 .989596 .575642
2 1 .986487 .639719 .491051
3 1 .834395 .040523 .469045
4 1 .227307 .009227 .484505
5 1 .009808 .596838 .500483
6 1 .503304 .442248 .988474
7 1 .502796 .466109 .014987
ITEM: TIMESTEP
200
ITEM: NUMBER OF ATOMS
7
ITEM: BOX BOUNDS ss ss ss
-3.3472 2.9135
-2.7291 3.4418
-2.0692 1.9241
ITEM: ATOMS id type xs ys zs
1 1 .486299 .992484 .571290
2 1 .985891 .643564 .498011
3 1 .831982 .043411 .469530
4 1 .225344 .008944 .485546
5 1 .006094 .590753 .507445
6 1 .506538 .443347 .986417
7 1 .497116 .468049 .012974
ITEM: TIMESTEP
250
ITEM: NUMBER OF ATOMS
7
ITEM: BOX BOUNDS ss ss ss
-3.3517 2.9076
-2.7283 3.4271
-2.0646 1.9262
ITEM: ATOMS id type xs ys zs
1 1 .488069 .993356 .572372
2 1 .989602 .648648 .492327
3 1 .834147 .047594 .468583
4 1 .224281 .009786 .486818
5 1 .010483 .597005 .505007
6 1 .507412 .442609 .981583
7 1 .505018 .472030 .008699
ITEM: TIMESTEP
300
ITEM: NUMBER OF ATOMS
7
ITEM: BOX BOUNDS ss ss ss
-3.3576 2.9078
-2.7410 3.4303
-2.0678 1.9252
ITEM: ATOMS id type xs ys zs
1 1 .489008 .994867 .575534
2 1 .985990 .649798 .491665
3 1 .832897 .050254 .468270
4 1 .224062 .012566 .488640
5 1 .012642 .597897 .504279
6 1 .508203 .444688 .980957
7 1 .506314 .473139 .008501
ITEM: TIMESTEP
350
ITEM: NUMBER OF ATOMS
7
ITEM: BOX BOUNDS ss ss ss
-3.3562 2.9011
-2.7449 3.4267
-2.0741 1.9324
ITEM: ATOMS id type xs ys zs
1 1 .489614 .988417 .571645
2 1 .989155 .648618 .497519
3 1 .830755 .047129 .464810
4 1 .228021 .007501 .478788
5 1 .015535 .603697 .500432
6 1 .507194 .440612 .986124
7 1 .505227 .469449 .009425
ITEM: TIMESTEP
400
ITEM: NUMBER OF ATOMS
7
ITEM: BOX BOUNDS ss ss ss
-3.3504 2.9066
-2.7396 3.4290
-2.0758 1.9451
ITEM: ATOMS id type xs ys zs
1 1 .487727 .987284 .575111
2 1 .992533 .644916 .485234
3 1 .832533 .046044 .463901
4 1 .223685 .009911 .478431
5 1 .007306 .599390 .490511
6 1 .503889 .443862 .980852
7 1 .503620 .471429 .012278
ITEM: TIMESTEP
450
ITEM: NUMBER OF ATOMS
7
ITEM: BOX BOUNDS ss ss ss
-3.3551 2.9068
-2.7466 3.4324
-2.0738 1.9376
ITEM: ATOMS id type xs ys zs
1 1 .488552 .988531 .575828
2 1 .990431 .647402 .477844
3 1 .833080 .047195 .465863
4 1 .223293 .011914 .486231
5 1 .005637 .600906 .497601
6 1 .507913 .442500 .983522
7 1 .502040 .469381 .011574
ITEM: TIMESTEP
500
ITEM: NUMBER OF ATOMS
7
ITEM: BOX BOUNDS ss ss ss
-3.3574 2.9091
-2.7421 3.4240
-2.0746 1.9199
ITEM: ATOMS id type xs ys zs
1 1 .488608 .991189 .580980
2 1 .991956 .646867 .476579
3 1 .832592 .046737 .469472
4 1 .224068 .010638 .489461
5 1 .005675 .602586 .497061
6 1 .507361 .442343 .989614
7 1 .501695 .470441 .013114
ITEM: TIMESTEP
550
ITEM: NUMBER OF ATOMS
7
ITEM: BOX BOUNDS ss ss ss
-3.3512 2.9115
-2.7352 3.4334
-2.0697 1.9159
ITEM: ATOMS id type xs ys zs
1 1 .485975 .993403 .570566
2 1 .988217 .646219 .486540
3 1 .831172 .045619 .471678
4 1 .222718 .011874 .483472
5 1 .012877 .598783 .496175
6 1 .504918 .442887 .990475
7 1 .500719 .468517 .011263
ITEM: TIMESTEP
600
ITEM: NUMBER OF ATOMS
7
ITEM: BOX BOUNDS ss ss ss
-3.3529 2.8967
-2.7234 3.4081
-2.0881 1.9182
ITEM: ATOMS id type xs ys zs
1 1 .490916 .991128 .584555
2 1 .992965 .649145 .492084
3 1 .835100 .047722 .474178
4 1 .226073 .006727 .489411
5 1 .008392 .604342 .504056
6 1 .504228 .440476 .989736
7 1 .502912 .473778 .020384
ITEM: TIMESTEP
650
ITEM: NUMBER OF ATOMS
7
ITEM: BOX BOUNDS ss ss ss
-3.3565 2.9103
-2.7245 3.4176
-2.0822 1.9204
ITEM: ATOMS id type xs ys zs
1 1 .488975 .985822 .573486
2 1 .993280 .643371 .489194
3 1 .831690 .047710 .464255
4 1 .223797 .007608 .492711
5 1 .010776 .603368 .496122
6 1 .503291 .439515 .987475
7 1 .503777 .469243 .014727
ITEM: TIMESTEP
700
ITEM: NUMBER OF ATOMS
7
ITEM: BOX BOUNDS ss ss ss
-3.3530 2.9060
-2.7271 3.4191
-2.0822 1.9278
ITEM: ATOMS id type xs ys zs
1 1 .485318 .991514 .581927
2 1 .989281 .648061 .482859
3 1 .832824 .046814 .474015
4 1 .224290 .007837 .487069
5 1 .005780 .602796 .502972
6 1 .505387 .442430 .983445
7 1 .500168 .470205 .010753
ITEM: TIMESTEP
750
ITEM: NUMBER OF ATOMS
7
ITEM: BOX BOUNDS ss ss ss
-3.3540 2.9081
-2.7363 3.4203
-2.0837 1.9169
ITEM: ATOMS id type xs ys zs
1 1 .483893 .987275 .574950
2 1 .986100 .647270 .480510
3 1 .831533 .043954 .479031
4 1 .225751 .011721 .486589
5 1 .006341 .604501 .505921
6 1 .507623 .442217 .987129
7 1 .498640 .472021 .014485
ITEM: TIMESTEP
800
ITEM: NUMBER OF ATOMS
7
ITEM: BOX BOUNDS ss ss ss
-3.3566 2.9022
-2.7273 3.4258
-2.0843 1.9176
ITEM: ATOMS id type xs ys zs
1 1 .493036 .989686 .580401
2 1 .988932 .640563 .495846
3 1 .831208 .041014 .481102
4 1 .222624 .011195 .488061
5 1 .010126 .604496 .503240
6 1 .506527 .442553 .990495
7 1 .500845 .465991 .012986
ITEM: TIMESTEP
850
ITEM: NUMBER OF ATOMS
7
ITEM: BOX BOUNDS ss ss ss
-3.3582 2.9007
-2.7219 3.4139
-2.0777 1.9170
ITEM: ATOMS id type xs ys zs
1 1 .489325 .988780 .578552
2 1 .990176 .648860 .478888
3 1 .836181 .046074 .471773
4 1 .225153 .008464 .486153
5 1 .008152 .605077 .509268
6 1 .509117 .438501 .988326
7 1 .504340 .468953 .016401
ITEM: TIMESTEP
900
ITEM: NUMBER OF ATOMS
7
ITEM: BOX BOUNDS ss ss ss
-3.3573 2.8962
-2.7254 3.4181
-2.0766 1.9152
ITEM: ATOMS id type xs ys zs
1 1 .482892 .989468 .579354
2 1 .985632 .645952 .486667
3 1 .829812 .045444 .470961
4 1 .222204 .009169 .477420
5 1 .010815 .598871 .499594
6 1 .508583 .440148 .984276
7 1 .501370 .462305 .011226
ITEM: TIMESTEP
1
ITEM: NUMBER OF ATOMS
7
ITEM: BOX BOUNDS ss ss ss
-3.3496 2.8963
-2.7241 3.4135
-2.0776 1.9201
ITEM: ATOMS id type xs ys zs
1 1 .491585 .995608 .571268
2 1 .991135 .643428 .495831
3 1 .834769 .042482 .469587
4 1 .226314 .008722 .485143
5 1 .008547 .597544 .502775
6 1 .509879 .443668 .989343
7 1 .502581 .471586 .016953
ITEM: TIMESTEP
50
ITEM: NUMBER OF ATOMS
7
ITEM: BOX BOUNDS ss ss ss
-3.3496 2.8963
-2.7241 3.4191
-2.0776 1.9201
ITEM: ATOMS id type xs ys zs
1 1 .490315 .993970 .570457
2 1 .990307 .644763 .499211
3 1 .832180 .042552 .469402
4 1 .225493 .007991 .490249
5 1 .009799 .595980 .502605
6 1 .509832 .443240 .990212
7 1 .500150 .471346 .018212
ITEM: TIMESTEP
100
ITEM: NUMBER OF ATOMS
7
ITEM: BOX BOUNDS ss ss ss
-3.3496 2.8963
-2.7241 3.4304
-2.0776 1.9201
ITEM: ATOMS id type xs ys zs
1 1 .492101 .991849 .575864
2 1 .989369 .643246 .494672
3 1 .831364 .045326 .471437
4 1 .223996 .007408 .486273
5 1 .006755 .595970 .503595
6 1 .507305 .442428 .989131
7 1 .499814 .468402 .012190
ITEM: TIMESTEP
150
ITEM: NUMBER OF ATOMS
7
ITEM: BOX BOUNDS ss ss ss
-3.3496 2.8963
-2.7257 3.4392
-2.0776 1.9219
ITEM: ATOMS id type xs ys zs
1 1 .493505 .993361 .574635
2 1 .988304 .642627 .494316
3 1 .830321 .045641 .470060
4 1 .224031 .007143 .486051
5 1 .006056 .594488 .504341
6 1 .506023 .443669 .985041
7 1 .500675 .465946 .007582
ITEM: TIMESTEP
200
ITEM: NUMBER OF ATOMS
7
ITEM: BOX BOUNDS ss ss ss
-3.3541 2.8963
-2.7275 3.4425
-2.0776 1.9253
ITEM: ATOMS id type xs ys zs
1 1 .491425 .989208 .570328
2 1 .992741 .641317 .496164
3 1 .835743 .044676 .474055
4 1 .225632 .007560 .485326
5 1 .005880 .598042 .507234
6 1 .512195 .443680 .995761
7 1 .503136 .470902 .019758
ITEM: TIMESTEP
250
ITEM: NUMBER OF ATOMS
7
ITEM: BOX BOUNDS ss ss ss
-3.3496 2.8963
-2.7235 3.4250
-2.0691 1.9263
ITEM: ATOMS id type xs ys zs
1 1 .486995 .994222 .577221
2 1 .992003 .644395 .494089
3 1 .836691 .044699 .463877
4 1 .228671 .007378 .485163
5 1 .010374 .599150 .505195
6 1 .511255 .443405 .986489
7 1 .504419 .468472 .017224
ITEM: TIMESTEP
300
ITEM: NUMBER OF ATOMS
7
ITEM: BOX BOUNDS ss ss ss
-3.3496 2.8939
-2.7190 3.4228
-2.0691 1.9345
ITEM: ATOMS id type xs ys zs
1 1 .488610 .993520 .566444