ITEM: TIMESTEP
1
ITEM: NUMBER OF ATOMS
7
ITEM: BOX BOUNDS ss ss ss
-3.2997 2.8430
-2.6758 3.3913
-2.0136 1.8823
ITEM: ATOMS id type xs ys zs
1 1 .491986 .999348 .569723
2 1 .999406 .643042 .492447
3 1 .840696 .035325 .465254
4 1 .221878 .000713 .481368
5 1 .000589 .596323 .499871
6 1 .510339 .441138 .999036
7 1 .503048 .468891 .001088
ITEM: TIMESTEP
50
ITEM: NUMBER OF ATOMS
7
ITEM: BOX BOUNDS ss ss ss
-3.3238 2.8643
-2.7001 3.4163
-2.0340 1.9044
ITEM: ATOMS id type xs ys zs
1 1 .492368 .995392 .569309
2 1 .995921 .641830 .492065
3 1 .838411 .038990 .465462
4 1 .224249 .004549 .481605
5 1 .004509 .595543 .499402
6 1 .510320 .441619 .993232
7 1 .503213 .469021 .006195
ITEM: TIMESTEP
100
ITEM: NUMBER OF ATOMS
7
ITEM: BOX BOUNDS ss ss ss
-3.3301 2.8749
-2.7085 3.4235
-2.0453 1.9147
ITEM: ATOMS id type xs ys zs
1 1 .491683 .993654 .569318
2 1 .994663 .641625 .492065
3 1 .837095 .040468 .465971
4 1 .224662 .006022 .482106
5 1 .005568 .595701 .499769
6 1 .509771 .441775 .990260
7 1 .503077 .469277 .008712
ITEM: TIMESTEP
150
ITEM: NUMBER OF ATOMS
7
ITEM: BOX BOUNDS ss ss ss
-3.3373 2.8793
-2.7145 3.4170
-2.0567 1.9224
ITEM: ATOMS id type xs ys zs
1 1 .491404 .993746 .569508
2 1 .994607 .642822 .492456
3 1 .836644 .041747 .467123
4 1 .225149 .007293 .482947
5 1 .006588 .597108 .500392
6 1 .509896 .442561 .988148
7 1 .503563 .470485 .011441
ITEM: TIMESTEP
200
ITEM: NUMBER OF ATOMS
7
ITEM: BOX BOUNDS ss ss ss
-3.3375 2.8858
-2.7160 3.4162
-2.0652 1.9207
ITEM: ATOMS id type xs ys zs
1 1 .490263 .992803 .570190
2 1 .994018 .643318 .493819
3 1 .835964 .042246 .468849
4 1 .224729 .008043 .484634
5 1 .006597 .597791 .502155
6 1 .509488 .442426 .988738
7 1 .503407 .470814 .013930
ITEM: TIMESTEP
250
ITEM: NUMBER OF ATOMS
7
ITEM: BOX BOUNDS ss ss ss
-3.3444 2.8866
-2.7142 3.4089
-2.0591 1.9313
ITEM: ATOMS id type xs ys zs
1 1 .489924 .993049 .567459
2 1 .994332 .644350 .492003
3 1 .836356 .042244 .466747
4 1 .225457 .008481 .482916
5 1 .007636 .598602 .500713
6 1 .510248 .442561 .986368
7 1 .504287 .471357 .012564
ITEM: TIMESTEP
300
ITEM: NUMBER OF ATOMS
7
ITEM: BOX BOUNDS ss ss ss
-3.3505 2.8978
-2.7236 3.4115
-2.0614 1.9321
ITEM: ATOMS id type xs ys zs
1 1 .488882 .991581 .567474
2 1 .992904 .644803 .492681
3 1 .835441 .044230 .467002
4 1 .225601 .010996 .483181
5 1 .008478 .599224 .500983
6 1 .509990 .442917 .986718
7 1 .504194 .472390 .012706
ITEM: TIMESTEP
350
ITEM: NUMBER OF ATOMS
7
ITEM: BOX BOUNDS ss ss ss
-3.3475 2.9032
-2.7063 3.4094
-2.0686 1.9331
ITEM: ATOMS id type xs ys zs
1 1 .488083 .990761 .567479
2 1 .992590 .643719 .493803
3 1 .834755 .041916 .467922
4 1 .224917 .008901 .484213
5 1 .007953 .598650 .501974
6 1 .509440 .441132 .987151
7 1 .503587 .471388 .014072
ITEM: TIMESTEP
400
ITEM: NUMBER OF ATOMS
7
ITEM: BOX BOUNDS ss ss ss
-3.3509 2.9099
-2.7124 3.3995
-2.0724 1.9368
ITEM: ATOMS id type xs ys zs
1 1 .488026 .991438 .566277
2 1 .992100 .644842 .494058
3 1 .834006 .042996 .467799
4 1 .224990 .010247 .484779
5 1 .008562 .600425 .502694
6 1 .509480 .442079 .986828
7 1 .503395 .472596 .014951
ITEM: TIMESTEP
1
ITEM: NUMBER OF ATOMS
7
ITEM: BOX BOUNDS ss ss ss
-3.3487 2.9041
-2.6995 3.3914
-2.0563 1.9359
ITEM: ATOMS id type xs ys zs
1 1 .491160 .999341 .566682
2 1 .989640 .644424 .491269
3 1 .833726 .039076 .464725
4 1 .225803 .004600 .480453
5 1 .008407 .597889 .498505
6 1 .509181 .443310 .985628
7 1 .502020 .470952 .011762
ITEM: TIMESTEP
50
ITEM: NUMBER OF ATOMS
7
ITEM: BOX BOUNDS ss ss ss
-3.3487 2.9041
-2.6995 3.4177
-2.0563 1.9359
ITEM: ATOMS id type xs ys zs
1 1 .491311 .995291 .567338
2 1 .989524 .641625 .491002
3 1 .833720 .038850 .464729
4 1 .225943 .004384 .480687
5 1 .008470 .595319 .498175
6 1 .509042 .441500 .985414
7 1 .501981 .468865 .011689
ITEM: TIMESTEP
100
ITEM: NUMBER OF ATOMS
7
ITEM: BOX BOUNDS ss ss ss
-3.3487 2.9030
-2.7102 3.4255
-2.0563 1.9359
ITEM: ATOMS id type xs ys zs
1 1 .491068 .993405 .567751
2 1 .990111 .641548 .490714
3 1 .833885 .040649 .464875
4 1 .225984 .006156 .481079
5 1 .008568 .595594 .498311
6 1 .508913 .441840 .984827
7 1 .502260 .469270 .011418
ITEM: TIMESTEP
150
ITEM: NUMBER OF ATOMS
7
ITEM: BOX BOUNDS ss ss ss
-3.3487 2.9030
-2.7186 3.4169
-2.0492 1.9359
ITEM: ATOMS id type xs ys zs
1 1 .490326 .993717 .566485
2 1 .990630 .643211 .489972
3 1 .834137 .042344 .464029
4 1 .225800 .007862 .480327
5 1 .008720 .597441 .498007
6 1 .508770 .443044 .984366
7 1 .502573 .470784 .009493
ITEM: TIMESTEP
200
ITEM: NUMBER OF ATOMS
7
ITEM: BOX BOUNDS ss ss ss
-3.3487 2.9023
-2.7153 3.4174
-2.0528 1.9359
ITEM: ATOMS id type xs ys zs
1 1 .489165 .992301 .564194
2 1 .991098 .643396 .490952
3 1 .835056 .042021 .463973
4 1 .225738 .007669 .480923
5 1 .008840 .597644 .498693
6 1 .508857 .442285 .984432
7 1 .503158 .469957 .010573
ITEM: TIMESTEP
250
ITEM: NUMBER OF ATOMS
7
ITEM: BOX BOUNDS ss ss ss
-3.3438 2.9003
-2.7145 3.4123
-2.0610 1.9289
ITEM: ATOMS id type xs ys zs
1 1 .487635 .991813 .563235
2 1 .991840 .644006 .493463
3 1 .835885 .041931 .464780
4 1 .225262 .008015 .483314
5 1 .007746 .598229 .500491
6 1 .508957 .442244 .986238
7 1 .503177 .469946 .012192
ITEM: TIMESTEP
300
ITEM: NUMBER OF ATOMS
7
ITEM: BOX BOUNDS ss ss ss
-3.3456 2.9003
-2.7104 3.4020
-2.0666 1.9180
ITEM: ATOMS id type xs ys zs
1 1 .487182 .992011 .562892
2 1 .992874 .644627 .495452
3 1 .836183 .041139 .466479
4 1 .225844 .008608 .485734
5 1 .007864 .598672 .502751
6 1 .510506 .442690 .987942
7 1 .503941 .470336 .011567
ITEM: TIMESTEP
350
ITEM: NUMBER OF ATOMS
7
ITEM: BOX BOUNDS ss ss ss
-3.3550 2.9086
-2.7066 3.3972
-2.0754 1.9168
ITEM: ATOMS id type xs ys zs
1 1 .487260 .991826 .562126
2 1 .992354 .644802 .496278
3 1 .835355 .040737 .467828
4 1 .226915 .008757 .486975
5 1 .009617 .598763 .503800
6 1 .511502 .442766 .987852
7 1 .504656 .470356 .012529
ITEM: TIMESTEP
400
ITEM: NUMBER OF ATOMS
7
ITEM: BOX BOUNDS ss ss ss
-3.3470 2.9048
-2.7034 3.3893
-2.0757 1.9182
ITEM: ATOMS id type xs ys zs
1 1 .486566 .992435 .560438
2 1 .993428 .645705 .496108
3 1 .835578 .040464 .467692
4 1 .225879 .008550 .486549
5 1 .008458 .599266 .503445
6 1 .511436 .442834 .987794
7 1 .504826 .470674 .012659
ITEM: TIMESTEP
1
ITEM: NUMBER OF ATOMS
7
ITEM: BOX BOUNDS ss ss ss
-3.3388 2.9169
-2.6956 3.3914
-2.0737 1.9155
ITEM: ATOMS id type xs ys zs
1 1 .489346 .999348 .571468
2 1 .987589 .644199 .495995
3 1 .831750 .038469 .469440
4 1 .224118 .003971 .485182
5 1 .006827 .597637 .503240
6 1 .507364 .442959 .990722
7 1 .500205 .470622 .016144
ITEM: TIMESTEP
50
ITEM: NUMBER OF ATOMS
7
ITEM: BOX BOUNDS ss ss ss
-3.3388 2.9169
-2.7046 3.4179
-2.0737 1.9155
ITEM: ATOMS id type xs ys zs
1 1 .489596 .995378 .572208
2 1 .987406 .641927 .495637
3 1 .831763 .039635 .469451
4 1 .224282 .005187 .485417
5 1 .006881 .595626 .502784
6 1 .507191 .441971 .990569
7 1 .500085 .469246 .016113
ITEM: TIMESTEP
100
ITEM: NUMBER OF ATOMS
7
ITEM: BOX BOUNDS ss ss ss
-3.3385 2.9169
-2.7068 3.4245
-2.0737 1.9155
ITEM: ATOMS id type xs ys zs
1 1 .489283 .993889 .572691
2 1 .987692 .641461 .495214
3 1 .831741 .039986 .469567
4 1 .224391 .005589 .485769
5 1 .006871 .595435 .502812
6 1 .506846 .441782 .990075
7 1 .500216 .469003 .015856
ITEM: TIMESTEP
150
ITEM: NUMBER OF ATOMS
7
ITEM: BOX BOUNDS ss ss ss
-3.3417 2.9169
-2.7139 3.4233
-2.0737 1.9271
ITEM: ATOMS id type xs ys zs
1 1 .488877 .993283 .570910
2 1 .988186 .642281 .493387
3 1 .831906 .041308 .468210
4 1 .224916 .007061 .484694
5 1 .007271 .596589 .501763
6 1 .506796 .442656 .986963
7 1 .500696 .470173 .015738
ITEM: TIMESTEP
200
ITEM: NUMBER OF ATOMS
7
ITEM: BOX BOUNDS ss ss ss
-3.3407 2.9169
-2.7178 3.4219
-2.0737 1.9186
ITEM: ATOMS id type xs ys zs
1 1 .488081 .992849 .571817
2 1 .988738 .643442 .494294
3 1 .832047 .042683 .469042
4 1 .224841 .008151 .485654
5 1 .006980 .597749 .503668
6 1 .506596 .442883 .988617
7 1 .500874 .471084 .015546
ITEM: TIMESTEP
250
ITEM: NUMBER OF ATOMS
7
ITEM: BOX BOUNDS ss ss ss
-3.3454 2.9169
-2.7258 3.4218
-2.0737 1.9162
ITEM: ATOMS id type xs ys zs
1 1 .487828 .992312 .572194
2 1 .989194 .644546 .494368
3 1 .832293 .044704 .469466
4 1 .225158 .009870 .485993
5 1 .007833 .598830 .504342
6 1 .507110 .443393 .989004
7 1 .501459 .472190 .014992
ITEM: TIMESTEP
300
ITEM: NUMBER OF ATOMS
7
ITEM: BOX BOUNDS ss ss ss
-3.3455 2.9169
-2.7111 3.4211
-2.0737 1.9196
ITEM: ATOMS id type xs ys zs
1 1 .487211 .991673 .571947
2 1 .989464 .643952 .493330
3 1 .832507 .043014 .469441
4 1 .224998 .007908 .485399
5 1 .007679 .598038 .504155
6 1 .507363 .441978 .988372
7 1 .501412 .471157 .014807
ITEM: TIMESTEP
350
ITEM: NUMBER OF ATOMS
7
ITEM: BOX BOUNDS ss ss ss
-3.3501 2.9169
-2.7128 3.4157
-2.0737 1.9204
ITEM: ATOMS id type xs ys zs
1 1 .486658 .991632 .572080
2 1 .989665 .644739 .492834
3 1 .832897 .043716 .469500
4 1 .225657 .008808 .485329
5 1 .008142 .598408 .504754
6 1 .508184 .442458 .989155
7 1 .501651 .471856 .015192
ITEM: TIMESTEP
400
ITEM: NUMBER OF ATOMS
7
ITEM: BOX BOUNDS ss ss ss
-3.3481 2.9169
-2.7125 3.4117
-2.0737 1.9311
ITEM: ATOMS id type xs ys zs
1 1 .485856 .991691 .569704
2 1 .989828 .645184 .491255
3 1 .832979 .043902 .468331
4 1 .225327 .009281 .484264
5 1 .007577 .598751 .504643
6 1 .508266 .442886 .987170
7 1 .501278 .472047 .015513
ITEM: TIMESTEP
1
ITEM: NUMBER OF ATOMS
7
ITEM: BOX BOUNDS ss ss ss
-3.3467 2.9169
-2.6973 3.4055
-2.0607 1.9361
ITEM: ATOMS id type xs ys zs
1 1 .489988 .997036 .567131
2 1 .987605 .642806 .491802
3 1 .831959 .038644 .465293
4 1 .225091 .004235 .481006
5 1 .008072 .596361 .499028
6 1 .507979 .442087 .985602
7 1 .500829 .469674 .012844
ITEM: TIMESTEP
50
ITEM: NUMBER OF ATOMS
7
ITEM: BOX BOUNDS ss ss ss
-3.3467 2.9169
-2.6985 3.4182
-2.0607 1.9361
ITEM: ATOMS id type xs ys zs
1 1 .490305 .995465 .568052
2 1 .987373 .641484 .491371
3 1 .831961 .038640 .465317
4 1 .225246 .004125 .481303
5 1 .008112 .595159 .498475
6 1 .507818 .441451 .985404
7 1 .500703 .468655 .012754
ITEM: TIMESTEP
100
ITEM: NUMBER OF ATOMS
7
ITEM: BOX BOUNDS ss ss ss
-3.3467 2.9169
-2.7113 3.4282
-2.0607 1.9361
ITEM: ATOMS id type xs ys zs
1 1 .490130 .993516 .568754
2 1 .987634 .641145 .490964
3 1 .831937 .040577 .465591
4 1 .225381 .006055 .481845
5 1 .008060 .595326 .498478
6 1 .507441 .441955 .984875
7 1 .500718 .468978 .012499
ITEM: TIMESTEP
150
ITEM: NUMBER OF ATOMS
7
ITEM: BOX BOUNDS ss ss ss
-3.3467 2.9169
-2.7164 3.4298
-2.0607 1.9361
ITEM: ATOMS id type xs ys zs
1 1 .489674 .992478 .569091
2 1 .988102 .641183 .490842
3 1 .831898 .041393 .465836
4 1 .225362 .007132 .482293
5 1 .008170 .596142 .498219
6 1 .507207 .442086 .984172
7 1 .501049 .469365 .011918
ITEM: TIMESTEP
200
ITEM: NUMBER OF ATOMS
7
ITEM: BOX BOUNDS ss ss ss
-3.3467 2.9169
-2.7285 3.4261
-2.0663 1.9361
ITEM: ATOMS id type xs ys zs
1 1 .489433 .992323 .569581
2 1 .988677 .641989 .491760
3 1 .831829 .043252 .466581
4 1 .225246 .009488 .483453
5 1 .008360 .597847 .498872
6 1 .507322 .443236 .983800
7 1 .501596 .470832 .012806
ITEM: TIMESTEP
250
ITEM: NUMBER OF ATOMS
7
ITEM: BOX BOUNDS ss ss ss
-3.3467 2.9169
-2.7275 3.4214
-2.0607 1.9248
ITEM: ATOMS id type xs ys zs
1 1 .488895 .992322 .570592
2 1 .989370 .642239 .492792
3 1 .831896 .043129 .467471
4 1 .224844 .009732 .484346
5 1 .008401 .598837 .500012
6 1 .507867 .443269 .986227
7 1 .501740 .471148 .011411
ITEM: TIMESTEP
300
ITEM: NUMBER OF ATOMS
7
ITEM: BOX BOUNDS ss ss ss
-3.3466 2.9169
-2.7287 3.4172
-2.0766 1.9232
ITEM: ATOMS id type xs ys zs
1 1 .487981 .991868 .572529
2 1 .989860 .642903 .495773
3 1 .831926 .043591 .469871
4 1 .224433 .010340 .486755
5 1 .008506 .599826 .502696
6 1 .508222 .443173 .986703
7 1 .502072 .471561 .015184
ITEM: TIMESTEP
350
ITEM: NUMBER OF ATOMS
7
ITEM: BOX BOUNDS ss ss ss
-3.3466 2.9169
-2.7282 3.4146
-2.0762 1.9204
ITEM: ATOMS id type xs ys zs
1 1 .487509 .991362 .572668
2 1 .989899 .643511 .496599
3 1 .832057 .043678 .469398
4 1 .224363 .010674 .486933
5 1 .008593 .600253 .503130
6 1 .508298 .442714 .987907
7 1 .502374 .471862 .014836
ITEM: TIMESTEP
400
ITEM: NUMBER OF ATOMS
7
ITEM: BOX BOUNDS ss ss ss
-3.3480 2.9169
-2.7301 3.4150
-2.0777 1.9285
ITEM: ATOMS id type xs ys zs
1 1 .487308 .990765 .571361
2 1 .990380 .643947 .496113
3 1 .831980 .044047 .467696
4 1 .224308 .011104 .485173
5 1 .008785 .600361 .502239
6 1 .508547 .442119 .986464
7 1 .502986 .472594 .015841
ITEM: TIMESTEP
1
ITEM: NUMBER OF ATOMS
7
ITEM: BOX BOUNDS ss ss ss
-3.3408 2.9120
-2.7044 3.3971
-2.0600 1.9304
ITEM: ATOMS id type xs ys zs
1 1 .489896 .998421 .567869
2 1 .988375 .644114 .492412
3 1 .832462 .039819 .465863
4 1 .224537 .005400 .481602
5 1 .007142 .597656 .499646
6 1 .507918 .443350 .986992
7 1 .500757 .470942 .012703
ITEM: TIMESTEP
50
ITEM: NUMBER OF ATOMS
7
ITEM: BOX BOUNDS ss ss ss
-3.3408 2.9120
-2.7044 3.4157
-2.0600 1.9304
ITEM: ATOMS id type xs ys zs
1 1 .490251 .995950 .568845
2 1 .988092 .642092 .491994
3 1 .832458 .039610 .465882
4 1 .224727 .005053 .481941
5 1 .007206 .595769 .499032
6 1 .507715 .442173 .986814
7 1 .500598 .469340 .012679
ITEM: TIMESTEP
100
ITEM: NUMBER OF ATOMS
7
ITEM: BOX BOUNDS ss ss ss
-3.3408 2.9110
-2.7153 3.4273
-2.0600 1.9304
ITEM: ATOMS id type xs ys zs
1 1 .490245 .993854 .569557
2 1 .988508 .641521 .491724
3 1 .832537 .041289 .466030
4 1 .224839 .006670 .482431
5 1 .007202 .595527 .498851
6 1 .507394 .442423 .986233
7 1 .500766 .469292 .012543
ITEM: TIMESTEP
150
ITEM: NUMBER OF ATOMS
7
ITEM: BOX BOUNDS ss ss ss
-3.3421 2.9103
-2.7200 3.4299
-2.0600 1.9304
ITEM: ATOMS id type xs ys zs
1 1 .489907 .992772 .569413
2 1 .988955 .641453 .491504
3 1 .832745 .042054 .465767
4 1 .225008 .007605 .483211
5 1 .007264 .595938 .498673
6 1 .507317 .442664 .985630
7 1 .501098 .469496 .012409
ITEM: TIMESTEP
200
ITEM: NUMBER OF ATOMS
7
ITEM: BOX BOUNDS ss ss ss
-3.3454 2.9038
-2.7230 3.4279
-2.0607 1.9304
ITEM: ATOMS id type xs ys zs
1 1 .489785 .991910 .568542
2 1 .990495 .641582 .491429
3 1 .833658 .042421 .465433
4 1 .225551 .008636 .484220
5 1 .007623 .596829 .498027
6 1 .508177 .442781 .985449
7 1 .502125 .470057 .012261
ITEM: TIMESTEP
250
ITEM: NUMBER OF ATOMS
7
ITEM: BOX BOUNDS ss ss ss
-3.3420 2.9038
-2.7212 3.4217
-2.0600 1.9183
ITEM: ATOMS id type xs ys zs
1 1 .488627 .991318 .569498
2 1 .991244 .641847 .491897
3 1 .833603 .042267 .468703
4 1 .223796 .009241 .484905
5 1 .006525 .598250 .500275
6 1 .508065 .442273 .988127
7 1 .501675 .470190 .012928
ITEM: TIMESTEP
300
ITEM: NUMBER OF ATOMS
7
ITEM: BOX BOUNDS ss ss ss
-3.3458 2.9094
-2.7123 3.4050
-2.0627 1.9162
ITEM: ATOMS id type xs ys zs
1 1 .488304 .993129 .569467
2 1 .990756 .643101 .491365
3 1 .833012 .041266 .471043
4 1 .222659 .007966 .484502
5 1 .006883 .600280 .502379
6 1 .507808 .442124 .988521
7 1 .501081 .470171 .014010
ITEM: TIMESTEP
350
ITEM: NUMBER OF ATOMS
7
ITEM: BOX BOUNDS ss ss ss
-3.3515 2.9038
-2.7088 3.4100
-2.0657 1.9243
ITEM: ATOMS id type xs ys zs
1 1 .489131 .991585 .568206
2 1 .992066 .642490 .490055
3 1 .833642 .040860 .470790
4 1 .223097 .007243 .483489
5 1 .007746 .599983 .502794
6 1 .508678 .441039 .986702
7 1 .501806 .469273 .014586
ITEM: TIMESTEP
400
ITEM: NUMBER OF ATOMS
7
ITEM: BOX BOUNDS ss ss ss
-3.3524 2.9123
-2.7103 3.4027
-2.0643 1.9303
ITEM: ATOMS id type xs ys zs
1 1 .488252 .991928 .566712
2 1 .991214 .643084 .489089
3 1 .832510 .041166 .469848
4 1 .222976 .007757 .482229
5 1 .007934 .600970 .503010
6 1 .508226 .441566 .985694
7 1 .501240 .469986 .014134
ITEM: TIMESTEP
1
ITEM: NUMBER OF ATOMS
7
ITEM: BOX BOUNDS ss ss ss
-3.3518 2.9144
-2.7092 3.3915
-2.0599 1.9334
ITEM: ATOMS id type xs ys zs
1 1 .490611 .999328 .567428
2 1 .988020 .644975 .492021
3 1 .832437 .040604 .465492
4 1 .225822 .006182 .481217
5 1 .008893 .598515 .499254
6 1 .508590 .444190 .986253
7 1 .501445 .471785 .012652
ITEM: TIMESTEP
50
ITEM: NUMBER OF ATOMS
7
ITEM: BOX BOUNDS ss ss ss
-3.3518 2.9096
-2.7092 3.4162
-2.0599 1.9334
ITEM: ATOMS id type xs ys zs
1 1 .491399 .995916 .568427
2 1 .988491 .642322 .491573
3 1 .833073 .040314 .465511
4 1 .226197 .005817 .481548
5 1 .008941 .596029 .498601
6 1 .508776 .442591 .986094
7 1 .501650 .469714 .012569
ITEM: TIMESTEP
100
ITEM: NUMBER OF ATOMS
7
ITEM: BOX BOUNDS ss ss ss
-3.3518 2.9096
-2.7182 3.4271
-2.0599 1.9300
ITEM: ATOMS id type xs ys zs
1 1 .491212 .993948 .569531
2 1 .988744 .641691 .491713
3 1 .833015 .041631 .465955
4 1 .226344 .007144 .482271
5 1 .009003 .595870 .499080
6 1 .508433 .442734 .986271
7 1 .501738 .469709 .012236
ITEM: TIMESTEP
150
ITEM: NUMBER OF ATOMS
7
ITEM: BOX BOUNDS ss ss ss
-3.3518 2.9096
-2.7178 3.4337
-2.0550 1.9300
ITEM: ATOMS id type xs ys zs
1 1 .490795 .992340 .569239
2 1 .989157 .640866 .490712
3 1 .832997 .041492 .465460
4 1 .226362 .007231 .481773
5 1 .008991 .595628 .498823
6 1 .508386 .442155 .985622
7 1 .501821 .469488 .010439
ITEM: TIMESTEP
200
ITEM: NUMBER OF ATOMS
7
ITEM: BOX BOUNDS ss ss ss
-3.3450 2.9096
-2.7197 3.4279
-2.0587 1.9300
ITEM: ATOMS id type xs ys zs
1 1 .489710 .992575 .569447
2 1 .989560 .641530 .490609
3 1 .832681 .041915 .466651
4 1 .225350 .007749 .481714
5 1 .007986 .596687 .499264
6 1 .507874 .442587 .985369
7 1 .501281 .469985 .011082
ITEM: TIMESTEP
250
ITEM: NUMBER OF ATOMS
7
ITEM: BOX BOUNDS ss ss ss
-3.3443 2.9096
-2.7246 3.4417
-2.0592 1.9267
ITEM: ATOMS id type xs ys zs
1 1 .488943 .989769 .569730
2 1 .989439 .640678 .490798
3 1 .832282 .042614 .468269
4 1 .224704 .008627 .481560
5 1 .008077 .596081 .500360
6 1 .507863 .441618 .986302
7 1 .501295 .468794 .011013
ITEM: TIMESTEP
300
ITEM: NUMBER OF ATOMS
7
ITEM: BOX BOUNDS ss ss ss
-3.3429 2.9095
-2.7303 3.4245
-2.0654 1.9267
ITEM: ATOMS id type xs ys zs
1 1 .487504 .991725 .569995
2 1 .988555 .643221 .491465
3 1 .831829 .043407 .470639
4 1 .223657 .010174 .482076
5 1 .007703 .598790 .502320
6 1 .507646 .442717 .986852
7 1 .500831 .470213 .012482
ITEM: TIMESTEP
350
ITEM: NUMBER OF ATOMS
7
ITEM: BOX BOUNDS ss ss ss
-3.3454 2.9015
-2.7251 3.4181
-2.0662 1.9352
ITEM: ATOMS id type xs ys zs
1 1 .486988 .991614 .569316
2 1 .989619 .643769 .490361
3 1 .832785 .042668 .469472
4 1 .224118 .009502 .482846
5 1 .007349 .598649 .501516
6 1 .508323 .442409 .985604
7 1 .501409 .470684 .012952
ITEM: TIMESTEP
400
ITEM: NUMBER OF ATOMS
7
ITEM: BOX BOUNDS ss ss ss
-3.3508 2.8996
-2.7195 3.4185
-2.0737 1.9318
ITEM: ATOMS id type xs ys zs
1 1 .486865 .990617 .571396
2 1 .990222 .643520 .491855
3 1 .833232 .042269 .470186
4 1 .224939 .008723 .485730
5 1 .007937 .597912 .503084
6 1 .509188 .441649 .987326
7 1 .502064 .470656 .014767
ITEM: TIMESTEP
1
ITEM: NUMBER OF ATOMS
7
ITEM: BOX BOUNDS ss ss ss
-3.3539 2.8816
-2.7092 3.4147
-2.0688 1.9280
ITEM: ATOMS id type xs ys zs
1 1 .493352 .995543 .569164
2 1 .993218 .642529 .493825
3 1 .836871 .040451 .467325
4 1 .227261 .006160 .483033
5 1 .009264 .596244 .501050
6 1 .511430 .442509 .987616
7 1 .504249 .469997 .014883
ITEM: TIMESTEP
50
ITEM: NUMBER OF ATOMS
7
ITEM: BOX BOUNDS ss ss ss
-3.3539 2.8816
-2.7092 3.4246
-2.0688 1.9280
ITEM: ATOMS id type xs ys zs
1 1 .493794 .994643 .570324
2 1 .992860 .641436 .493344
3 1 .836870 .040249 .467354
4 1 .227493 .005759 .483374
5 1 .009329 .595184 .500329
6 1 .511188 .441964 .987428
7 1 .504058 .469058 .014844
ITEM: TIMESTEP
100
ITEM: NUMBER OF ATOMS
7
ITEM: BOX BOUNDS ss ss ss
-3.3539 2.8816
-2.7163 3.4303
-2.0688 1.9264
ITEM: ATOMS id type xs ys zs
1 1 .493749 .993654 .571351
2 1 .993081 .641303 .493118
3 1 .836751 .041252 .467798
4 1 .227585 .006772 .484098
5 1 .009313 .595304 .500429
6 1 .510838 .442347 .987037
7 1 .504170 .469244 .014421
ITEM: TIMESTEP
150
ITEM: NUMBER OF ATOMS
7
ITEM: BOX BOUNDS ss ss ss
-3.3539 2.8851
-2.7190 3.4344
-2.0688 1.9264
ITEM: ATOMS id type xs ys zs
1 1 .492977 .992386 .571422
2 1 .993094 .641290 .492954
3 1 .836061 .041577 .468047
4 1 .227330 .007272 .484904
5 1 .009151 .595590 .500535
6 1 .510368 .442236 .986148
7 1 .504042 .469606 .014081
ITEM: TIMESTEP
200
ITEM: NUMBER OF ATOMS
7
ITEM: BOX BOUNDS ss ss ss
-3.3539 2.8951
-2.7385 3.4312
-2.0688 1.9264
ITEM: ATOMS id type xs ys zs
1 1 .491656 .992542 .571166
2 1 .992049 .642979 .493036
3 1 .834432 .044635 .468407
4 1 .226565 .010410 .485581
5 1 .009418 .598028 .500333
6 1 .509650 .443966 .985555
7 1 .503590 .471694 .013816
ITEM: TIMESTEP
250
ITEM: NUMBER OF ATOMS
7
ITEM: BOX BOUNDS ss ss ss
-3.3539 2.8991
-2.7301 3.4324
-2.0685 1.9264
ITEM: ATOMS id type xs ys zs
1 1 .490905 .992152 .570747
2 1 .992156 .642620 .493085
3 1 .833494 .043268 .469023
4 1 .226004 .009287 .485563
5 1 .009418 .597820 .499684
6 1 .509401 .443259 .984618
7 1 .503702 .471129 .013672
ITEM: TIMESTEP
300
ITEM: NUMBER OF ATOMS
7
ITEM: BOX BOUNDS ss ss ss
-3.3539 2.9094
-2.7287 3.4352
-2.0677 1.9264
ITEM: ATOMS id type xs ys zs
1 1 .489617 .991443 .570351
2 1 .991294 .642281 .492980
3 1 .831952 .043023 .469179
4 1 .225182 .009139 .485255
5 1 .009047 .597191 .499072
6 1 .508420 .443253 .983325
7 1 .503217 .471253 .013294
ITEM: TIMESTEP
350
ITEM: NUMBER OF ATOMS
7
ITEM: BOX BOUNDS ss ss ss
-3.3539 2.9135
-2.7301 3.4347
-2.0713 1.9264
ITEM: ATOMS id type xs ys zs
1 1 .488731 .990997 .570413
2 1 .991322 .642479 .493021
3 1 .831255 .043473 .469325
4 1 .224686 .009652 .484883
5 1 .008679 .596996 .498636
6 1 .508093 .443588 .982611
7 1 .503408 .471782 .013872
ITEM: TIMESTEP
400
ITEM: NUMBER OF ATOMS
7
ITEM: BOX BOUNDS ss ss ss
-3.3636 2.9185
-2.7226 3.4355
-2.0686 1.9200
ITEM: ATOMS id type xs ys zs
1 1 .487810 .990193 .571175
2 1 .990977 .642757 .492724
3 1 .830766 .042462 .470714
4 1 .225741 .008882 .483942
5 1 .010247 .595935 .499224
6 1 .508724 .442810 .984562
7 1 .504454 .470995 .013000
ITEM: TIMESTEP
1
ITEM: NUMBER OF ATOMS
7
ITEM: BOX BOUNDS ss ss ss
-3.3472 2.9135
-2.7157 3.4205
-2.0646 1.9200
ITEM: ATOMS id type xs ys zs
1 1 .490305 .994606 .569859
2 1 .988148 .642306 .494284
3 1 .832434 .041439 .467704
4 1 .225283 .007214 .483464
5 1 .008164 .596113 .501539
6 1 .508304 .442686 .989593
7 1 .501149 .470119 .013879
ITEM: TIMESTEP
50
ITEM: NUMBER OF ATOMS
7
ITEM: BOX BOUNDS ss ss ss
-3.3472 2.9135
-2.7157 3.4205
-2.0646 1.9200
ITEM: ATOMS id type xs ys zs
1 1 .490785 .995346 .571059
2 1 .987758 .642201 .493753
3 1 .832426 .041296 .467695
4 1 .225499 .006779 .483841
5 1 .008245 .595989 .500742
6 1 .508093 .442895 .989412
7 1 .500953 .469903 .013786
ITEM: TIMESTEP
100
ITEM: NUMBER OF ATOMS
7
ITEM: BOX BOUNDS ss ss ss
-3.3472 2.9135
-2.7157 3.4348
-2.0646 1.9200
ITEM: ATOMS id type xs ys zs
1 1 .490798 .993088 .572158
2 1 .987857 .640751 .493214
3 1 .832422 .041186 .467713
4 1 .225611 .006516 .484340
5 1 .008285 .594810 .500419
6 1 .507649 .441953 .988778
7 1 .501050 .468687 .013537
ITEM: TIMESTEP
150
ITEM: NUMBER OF ATOMS
7
ITEM: BOX BOUNDS ss ss ss
-3.3472 2.9135
-2.7207 3.4341
-2.0646 1.9200
ITEM: ATOMS id type xs ys zs
1 1 .490483 .992618 .573279
2 1 .988408 .641250 .492564
3 1 .832531 .042111 .467995
4 1 .225452 .007342 .484733
5 1 .008135 .595653 .499992
6 1 .507313 .442243 .987745
7 1 .501214 .469084 .013074
ITEM: TIMESTEP
200
ITEM: NUMBER OF ATOMS
7
ITEM: BOX BOUNDS ss ss ss
-3.3472 2.9135
-2.7291 3.4418
-2.0692 1.9241
ITEM: ATOMS id type xs ys zs
1 1 .490206 .990662 .574025
2 1 .988934 .640930 .492218
3 1 .832557 .043940 .468098
4 1 .225179 .008663 .485090
5 1 .007877 .595895 .499501
6 1 .507137 .441984 .985901
7 1 .501315 .469315 .013808
ITEM: TIMESTEP
250
ITEM: NUMBER OF ATOMS
7
ITEM: BOX BOUNDS ss ss ss
-3.3517 2.9076
-2.7283 3.4271
-2.0646 1.9262
ITEM: ATOMS id type xs ys zs
1 1 .490556 .992371 .573437
2 1 .990111 .642605 .491860
3 1 .833448 .044443 .467332
4 1 .226068 .008316 .484664
5 1 .008991 .597699 .498932
6 1 .507724 .442480 .985504
7 1 .502523 .470758 .012183
ITEM: TIMESTEP
300
ITEM: NUMBER OF ATOMS
7
ITEM: BOX BOUNDS ss ss ss
-3.3576 2.9078
-2.7410 3.4303
-2.0678 1.9252
ITEM: ATOMS id type xs ys zs
1 1 .490441 .991351 .574445
2 1 .989927 .643427 .493225
3 1 .833568 .046583 .467484
4 1 .227179 .010063 .485434
5 1 .010405 .598687 .500056
6 1 .508027 .443001 .986292
7 1 .503233 .471606 .012286
ITEM: TIMESTEP
350
ITEM: NUMBER OF ATOMS
7
ITEM: BOX BOUNDS ss ss ss
-3.3562 2.9011
-2.7449 3.4267
-2.0741 1.9324
ITEM: ATOMS id type xs ys zs
1 1 .490429 .991446 .575194
2 1 .991135 .644315 .493055
3 1 .834379 .047441 .467290
4 1 .227457 .011031 .485569
5 1 .010147 .599448 .500119
6 1 .508714 .443667 .985085
7 1 .503611 .472468 .014043
ITEM: TIMESTEP
400
ITEM: NUMBER OF ATOMS
7
ITEM: BOX BOUNDS ss ss ss
-3.3504 2.9066
-2.7396 3.4290
-2.0758 1.9451
ITEM: ATOMS id type xs ys zs
1 1 .489124 .990782 .574636
2 1 .990636 .644207 .490384
3 1 .833350 .046706 .466134
4 1 .225960 .010762 .484715
5 1 .008639 .598987 .497766
6 1 .507906 .443159 .981722
7 1 .502551 .471797 .014690
ITEM: TIMESTEP
450
ITEM: NUMBER OF ATOMS
7
ITEM: BOX BOUNDS ss ss ss
-3.3551 2.9068
-2.7466 3.4324
-2.0738 1.9376
ITEM: ATOMS id type xs ys zs
1 1 .488704 .989606 .576381
2 1 .990529 .645141 .489464
3 1 .833595 .048084 .466257
4 1 .225918 .011979 .485829
5 1 .009092 .599920 .497277
6 1 .508123 .443054 .983192
7 1 .502680 .471384 .013934
ITEM: TIMESTEP
500
ITEM: NUMBER OF ATOMS
7
ITEM: BOX BOUNDS ss ss ss
-3.3574 2.9091
-2.7421 3.4240
-2.0746 1.9199
ITEM: ATOMS id type xs ys zs
1 1 .488142 .990427 .579477
2 1 .989739 .646234 .489915
3 1 .833379 .047961 .468548
4 1 .225606 .011272 .488683
5 1 .009166 .600981 .498307
6 1 .507841 .442827 .987395
7 1 .502193 .471337 .013642
ITEM: TIMESTEP
550
ITEM: NUMBER OF ATOMS
7
ITEM: BOX BOUNDS ss ss ss
-3.3512 2.9115
-2.7352 3.4334
-2.0697 1.9159
ITEM: ATOMS id type xs ys zs
1 1 .487295 .988501 .579260
2 1 .988902 .644780 .488601
3 1 .832800 .046972 .468665
4 1 .224476 .010211 .488141
5 1 .008041 .599816 .497606
6 1 .506841 .441295 .988215
7 1 .501000 .470008 .011918
ITEM: TIMESTEP
600
ITEM: NUMBER OF ATOMS
7
ITEM: BOX BOUNDS ss ss ss
-3.3529 2.8967
-2.7234 3.4081
-2.0881 1.9182
ITEM: ATOMS id type xs ys zs
1 1 .488846 .992164 .580265
2 1 .991213 .646448 .489780
3 1 .834697 .045114 .471397
4 1 .224924 .008218 .489360
5 1 .008310 .601863 .500189
6 1 .507898 .441858 .987338
7 1 .502187 .470674 .015998
ITEM: TIMESTEP
650
ITEM: NUMBER OF ATOMS
7
ITEM: BOX BOUNDS ss ss ss
-3.3565 2.9103
-2.7245 3.4176
-2.0822 1.9204
ITEM: ATOMS id type xs ys zs
1 1 .488149 .990403 .578901
2 1 .989220 .645572 .488139
3 1 .833050 .045197 .471015
4 1 .224518 .008309 .487860
5 1 .008947 .601554 .499391
6 1 .506924 .441077 .986503
7 1 .501539 .469810 .014635
ITEM: TIMESTEP
700
ITEM: NUMBER OF ATOMS
7
ITEM: BOX BOUNDS ss ss ss
-3.3530 2.9060
-2.7271 3.4191
-2.0822 1.9278
ITEM: ATOMS id type xs ys zs
1 1 .487841 .989971 .577254
2 1 .989782 .645968 .486340
3 1 .833744 .045547 .470869
4 1 .223964 .008934 .486964
5 1 .008316 .602117 .498134
6 1 .506973 .441205 .984489
7 1 .501559 .469501 .014761
ITEM: TIMESTEP
750
ITEM: NUMBER OF ATOMS
7
ITEM: BOX BOUNDS ss ss ss
-3.3540 2.9081
-2.7363 3.4203
-2.0837 1.9169
ITEM: ATOMS id type xs ys zs
1 1 .487319 .989792 .578735
2 1 .989309 .646745 .486764
3 1 .833604 .046848 .473238
4 1 .223486 .010842 .488269
5 1 .008306 .602809 .499655
6 1 .507071 .441996 .986983
7 1 .501220 .469985 .015156
ITEM: TIMESTEP
800
ITEM: NUMBER OF ATOMS
7
ITEM: BOX BOUNDS ss ss ss
-3.3566 2.9022
-2.7273 3.4258
-2.0843 1.9176
ITEM: ATOMS id type xs ys zs
1 1 .487664 .989055 .578765
2 1 .989969 .645839 .486099
3 1 .834563 .045138 .474589
4 1 .223621 .010003 .487821
5 1 .008701 .601794 .500159
6 1 .508046 .440851 .986754
7 1 .501769 .468543 .015322
ITEM: TIMESTEP
850
ITEM: NUMBER OF ATOMS
7
ITEM: BOX BOUNDS ss ss ss
-3.3582 2.9007
-2.7219 3.4139
-2.0777 1.9170
ITEM: ATOMS id type xs ys zs
1 1 .487745 .990893 .578143
2 1 .989976 .646760 .485826
3 1 .834966 .044111 .474803
4 1 .223538 .009498 .486380
5 1 .008926 .602718 .499877
6 1 .508233 .441066 .987080
7 1 .502132 .468506 .014178
ITEM: TIMESTEP
900
ITEM: NUMBER OF ATOMS
7
ITEM: BOX BOUNDS ss ss ss
-3.3573 2.8962
-2.7254 3.4181
-2.0766 1.9152
ITEM: ATOMS id type xs ys zs
1 1 .487516 .989960 .578387
2 1 .990733 .646135 .489063
3 1 .835653 .044247 .476735
4 1 .223357 .010637 .485177
5 1 .008705 .602673 .499857
6 1 .508130 .441133 .988276
7 1 .503206 .467946 .014887
ITEM: TIMESTEP
1
ITEM: NUMBER OF ATOMS
7
ITEM: BOX BOUNDS ss ss ss
-3.3496 2.8963
-2.7241 3.4135
-2.0776 1.9201
ITEM: ATOMS id type xs ys zs
1 1 .491851 .995761 .571239
2 1 .990872 .643530 .495906
3 1 .834788 .042792 .469415
4 1 .226201 .008576 .485126
5 1 .008570 .597347 .503136
6 1 .509890 .443954 .989599
7 1 .502721 .471384 .017077
ITEM: TIMESTEP
50
ITEM: NUMBER OF ATOMS
7
ITEM: BOX BOUNDS ss ss ss
-3.3496 2.8963
-2.7241 3.4191
-2.0776 1.9201
ITEM: ATOMS id type xs ys zs
1 1 .492382 .995686 .572495
2 1 .990443 .642868 .495394
3 1 .834799 .042592 .469423
4 1 .226445 .008098 .485515
5 1 .008627 .596662 .502291
6 1 .509700 .443750 .989504
7 1 .502523 .470739 .017008
ITEM: TIMESTEP
100
ITEM: NUMBER OF ATOMS
7
ITEM: BOX BOUNDS ss ss ss
-3.3496 2.8963
-2.7241 3.4304
-2.0776 1.9201
ITEM: ATOMS id type xs ys zs
1 1 .492404 .993908 .573670
2 1 .990520 .641714 .494843
3 1 .834749 .042557 .469502
4 1 .226764 .007806 .486166
5 1 .008681 .595663 .501979
6 1 .509335 .443094 .988951
7 1 .502563 .469753 .016689
ITEM: TIMESTEP
150
ITEM: NUMBER OF ATOMS
7
ITEM: BOX BOUNDS ss ss ss
-3.3496 2.8963
-2.7257 3.4392
-2.0776 1.9219
ITEM: ATOMS id type xs ys zs
1 1 .492123 .992045 .574387
2 1 .990916 .640917 .494195
3 1 .834700 .042942 .469597
4 1 .226977 .007762 .486530
5 1 .008652 .595364 .501596
6 1 .509074 .442589 .987886
7 1 .502690 .469068 .016279
ITEM: TIMESTEP
200
ITEM: NUMBER OF ATOMS
7
ITEM: BOX BOUNDS ss ss ss
-3.3541 2.8963
-2.7275 3.4425
-2.0776 1.9253
ITEM: ATOMS id type xs ys zs
1 1 .491821 .990407 .573429
2 1 .991932 .640668 .494411
3 1 .834921 .044137 .469558
4 1 .226852 .008416 .485579
5 1 .009343 .597479 .503607
6 1 .509569 .442146 .988758
7 1 .503303 .469408 .017758
ITEM: TIMESTEP
250
ITEM: NUMBER OF ATOMS
7
ITEM: BOX BOUNDS ss ss ss
-3.3496 2.8963
-2.7235 3.4250
-2.0691 1.9263
ITEM: ATOMS id type xs ys zs
1 1 .490829 .992656 .571755
2 1 .992395 .642767 .494022
3 1 .835004 .044530 .468509
4 1 .225549 .008331 .483044
5 1 .009024 .600833 .505123
6 1 .509028 .442868 .989972
7 1 .503040 .470915 .017559
ITEM: TIMESTEP
300
ITEM: NUMBER OF ATOMS
7
ITEM: BOX BOUNDS ss ss ss
-3.3496 2.8939
-2.7190 3.4228
-2.0691 1.9345
ITEM: ATOMS id type xs ys zs
1 1 .490794 .992739 .570712