ITEM: TIMESTEP
1
ITEM: NUMBER OF ATOMS
7
ITEM: BOX BOUNDS ss ss ss
-3.2997 2.8430
-2.6758 3.3913
-2.0136 1.8823
ITEM: ATOMS id type xs ys zs
1 1 .491898 .999201 .569551
2 1 .999492 .643056 .492523
3 1 .840687 .035353 .465250
4 1 .221848 .000791 .481334
5 1 .000582 .596362 .500004
6 1 .510349 .441112 .999022
7 1 .503090 .468924 .001090
ITEM: TIMESTEP
50
ITEM: NUMBER OF ATOMS
7
ITEM: BOX BOUNDS ss ss ss
-3.3238 2.8643
-2.7001 3.4163
-2.0340 1.9044
ITEM: ATOMS id type xs ys zs
1 1 .492622 .992138 .564264
2 1 .996534 .641113 .495488
3 1 .838066 .038842 .465783
4 1 .224860 .004591 .483339
5 1 .005558 .596471 .503704
6 1 .511030 .442488 .994857
7 1 .503275 .470189 .006980
ITEM: TIMESTEP
100
ITEM: NUMBER OF ATOMS
7
ITEM: BOX BOUNDS ss ss ss
-3.3301 2.8749
-2.7085 3.4235
-2.0453 1.9147
ITEM: ATOMS id type xs ys zs
1 1 .491436 .992182 .561501
2 1 .994660 .642902 .498347
3 1 .837639 .040219 .465395
4 1 .222490 .007156 .479685
5 1 .004551 .592878 .507372
6 1 .510920 .441324 .989843
7 1 .502703 .469239 .008937
ITEM: TIMESTEP
150
ITEM: NUMBER OF ATOMS
7
ITEM: BOX BOUNDS ss ss ss
-3.3373 2.8793
-2.7145 3.4170
-2.0567 1.9224
ITEM: ATOMS id type xs ys zs
1 1 .491342 .989812 .562062
2 1 .994977 .642019 .493004
3 1 .837781 .043290 .465479
4 1 .226203 .007712 .485170
5 1 .007571 .598754 .505787
6 1 .511894 .442541 .991760
7 1 .502983 .471577 .011690
ITEM: TIMESTEP
200
ITEM: NUMBER OF ATOMS
7
ITEM: BOX BOUNDS ss ss ss
-3.3375 2.8858
-2.7160 3.4162
-2.0652 1.9207
ITEM: ATOMS id type xs ys zs
1 1 .492785 .988258 .560893
2 1 .995984 .642821 .494595
3 1 .836532 .042757 .467521
4 1 .226247 .007845 .488430
5 1 .008930 .598586 .509927
6 1 .511731 .444408 .993559
7 1 .503001 .471245 .016111
ITEM: TIMESTEP
250
ITEM: NUMBER OF ATOMS
7
ITEM: BOX BOUNDS ss ss ss
-3.3444 2.8866
-2.7142 3.4089
-2.0591 1.9313
ITEM: ATOMS id type xs ys zs
1 1 .494056 .988334 .559872
2 1 .997571 .644611 .492674
3 1 .838826 .044269 .465907
4 1 .226435 .008360 .486127
5 1 .009771 .598874 .508664
6 1 .512997 .442200 .988417
7 1 .504420 .468802 .011631
ITEM: TIMESTEP
300
ITEM: NUMBER OF ATOMS
7
ITEM: BOX BOUNDS ss ss ss
-3.3505 2.8978
-2.7236 3.4115
-2.0614 1.9321
ITEM: ATOMS id type xs ys zs
1 1 .492616 .988153 .554874
2 1 .995569 .644451 .494484
3 1 .836578 .046123 .466767
4 1 .226287 .009648 .489629
5 1 .010998 .598622 .510500
6 1 .512552 .445206 .987953
7 1 .503404 .470327 .014578
ITEM: TIMESTEP
350
ITEM: NUMBER OF ATOMS
7
ITEM: BOX BOUNDS ss ss ss
-3.3475 2.9032
-2.7063 3.4094
-2.0686 1.9331
ITEM: ATOMS id type xs ys zs
1 1 .487417 .988451 .563385
2 1 .992934 .641973 .502483
3 1 .834014 .041794 .467029
4 1 .222545 .010498 .483802
5 1 .009404 .599333 .506133
6 1 .510072 .440234 .988296
7 1 .505299 .472434 .011422
ITEM: TIMESTEP
400
ITEM: NUMBER OF ATOMS
7
ITEM: BOX BOUNDS ss ss ss
-3.3509 2.9099
-2.7124 3.3995
-2.0724 1.9368
ITEM: ATOMS id type xs ys zs
1 1 .486083 .991845 .563092
2 1 .992306 .641018 .505926
3 1 .832360 .042547 .462161
4 1 .220759 .014273 .478175
5 1 .008919 .601116 .506749
6 1 .508598 .439858 .988484
7 1 .505709 .474218 .013502
ITEM: TIMESTEP
1
ITEM: NUMBER OF ATOMS
7
ITEM: BOX BOUNDS ss ss ss
-3.3487 2.9041
-2.6995 3.3914
-2.0563 1.9359
ITEM: ATOMS id type xs ys zs
1 1 .491072 .999195 .566510
2 1 .989718 .644439 .491345
3 1 .833722 .039102 .464733
4 1 .225777 .004674 .480396
5 1 .008403 .597919 .498656
6 1 .509191 .443280 .985638
7 1 .502061 .470986 .011760
ITEM: TIMESTEP
50
ITEM: NUMBER OF ATOMS
7
ITEM: BOX BOUNDS ss ss ss
-3.3487 2.9041
-2.6995 3.4177
-2.0563 1.9359
ITEM: ATOMS id type xs ys zs
1 1 .489069 .992031 .564180
2 1 .989698 .641878 .493354
3 1 .834960 .038605 .463848
4 1 .224892 .005216 .480741
5 1 .009026 .595716 .502104
6 1 .508832 .441106 .985945
7 1 .503838 .469991 .011766
ITEM: TIMESTEP
100
ITEM: NUMBER OF ATOMS
7
ITEM: BOX BOUNDS ss ss ss
-3.3487 2.9030
-2.7102 3.4255
-2.0563 1.9359
ITEM: ATOMS id type xs ys zs
1 1 .487491 .990247 .559537
2 1 .991390 .642054 .493874
3 1 .836090 .041470 .463401
4 1 .226203 .007760 .479737
5 1 .009597 .596246 .499968
6 1 .509465 .441506 .985500
7 1 .501978 .469108 .012065
ITEM: TIMESTEP
150
ITEM: NUMBER OF ATOMS
7
ITEM: BOX BOUNDS ss ss ss
-3.3487 2.9030
-2.7186 3.4169
-2.0492 1.9359
ITEM: ATOMS id type xs ys zs
1 1 .488035 .989900 .556991
2 1 .992010 .643188 .492579
3 1 .837418 .041835 .461022
4 1 .226187 .009125 .480785
5 1 .008604 .596662 .499940
6 1 .511000 .443378 .984636
7 1 .503535 .471462 .007873
ITEM: TIMESTEP
200
ITEM: NUMBER OF ATOMS
7
ITEM: BOX BOUNDS ss ss ss
-3.3487 2.9023
-2.7153 3.4174
-2.0528 1.9359
ITEM: ATOMS id type xs ys zs
1 1 .486429 .987068 .557154
2 1 .992780 .644310 .494291
3 1 .837829 .042081 .460898
4 1 .226394 .008788 .482227
5 1 .007998 .595831 .499235
6 1 .511054 .442471 .986611
7 1 .505040 .471324 .009475
ITEM: TIMESTEP
250
ITEM: NUMBER OF ATOMS
7
ITEM: BOX BOUNDS ss ss ss
-3.3438 2.9003
-2.7145 3.4123
-2.0610 1.9289
ITEM: ATOMS id type xs ys zs
1 1 .486995 .989919 .555725
2 1 .994670 .644487 .493849
3 1 .835589 .041360 .464166
4 1 .225961 .010192 .481919
5 1 .007359 .597788 .502218
6 1 .511955 .442641 .984210
7 1 .504645 .470044 .007804
ITEM: TIMESTEP
300
ITEM: NUMBER OF ATOMS
7
ITEM: BOX BOUNDS ss ss ss
-3.3456 2.9003
-2.7104 3.4020
-2.0666 1.9180
ITEM: ATOMS id type xs ys zs
1 1 .486234 .989381 .557311
2 1 .994672 .646018 .497722
3 1 .835761 .042421 .466687
4 1 .225535 .009487 .483678
5 1 .007503 .597724 .503937
6 1 .511453 .442636 .987413
7 1 .505593 .469898 .011895
ITEM: TIMESTEP
350
ITEM: NUMBER OF ATOMS
7
ITEM: BOX BOUNDS ss ss ss
-3.3550 2.9086
-2.7066 3.3972
-2.0754 1.9168
ITEM: ATOMS id type xs ys zs
1 1 .485518 .988652 .551984
2 1 .993728 .646884 .496963
3 1 .835195 .043575 .470054
4 1 .224927 .008725 .482418
5 1 .007792 .599937 .501823
6 1 .509347 .441890 .987204
7 1 .505002 .469919 .013578
ITEM: TIMESTEP
400
ITEM: NUMBER OF ATOMS
7
ITEM: BOX BOUNDS ss ss ss
-3.3470 2.9048
-2.7034 3.3893
-2.0757 1.9182
ITEM: ATOMS id type xs ys zs
1 1 .484612 .989998 .549980
2 1 .994165 .646859 .499117
3 1 .835806 .042724 .469257
4 1 .223861 .009098 .480211
5 1 .006227 .601073 .501336
6 1 .508692 .441717 .987476
7 1 .506226 .471087 .015031
ITEM: TIMESTEP
1
ITEM: NUMBER OF ATOMS
7
ITEM: BOX BOUNDS ss ss ss
-3.3388 2.9169
-2.6956 3.3914
-2.0737 1.9155
ITEM: ATOMS id type xs ys zs
1 1 .489238 .999193 .571278
2 1 .987677 .644219 .496066
3 1 .831742 .038493 .469449
4 1 .224094 .004052 .485151
5 1 .006821 .597678 .503367
6 1 .507384 .442928 .990682
7 1 .500267 .470649 .016133
ITEM: TIMESTEP
50
ITEM: NUMBER OF ATOMS
7
ITEM: BOX BOUNDS ss ss ss
-3.3388 2.9169
-2.7046 3.4179
-2.0737 1.9155
ITEM: ATOMS id type xs ys zs
1 1 .488304 .993728 .568607
2 1 .988046 .642724 .496789
3 1 .831990 .039060 .469775
4 1 .223762 .006833 .485160
5 1 .007129 .596165 .504686
6 1 .506956 .442191 .991598
7 1 .500499 .470002 .016586
ITEM: TIMESTEP
100
ITEM: NUMBER OF ATOMS
7
ITEM: BOX BOUNDS ss ss ss
-3.3385 2.9169
-2.7068 3.4245
-2.0737 1.9155
ITEM: ATOMS id type xs ys zs
1 1 .486025 .993350 .566929
2 1 .988172 .642489 .498461
3 1 .832036 .039348 .466856
4 1 .224849 .007477 .483910
5 1 .006738 .596402 .508774
6 1 .507089 .441309 .992107
7 1 .500876 .471975 .017338
ITEM: TIMESTEP
150
ITEM: NUMBER OF ATOMS
7
ITEM: BOX BOUNDS ss ss ss
-3.3417 2.9169
-2.7139 3.4233
-2.0737 1.9271
ITEM: ATOMS id type xs ys zs
1 1 .484340 .991904 .565330
2 1 .989555 .643148 .497691
3 1 .832473 .039489 .462626
4 1 .225388 .008433 .479832
5 1 .007889 .597098 .508639
6 1 .505558 .442056 .988871
7 1 .501711 .472319 .019868
ITEM: TIMESTEP
200
ITEM: NUMBER OF ATOMS
7
ITEM: BOX BOUNDS ss ss ss
-3.3407 2.9169
-2.7178 3.4219
-2.0737 1.9186
ITEM: ATOMS id type xs ys zs
1 1 .483826 .991740 .565578
2 1 .986787 .642927 .500075
3 1 .832473 .039695 .463379
4 1 .225139 .010129 .481919
5 1 .007789 .597887 .509983
6 1 .506543 .441478 .993470
7 1 .502239 .472885 .019787
ITEM: TIMESTEP
250
ITEM: NUMBER OF ATOMS
7
ITEM: BOX BOUNDS ss ss ss
-3.3454 2.9169
-2.7258 3.4218
-2.0737 1.9162
ITEM: ATOMS id type xs ys zs
1 1 .487064 .990588 .562209
2 1 .990093 .642220 .494484
3 1 .831152 .043929 .469716
4 1 .223460 .011531 .481865
5 1 .005730 .596947 .507638
6 1 .507147 .445543 .987226
7 1 .500738 .470829 .014579
ITEM: TIMESTEP
300
ITEM: NUMBER OF ATOMS
7
ITEM: BOX BOUNDS ss ss ss
-3.3455 2.9169
-2.7111 3.4211
-2.0737 1.9196
ITEM: ATOMS id type xs ys zs
1 1 .486356 .991443 .561332
2 1 .990645 .642922 .493723
3 1 .833877 .041353 .468849
4 1 .223920 .010801 .483500
5 1 .006568 .596752 .508853
6 1 .509556 .443527 .987976
7 1 .503655 .471624 .015190
ITEM: TIMESTEP
350
ITEM: NUMBER OF ATOMS
7
ITEM: BOX BOUNDS ss ss ss
-3.3501 2.9169
-2.7128 3.4157
-2.0737 1.9204
ITEM: ATOMS id type xs ys zs
1 1 .484875 .990595 .556391
2 1 .988535 .643605 .493333
3 1 .831654 .042570 .472559
4 1 .223683 .010109 .485037
5 1 .005693 .599382 .512888
6 1 .506463 .445788 .987197
7 1 .500145 .470404 .014812
ITEM: TIMESTEP
400
ITEM: NUMBER OF ATOMS
7
ITEM: BOX BOUNDS ss ss ss
-3.3481 2.9169
-2.7125 3.4117
-2.0737 1.9311
ITEM: ATOMS id type xs ys zs
1 1 .485132 .990412 .554757
2 1 .989576 .645147 .493040
3 1 .832491 .043110 .469581
4 1 .224100 .011080 .483291
5 1 .004449 .598615 .512350
6 1 .506357 .443787 .985601
7 1 .499479 .470163 .014498
ITEM: TIMESTEP
1
ITEM: NUMBER OF ATOMS
7
ITEM: BOX BOUNDS ss ss ss
-3.3467 2.9169
-2.6973 3.4055
-2.0607 1.9361
ITEM: ATOMS id type xs ys zs
1 1 .489897 .996876 .566976
2 1 .987688 .642806 .491865
3 1 .831951 .038673 .465309
4 1 .225066 .004308 .480985
5 1 .008071 .596393 .499179
6 1 .507984 .442056 .985573
7 1 .500878 .469705 .012836
ITEM: TIMESTEP
50
ITEM: NUMBER OF ATOMS
7
ITEM: BOX BOUNDS ss ss ss
-3.3467 2.9169
-2.6985 3.4182
-2.0607 1.9361
ITEM: ATOMS id type xs ys zs
1 1 .488134 .993404 .565995
2 1 .988814 .642392 .493026
3 1 .831445 .037701 .466969
4 1 .223783 .004849 .480054
5 1 .008458 .595699 .500140
6 1 .508368 .441101 .983429
7 1 .500625 .468134 .011975
ITEM: TIMESTEP
100
ITEM: NUMBER OF ATOMS
7
ITEM: BOX BOUNDS ss ss ss
-3.3467 2.9169
-2.7113 3.4282
-2.0607 1.9361
ITEM: ATOMS id type xs ys zs
1 1 .489451 .991771 .565342
2 1 .989252 .639814 .493109
3 1 .831532 .040030 .464300
4 1 .224839 .007584 .482751
5 1 .008599 .597317 .501404
6 1 .508783 .441814 .984976
7 1 .501570 .469455 .010925
ITEM: TIMESTEP
150
ITEM: NUMBER OF ATOMS
7
ITEM: BOX BOUNDS ss ss ss
-3.3467 2.9169
-2.7164 3.4298
-2.0607 1.9361
ITEM: ATOMS id type xs ys zs
1 1 .491968 .989441 .559733
2 1 .989285 .642337 .493767
3 1 .833669 .042612 .463631
4 1 .224605 .008096 .480010
5 1 .005624 .596770 .499927
6 1 .506465 .440474 .984569
7 1 .501809 .469790 .012414
ITEM: TIMESTEP
200
ITEM: NUMBER OF ATOMS
7
ITEM: BOX BOUNDS ss ss ss
-3.3467 2.9169
-2.7285 3.4261
-2.0663 1.9361
ITEM: ATOMS id type xs ys zs
1 1 .488453 .990246 .567048
2 1 .991045 .640208 .496646
3 1 .831898 .043190 .468208
4 1 .223938 .011391 .483538
5 1 .008464 .598894 .502524
6 1 .508991 .443547 .986131
7 1 .502128 .470549 .015099
ITEM: TIMESTEP
250
ITEM: NUMBER OF ATOMS
7
ITEM: BOX BOUNDS ss ss ss
-3.3467 2.9169
-2.7275 3.4214
-2.0607 1.9248
ITEM: ATOMS id type xs ys zs
1 1 .485781 .988934 .564809
2 1 .990270 .640486 .495837
3 1 .831798 .042307 .462537
4 1 .223437 .012186 .483508
5 1 .008331 .602223 .504802
6 1 .510019 .443772 .984476
7 1 .502462 .472694 .007116
ITEM: TIMESTEP
300
ITEM: NUMBER OF ATOMS
7
ITEM: BOX BOUNDS ss ss ss
-3.3466 2.9169
-2.7287 3.4172
-2.0766 1.9232
ITEM: ATOMS id type xs ys zs
1 1 .486981 .991906 .566626
2 1 .992543 .640959 .503090
3 1 .831516 .042625 .471169
4 1 .224167 .011805 .486203
5 1 .006788 .603062 .513793
6 1 .510629 .441459 .987809
7 1 .501349 .471283 .018975
ITEM: TIMESTEP
350
ITEM: NUMBER OF ATOMS
7
ITEM: BOX BOUNDS ss ss ss
-3.3466 2.9169
-2.7282 3.4146
-2.0762 1.9204
ITEM: ATOMS id type xs ys zs
1 1 .485342 .988185 .568081
2 1 .991610 .641259 .497132
3 1 .831715 .042229 .462721
4 1 .225624 .012331 .483203
5 1 .008403 .600971 .509901
6 1 .511879 .442948 .988567
7 1 .503730 .473991 .014883
ITEM: TIMESTEP
400
ITEM: NUMBER OF ATOMS
7
ITEM: BOX BOUNDS ss ss ss
-3.3480 2.9169
-2.7301 3.4150
-2.0777 1.9285
ITEM: ATOMS id type xs ys zs
1 1 .485044 .988536 .566160
2 1 .991441 .643142 .495931
3 1 .832631 .043610 .463305
4 1 .225996 .013836 .482972
5 1 .008494 .600541 .508679
6 1 .511958 .442227 .988506
7 1 .504613 .473589 .016856
ITEM: TIMESTEP
1
ITEM: NUMBER OF ATOMS
7
ITEM: BOX BOUNDS ss ss ss
-3.3408 2.9120
-2.7044 3.3971
-2.0600 1.9304
ITEM: ATOMS id type xs ys zs
1 1 .489797 .998272 .567681
2 1 .988464 .644138 .492490
3 1 .832464 .039854 .465861
4 1 .224513 .005471 .481573
5 1 .007138 .597687 .499780
6 1 .507935 .443319 .986960
7 1 .500812 .470968 .012700
ITEM: TIMESTEP
50
ITEM: NUMBER OF ATOMS
7
ITEM: BOX BOUNDS ss ss ss
-3.3408 2.9120
-2.7044 3.4157
-2.0600 1.9304
ITEM: ATOMS id type xs ys zs
1 1 .488226 .993493 .566826
2 1 .990569 .642818 .493383
3 1 .831835 .040813 .466616
4 1 .224154 .006701 .480602
5 1 .006432 .596383 .499494
6 1 .508267 .441862 .986863
7 1 .500122 .470819 .012824
ITEM: TIMESTEP
100
ITEM: NUMBER OF ATOMS
7
ITEM: BOX BOUNDS ss ss ss
-3.3408 2.9110
-2.7153 3.4273
-2.0600 1.9304
ITEM: ATOMS id type xs ys zs
1 1 .488323 .990966 .566843
2 1 .990427 .642439 .492934
3 1 .830112 .042304 .466728
4 1 .222840 .009574 .479611
5 1 .006961 .597116 .499769
6 1 .508961 .440269 .987468
7 1 .500456 .470315 .011434
ITEM: TIMESTEP
150
ITEM: NUMBER OF ATOMS
7
ITEM: BOX BOUNDS ss ss ss
-3.3421 2.9103
-2.7200 3.4299
-2.0600 1.9304
ITEM: ATOMS id type xs ys zs
1 1 .487571 .990098 .561815
2 1 .990602 .639982 .489747
3 1 .833969 .041966 .472374
4 1 .223510 .009715 .480914
5 1 .005909 .597177 .503888
6 1 .508290 .440230 .985528
7 1 .500592 .467057 .015817
ITEM: TIMESTEP
200
ITEM: NUMBER OF ATOMS
7
ITEM: BOX BOUNDS ss ss ss
-3.3454 2.9038
-2.7230 3.4279
-2.0607 1.9304
ITEM: ATOMS id type xs ys zs
1 1 .489071 .986822 .563987
2 1 .991214 .641812 .491595
3 1 .832035 .042245 .467379
4 1 .219771 .009904 .480549
5 1 .007275 .601437 .500324
6 1 .506715 .440622 .984142
7 1 .501574 .469758 .012618
ITEM: TIMESTEP
250
ITEM: NUMBER OF ATOMS
7
ITEM: BOX BOUNDS ss ss ss
-3.3420 2.9038
-2.7212 3.4217
-2.0600 1.9183
ITEM: ATOMS id type xs ys zs
1 1 .487453 .988872 .562127
2 1 .991350 .642644 .491078
3 1 .830951 .041836 .468170
4 1 .219989 .010016 .480030
5 1 .007275 .600863 .502984
6 1 .508181 .440735 .987785
7 1 .499062 .469287 .009708
ITEM: TIMESTEP
300
ITEM: NUMBER OF ATOMS
7
ITEM: BOX BOUNDS ss ss ss
-3.3458 2.9094
-2.7123 3.4050
-2.0627 1.9162
ITEM: ATOMS id type xs ys zs
1 1 .487982 .988867 .563470
2 1 .992389 .642614 .492402
3 1 .833060 .044256 .470372
4 1 .220589 .008272 .482696
5 1 .007192 .599535 .506563
6 1 .508643 .441505 .989564
7 1 .501423 .469330 .014414
ITEM: TIMESTEP
350
ITEM: NUMBER OF ATOMS
7
ITEM: BOX BOUNDS ss ss ss
-3.3515 2.9038
-2.7088 3.4100
-2.0657 1.9243
ITEM: ATOMS id type xs ys zs
1 1 .485431 .990160 .558086
2 1 .994540 .642276 .491055
3 1 .835169 .043725 .473093
4 1 .224999 .008225 .488435
5 1 .006569 .599199 .510652
6 1 .510866 .443724 .987579
7 1 .500148 .469564 .017344
ITEM: TIMESTEP
400
ITEM: NUMBER OF ATOMS
7
ITEM: BOX BOUNDS ss ss ss
-3.3524 2.9123
-2.7103 3.4027
-2.0643 1.9303
ITEM: ATOMS id type xs ys zs
1 1 .487795 .990504 .555770
2 1 .992530 .641406 .492765
3 1 .832758 .044237 .469846
4 1 .224654 .009969 .486274
5 1 .007695 .598582 .510622
6 1 .510039 .443238 .987182
7 1 .499967 .469870 .016162
ITEM: TIMESTEP
1
ITEM: NUMBER OF ATOMS
7
ITEM: BOX BOUNDS ss ss ss
-3.3518 2.9144
-2.7092 3.3915
-2.0599 1.9334
ITEM: ATOMS id type xs ys zs
1 1 .490507 .999158 .567252
2 1 .988105 .644994 .492079
3 1 .832419 .040635 .465504
4 1 .225798 .006257 .481189
5 1 .008894 .598556 .499404
6 1 .508592 .444157 .986241
7 1 .501488 .471816 .012635
ITEM: TIMESTEP
50
ITEM: NUMBER OF ATOMS
7
ITEM: BOX BOUNDS ss ss ss
-3.3518 2.9096
-2.7092 3.4162
-2.0599 1.9334
ITEM: ATOMS id type xs ys zs
1 1 .489041 .992892 .563926
2 1 .988630 .640437 .494026
3 1 .832838 .039241 .464134
4 1 .226313 .007475 .480608
5 1 .009412 .597210 .500243
6 1 .510227 .443165 .986863
7 1 .502502 .469309 .012761
ITEM: TIMESTEP
100
ITEM: NUMBER OF ATOMS
7
ITEM: BOX BOUNDS ss ss ss
-3.3518 2.9096
-2.7182 3.4271
-2.0599 1.9300
ITEM: ATOMS id type xs ys zs
1 1 .490021 .991667 .563085
2 1 .990596 .640521 .495682
3 1 .833650 .040662 .465958
4 1 .224130 .009493 .479347
5 1 .008640 .596652 .499410
6 1 .507823 .443489 .985976
7 1 .502325 .472412 .011018
ITEM: TIMESTEP
150
ITEM: NUMBER OF ATOMS
7
ITEM: BOX BOUNDS ss ss ss
-3.3518 2.9096
-2.7178 3.4337
-2.0550 1.9300
ITEM: ATOMS id type xs ys zs
1 1 .487418 .990498 .560580
2 1 .988783 .641344 .491691
3 1 .830774 .040126 .467680
4 1 .224306 .008399 .477500
5 1 .009830 .597769 .501912
6 1 .509954 .440805 .983863
7 1 .500496 .466098 .010533
ITEM: TIMESTEP
200
ITEM: NUMBER OF ATOMS
7
ITEM: BOX BOUNDS ss ss ss
-3.3450 2.9096
-2.7197 3.4279
-2.0587 1.9300
ITEM: ATOMS id type xs ys zs
1 1 .487431 .990018 .559453
2 1 .990007 .642792 .495505
3 1 .829705 .041496 .467097
4 1 .222249 .008017 .480323
5 1 .008431 .600046 .504582
6 1 .510312 .442450 .982223
7 1 .500200 .467204 .012900
ITEM: TIMESTEP
250
ITEM: NUMBER OF ATOMS
7
ITEM: BOX BOUNDS ss ss ss
-3.3443 2.9096
-2.7246 3.4417
-2.0592 1.9267
ITEM: ATOMS id type xs ys zs
1 1 .487257 .987476 .566604
2 1 .986744 .641284 .493835
3 1 .827559 .041939 .469896
4 1 .221694 .012295 .475766
5 1 .007609 .598868 .509420
6 1 .508562 .439695 .989808
7 1 .498929 .468461 .013331
ITEM: TIMESTEP
300
ITEM: NUMBER OF ATOMS
7
ITEM: BOX BOUNDS ss ss ss
-3.3429 2.9095
-2.7303 3.4245
-2.0654 1.9267
ITEM: ATOMS id type xs ys zs
1 1 .485291 .990006 .566485
2 1 .987075 .644930 .499039
3 1 .828390 .042306 .468911
4 1 .222672 .011432 .474213
5 1 .007866 .600742 .515717
6 1 .509417 .440382 .993295
7 1 .498978 .470522 .013155
ITEM: TIMESTEP
350
ITEM: NUMBER OF ATOMS
7
ITEM: BOX BOUNDS ss ss ss
-3.3454 2.9015
-2.7251 3.4181
-2.0662 1.9352
ITEM: ATOMS id type xs ys zs
1 1 .487403 .990991 .562890
2 1 .991693 .642784 .491015
3 1 .830882 .039405 .475161
4 1 .223766 .012782 .479012
5 1 .010499 .599909 .512532
6 1 .510706 .442571 .986279
7 1 .503040 .472654 .011495
ITEM: TIMESTEP
400
ITEM: NUMBER OF ATOMS
7
ITEM: BOX BOUNDS ss ss ss
-3.3508 2.8996
-2.7195 3.4185
-2.0737 1.9318
ITEM: ATOMS id type xs ys zs
1 1 .488628 .991721 .561905
2 1 .991978 .641888 .489692
3 1 .831010 .038288 .473342
4 1 .223425 .011441 .476410
5 1 .010128 .598644 .515637
6 1 .510473 .441714 .986892
7 1 .504179 .471762 .014779
ITEM: TIMESTEP
1
ITEM: NUMBER OF ATOMS
7
ITEM: BOX BOUNDS ss ss ss
-3.3539 2.8816
-2.7092 3.4147
-2.0688 1.9280
ITEM: ATOMS id type xs ys zs
1 1 .493251 .995379 .568966
2 1 .993318 .642533 .493902
3 1 .836856 .040479 .467327
4 1 .227237 .006256 .483001
5 1 .009242 .596279 .501206
6 1 .511440 .442482 .987608
7 1 .504294 .470031 .014857
ITEM: TIMESTEP
50
ITEM: NUMBER OF ATOMS
7
ITEM: BOX BOUNDS ss ss ss
-3.3539 2.8816
-2.7092 3.4246
-2.0688 1.9280
ITEM: ATOMS id type xs ys zs
1 1 .492668 .991781 .567505
2 1 .993905 .641614 .493805
3 1 .836612 .041192 .466104
4 1 .226299 .007962 .482564
5 1 .008946 .597081 .500850
6 1 .510562 .439485 .987656
7 1 .504390 .469519 .014837
ITEM: TIMESTEP
100
ITEM: NUMBER OF ATOMS
7
ITEM: BOX BOUNDS ss ss ss
-3.3539 2.8816
-2.7163 3.4303
-2.0688 1.9264
ITEM: ATOMS id type xs ys zs
1 1 .492833 .990895 .565944
2 1 .995262 .642892 .496179
3 1 .835011 .041538 .468694
4 1 .227141 .007732 .484251
5 1 .009524 .596297 .499853
6 1 .511514 .441283 .986516
7 1 .505663 .471623 .017011
ITEM: TIMESTEP
150
ITEM: NUMBER OF ATOMS
7
ITEM: BOX BOUNDS ss ss ss
-3.3539 2.8851
-2.7190 3.4344
-2.0688 1.9264
ITEM: ATOMS id type xs ys zs
1 1 .490700 .989624 .569033
2 1 .993755 .639302 .496909
3 1 .835232 .042692 .468584
4 1 .226956 .009765 .483557
5 1 .009085 .597536 .503924
6 1 .512196 .441603 .984897
7 1 .502563 .471278 .015118
ITEM: TIMESTEP
200
ITEM: NUMBER OF ATOMS
7
ITEM: BOX BOUNDS ss ss ss
-3.3539 2.8951
-2.7385 3.4312
-2.0688 1.9264
ITEM: ATOMS id type xs ys zs
1 1 .489887 .991572 .566029
2 1 .993273 .645148 .497180
3 1 .834631 .045106 .469102
4 1 .226194 .012359 .480353
5 1 .009250 .597546 .501378
6 1 .510158 .444028 .983888
7 1 .505825 .473251 .013156
ITEM: TIMESTEP
250
ITEM: NUMBER OF ATOMS
7
ITEM: BOX BOUNDS ss ss ss
-3.3539 2.8991
-2.7301 3.4324
-2.0685 1.9264
ITEM: ATOMS id type xs ys zs
1 1 .487508 .991679 .566914
2 1 .994352 .642788 .495901
3 1 .834354 .044710 .472882
4 1 .223636 .011295 .479616
5 1 .009247 .596288 .501821
6 1 .507428 .444166 .987758
7 1 .506052 .472070 .012324
ITEM: TIMESTEP
300
ITEM: NUMBER OF ATOMS
7
ITEM: BOX BOUNDS ss ss ss
-3.3539 2.9094
-2.7287 3.4352
-2.0677 1.9264
ITEM: ATOMS id type xs ys zs
1 1 .483959 .990060 .566287
2 1 .994224 .646879 .492626
3 1 .831071 .043224 .472763
4 1 .225152 .011243 .479218
5 1 .009702 .596051 .503918
6 1 .509946 .443822 .983912
7 1 .506369 .470035 .012692
ITEM: TIMESTEP
350
ITEM: NUMBER OF ATOMS
7
ITEM: BOX BOUNDS ss ss ss
-3.3539 2.9135
-2.7301 3.4347
-2.0713 1.9264
ITEM: ATOMS id type xs ys zs
1 1 .484045 .989507 .566533
2 1 .993198 .646525 .490622
3 1 .833006 .042681 .473312
4 1 .225253 .012464 .477053
5 1 .009981 .596153 .506211
6 1 .509910 .444639 .984600
7 1 .506084 .470401 .014892
ITEM: TIMESTEP
400
ITEM: NUMBER OF ATOMS
7
ITEM: BOX BOUNDS ss ss ss
-3.3636 2.9185
-2.7226 3.4355
-2.0686 1.9200
ITEM: ATOMS id type xs ys zs
1 1 .482850 .987114 .567067
2 1 .991777 .646353 .491791
3 1 .831327 .043717 .474586
4 1 .226507 .010746 .478731
5 1 .011092 .596298 .507765
6 1 .509772 .442677 .987466
7 1 .505659 .469877 .015368
ITEM: TIMESTEP
1
ITEM: NUMBER OF ATOMS
7
ITEM: BOX BOUNDS ss ss ss
-3.3472 2.9135
-2.7157 3.4205
-2.0646 1.9200
ITEM: ATOMS id type xs ys zs
1 1 .490197 .994446 .569667
2 1 .988237 .642327 .494360
3 1 .832427 .041473 .467701
4 1 .225250 .007290 .483419
5 1 .008157 .596136 .501693
6 1 .508319 .442655 .989574
7 1 .501179 .470148 .013880
ITEM: TIMESTEP
50
ITEM: NUMBER OF ATOMS
7
ITEM: BOX BOUNDS ss ss ss
-3.3472 2.9135
-2.7157 3.4205
-2.0646 1.9200
ITEM: ATOMS id type xs ys zs
1 1 .489193 .993413 .569516
2 1 .988248 .642929 .495283
3 1 .833382 .041889 .468212
4 1 .224851 .008340 .482172
5 1 .008225 .596193 .502260
6 1 .508528 .443102 .989182
7 1 .501956 .469967 .014442
ITEM: TIMESTEP
100
ITEM: NUMBER OF ATOMS
7
ITEM: BOX BOUNDS ss ss ss
-3.3472 2.9135
-2.7157 3.4348
-2.0646 1.9200
ITEM: ATOMS id type xs ys zs
1 1 .488204 .990200 .571208
2 1 .988778 .643404 .496558
3 1 .834715 .042707 .466589
4 1 .225049 .010879 .481347
5 1 .009257 .594923 .502292
6 1 .506895 .441689 .988041
7 1 .502249 .470286 .012187
ITEM: TIMESTEP
150
ITEM: NUMBER OF ATOMS
7
ITEM: BOX BOUNDS ss ss ss
-3.3472 2.9135
-2.7207 3.4341
-2.0646 1.9200
ITEM: ATOMS id type xs ys zs
1 1 .489494 .989433 .568418
2 1 .989892 .640763 .498731
3 1 .833642 .044611 .467911
4 1 .224774 .007053 .482841
5 1 .008120 .596102 .502387
6 1 .505803 .439345 .987110
7 1 .503471 .468705 .011726
ITEM: TIMESTEP
200
ITEM: NUMBER OF ATOMS
7
ITEM: BOX BOUNDS ss ss ss
-3.3472 2.9135
-2.7291 3.4418
-2.0692 1.9241
ITEM: ATOMS id type xs ys zs
1 1 .487469 .987208 .565877
2 1 .988093 .640981 .499480
3 1 .832484 .044883 .467567
4 1 .223799 .006704 .481905
5 1 .011892 .596937 .505228
6 1 .506762 .438599 .986021
7 1 .503278 .469492 .011554
ITEM: TIMESTEP
250
ITEM: NUMBER OF ATOMS
7
ITEM: BOX BOUNDS ss ss ss
-3.3517 2.9076
-2.7283 3.4271
-2.0646 1.9262
ITEM: ATOMS id type xs ys zs
1 1 .489392 .988597 .564939
2 1 .988277 .643048 .499863
3 1 .833952 .045426 .468480
4 1 .226627 .006821 .480992
5 1 .011071 .597176 .505820
6 1 .506496 .439545 .986971
7 1 .504773 .473810 .008423
ITEM: TIMESTEP
300
ITEM: NUMBER OF ATOMS
7
ITEM: BOX BOUNDS ss ss ss
-3.3576 2.9078
-2.7410 3.4303
-2.0678 1.9252
ITEM: ATOMS id type xs ys zs
1 1 .488210 .987495 .562515
2 1 .988475 .642767 .500484
3 1 .833505 .048038 .465877
4 1 .226893 .007817 .479036
5 1 .013007 .598400 .504093
6 1 .507054 .440666 .984876
7 1 .505018 .475260 .009453
ITEM: TIMESTEP
350
ITEM: NUMBER OF ATOMS
7
ITEM: BOX BOUNDS ss ss ss
-3.3562 2.9011
-2.7449 3.4267
-2.0741 1.9324
ITEM: ATOMS id type xs ys zs
1 1 .489728 .988564 .562269
2 1 .990266 .644349 .495108
3 1 .834182 .048298 .466103
4 1 .225932 .009868 .475967
5 1 .012483 .600263 .503754
6 1 .504867 .443260 .983079
7 1 .506420 .475034 .012452
ITEM: TIMESTEP
400
ITEM: NUMBER OF ATOMS
7
ITEM: BOX BOUNDS ss ss ss
-3.3504 2.9066
-2.7396 3.4290
-2.0758 1.9451
ITEM: ATOMS id type xs ys zs
1 1 .487662 .988095 .564009
2 1 .989652 .642409 .497487
3 1 .829599 .045431 .464280
4 1 .227123 .008345 .476664
5 1 .010152 .599079 .500318
6 1 .506772 .439268 .983186
7 1 .504131 .470648 .013699
ITEM: TIMESTEP
450
ITEM: NUMBER OF ATOMS
7
ITEM: BOX BOUNDS ss ss ss
-3.3551 2.9068
-2.7466 3.4324
-2.0738 1.9376
ITEM: ATOMS id type xs ys zs
1 1 .488469 .988665 .563594
2 1 .990812 .640576 .497784
3 1 .830651 .045039 .464661
4 1 .227992 .009595 .477969
5 1 .008771 .601155 .503301
6 1 .508049 .440674 .981733
7 1 .504096 .472073 .011747
ITEM: TIMESTEP
500
ITEM: NUMBER OF ATOMS
7
ITEM: BOX BOUNDS ss ss ss
-3.3574 2.9091
-2.7421 3.4240
-2.0746 1.9199
ITEM: ATOMS id type xs ys zs
1 1 .491546 .992827 .570417
2 1 .993758 .645891 .501405
3 1 .833873 .048130 .464738
4 1 .223572 .011240 .481833
5 1 .010180 .598301 .506421
6 1 .507120 .443744 .987301
7 1 .505674 .474501 .020714
ITEM: TIMESTEP
550
ITEM: NUMBER OF ATOMS
7
ITEM: BOX BOUNDS ss ss ss
-3.3512 2.9115
-2.7352 3.4334
-2.0697 1.9159
ITEM: ATOMS id type xs ys zs
1 1 .483705 .986807 .570623
2 1 .987969 .644369 .491529
3 1 .831260 .043384 .472893
4 1 .223052 .008682 .483443
5 1 .008861 .595611 .504086
6 1 .506725 .441624 .990501
7 1 .502215 .468223 .011178
ITEM: TIMESTEP
600
ITEM: NUMBER OF ATOMS
7
ITEM: BOX BOUNDS ss ss ss
-3.3529 2.8967
-2.7234 3.4081
-2.0881 1.9182
ITEM: ATOMS id type xs ys zs
1 1 .485036 .988810 .577167
2 1 .989399 .643778 .496743
3 1 .833920 .044441 .473996
4 1 .224179 .008711 .481532
5 1 .009620 .599816 .506322
6 1 .508386 .439787 .988277
7 1 .501067 .473416 .010630
ITEM: TIMESTEP
650
ITEM: NUMBER OF ATOMS
7
ITEM: BOX BOUNDS ss ss ss
-3.3565 2.9103
-2.7245 3.4176
-2.0822 1.9204
ITEM: ATOMS id type xs ys zs
1 1 .487424 .986760 .564173
2 1 .992861 .646235 .487967
3 1 .832342 .042640 .472299
4 1 .225219 .007739 .480399
5 1 .008476 .602549 .504060
6 1 .512027 .441494 .985612
7 1 .500600 .467879 .022460
ITEM: TIMESTEP
700
ITEM: NUMBER OF ATOMS
7
ITEM: BOX BOUNDS ss ss ss
-3.3530 2.9060
-2.7271 3.4191
-2.0822 1.9278
ITEM: ATOMS id type xs ys zs
1 1 .489495 .992466 .566812
2 1 .989529 .646165 .490581
3 1 .832687 .045889 .477602
4 1 .221983 .012830 .485275
5 1 .009488 .605819 .503552
6 1 .508200 .443465 .986342
7 1 .502110 .469438 .018625
ITEM: TIMESTEP
750
ITEM: NUMBER OF ATOMS
7
ITEM: BOX BOUNDS ss ss ss
-3.3540 2.9081
-2.7363 3.4203
-2.0837 1.9169
ITEM: ATOMS id type xs ys zs
1 1 .485560 .990740 .575648
2 1 .990331 .642696 .501993
3 1 .834620 .044993 .480196
4 1 .223029 .013359 .482684
5 1 .008013 .602916 .504175
6 1 .506199 .444106 .989535
7 1 .503301 .468613 .020392
ITEM: TIMESTEP
800
ITEM: NUMBER OF ATOMS
7
ITEM: BOX BOUNDS ss ss ss
-3.3566 2.9022
-2.7273 3.4258
-2.0843 1.9176
ITEM: ATOMS id type xs ys zs
1 1 .486403 .987759 .575764
2 1 .992070 .644298 .502736
3 1 .835731 .044214 .481057
4 1 .224038 .013327 .484622
5 1 .008142 .601858 .501718
6 1 .506024 .441591 .988063
7 1 .504270 .468098 .020551
ITEM: TIMESTEP
850
ITEM: NUMBER OF ATOMS
7
ITEM: BOX BOUNDS ss ss ss
-3.3582 2.9007
-2.7219 3.4139
-2.0777 1.9170
ITEM: ATOMS id type xs ys zs
1 1 .486124 .990431 .573970
2 1 .992105 .645749 .500487
3 1 .833750 .043494 .478040
4 1 .223264 .013276 .483851
5 1 .007329 .603167 .501329
6 1 .506961 .441249 .990643
7 1 .504603 .467808 .020057
ITEM: TIMESTEP
900
ITEM: NUMBER OF ATOMS
7
ITEM: BOX BOUNDS ss ss ss
-3.3573 2.8962
-2.7254 3.4181
-2.0766 1.9152
ITEM: ATOMS id type xs ys zs
1 1 .485753 .989317 .575507
2 1 .993529 .642220 .509270
3 1 .835535 .044792 .479399
4 1 .223248 .015359 .487208
5 1 .007156 .601011 .499807
6 1 .506566 .443995 .993559
7 1 .505714 .469186 .018757
ITEM: TIMESTEP
1
ITEM: NUMBER OF ATOMS
7
ITEM: BOX BOUNDS ss ss ss
-3.3496 2.8963
-2.7241 3.4135
-2.0776 1.9201
ITEM: ATOMS id type xs ys zs
1 1 .491751 .995594 .571058
2 1 .990976 .643553 .495997
3 1 .834765 .042833 .469423
4 1 .226176 .008676 .485101
5 1 .008548 .597386 .503326
6 1 .509910 .443917 .989610
7 1 .502778 .471405 .017060
ITEM: TIMESTEP
50
ITEM: NUMBER OF ATOMS
7
ITEM: BOX BOUNDS ss ss ss
-3.3496 2.8963
-2.7241 3.4191
-2.0776 1.9201
ITEM: ATOMS id type xs ys zs
1 1 .491305 .992956 .569921
2 1 .992016 .642487 .496863
3 1 .834941 .042282 .469919
4 1 .226183 .008624 .484999
5 1 .009192 .596225 .504382
6 1 .511001 .443452 .989510
7 1 .503884 .470860 .017116
ITEM: TIMESTEP
100
ITEM: NUMBER OF ATOMS
7
ITEM: BOX BOUNDS ss ss ss
-3.3496 2.8963
-2.7241 3.4304
-2.0776 1.9201
ITEM: ATOMS id type xs ys zs
1 1 .489445 .992127 .571295
2 1 .991645 .641540 .498393
3 1 .835530 .044449 .470902
4 1 .225237 .007677 .483177
5 1 .007568 .597905 .506175
6 1 .509833 .442409 .991962
7 1 .502660 .470039 .019072
ITEM: TIMESTEP
150
ITEM: NUMBER OF ATOMS
7
ITEM: BOX BOUNDS ss ss ss
-3.3496 2.8963
-2.7257 3.4392
-2.0776 1.9219
ITEM: ATOMS id type xs ys zs
1 1 .489074 .989313 .569111
2 1 .993503 .640959 .496210
3 1 .836339 .046450 .468020
4 1 .224532 .009279 .484756
5 1 .007716 .598757 .507965
6 1 .511242 .442305 .993794
7 1 .503119 .471124 .020281
ITEM: TIMESTEP
200
ITEM: NUMBER OF ATOMS
7
ITEM: BOX BOUNDS ss ss ss
-3.3541 2.8963
-2.7275 3.4425
-2.0776 1.9253
ITEM: ATOMS id type xs ys zs
1 1 .490492 .989155 .570671
2 1 .993089 .641790 .497400
3 1 .835135 .045104 .469578
4 1 .224958 .010713 .482577
5 1 .010515 .599557 .511703
6 1 .510537 .441721 .992288
7 1 .503800 .470368 .018201
ITEM: TIMESTEP
250
ITEM: NUMBER OF ATOMS
7
ITEM: BOX BOUNDS ss ss ss
-3.3496 2.8963
-2.7235 3.4250
-2.0691 1.9263
ITEM: ATOMS id type xs ys zs
1 1 .490125 .990551 .566828
2 1 .994653 .643365 .494211
3 1 .834760 .045659 .470273
4 1 .225161 .010851 .481676
5 1 .011815 .600677 .509580
6 1 .510487 .442166 .988298
7 1 .502222 .472138 .015256
ITEM: TIMESTEP
300
ITEM: NUMBER OF ATOMS
7
ITEM: BOX BOUNDS ss ss ss
-3.3496 2.8939
-2.7190 3.4228
-2.0691 1.9345
ITEM: ATOMS id type xs ys zs
1 1 .487359 .991637 .565773