ITEM: TIMESTEP
1
ITEM: NUMBER OF ATOMS
7
ITEM: BOX BOUNDS ss ss ss
-2.8171 3.2031
-2.6263 3.5097
-2.0934 1.7950
ITEM: ATOMS id type xs ys zs
1 1 .557674 .999407 .425570
2 1 .999351 .564859 .519179
3 1 .717367 .000670 .613197
4 1 .092426 .096919 .522368
5 1 .000684 .713260 .432519
6 1 .453971 .502575 .998913
7 1 .499148 .432703 .000911
ITEM: TIMESTEP
50
ITEM: NUMBER OF ATOMS
7
ITEM: BOX BOUNDS ss ss ss
-2.8403 3.2298
-2.6547 3.5365
-2.1183 1.8160
ITEM: ATOMS id type xs ys zs
1 1 .556785 .995268 .426969
2 1 .995324 .564557 .519620
3 1 .715296 .005030 .612808
4 1 .095470 .100605 .522316
5 1 .004663 .711553 .433669
6 1 .454256 .502535 .993929
7 1 .498374 .433254 .006797
ITEM: TIMESTEP
100
ITEM: NUMBER OF ATOMS
7
ITEM: BOX BOUNDS ss ss ss
-2.8420 3.2472
-2.6618 3.5426
-2.1247 1.8272
ITEM: ATOMS id type xs ys zs
1 1 .554979 .993959 .426599
2 1 .993621 .564108 .520195
3 1 .713373 .006517 .612279
4 1 .095397 .101569 .520655
5 1 .005117 .710786 .431557
6 1 .453748 .502441 .992321
7 1 .495176 .433938 .008273
ITEM: TIMESTEP
150
ITEM: NUMBER OF ATOMS
7
ITEM: BOX BOUNDS ss ss ss
-2.8466 3.2554
-2.6608 3.5430
-2.1293 1.8359
ITEM: ATOMS id type xs ys zs
1 1 .554556 .993712 .425869
2 1 .992535 .563760 .520507
3 1 .713079 .007533 .612419
4 1 .095607 .100903 .519702
5 1 .005962 .709979 .429489
6 1 .454109 .502808 .990879
7 1 .493111 .434099 .009404
ITEM: TIMESTEP
200
ITEM: NUMBER OF ATOMS
7
ITEM: BOX BOUNDS ss ss ss
-2.8560 3.2628
-2.6778 3.5478
-2.1354 1.8409
ITEM: ATOMS id type xs ys zs
1 1 .554849 .992371 .426140
2 1 .991983 .564019 .521187
3 1 .712857 .010937 .613376
4 1 .096733 .103181 .519834
5 1 .007240 .709930 .429055
6 1 .454930 .504227 .990012
7 1 .492264 .436033 .011356
ITEM: TIMESTEP
250
ITEM: NUMBER OF ATOMS
7
ITEM: BOX BOUNDS ss ss ss
-2.8554 3.2651
-2.6579 3.5359
-2.1415 1.8414
ITEM: ATOMS id type xs ys zs
1 1 .554717 .993644 .426929
2 1 .992106 .563295 .522390
3 1 .712647 .008075 .614298
4 1 .096465 .100686 .520564
5 1 .006636 .710315 .429132
6 1 .455065 .503982 .989985
7 1 .491466 .435671 .013555
ITEM: TIMESTEP
300
ITEM: NUMBER OF ATOMS
7
ITEM: BOX BOUNDS ss ss ss
-2.8650 3.2751
-2.6663 3.5439
-2.1400 1.8451
ITEM: ATOMS id type xs ys zs
1 1 .554337 .991736 .426172
2 1 .990890 .562657 .521965
3 1 .711820 .009772 .613280
4 1 .097485 .102241 .519631
5 1 .007358 .709594 .427625
6 1 .455405 .504568 .989035
7 1 .491132 .436283 .013444
ITEM: TIMESTEP
350
ITEM: NUMBER OF ATOMS
7
ITEM: BOX BOUNDS ss ss ss
-2.8706 3.2707
-2.6582 3.5382
-2.1371 1.8445
ITEM: ATOMS id type xs ys zs
1 1 .554920 .992014 .425636
2 1 .992040 .562098 .521643
3 1 .712316 .008905 .612361
4 1 .098136 .101669 .518846
5 1 .007381 .709491 .426606
6 1 .456351 .504928 .989164
7 1 .491883 .436408 .012598
ITEM: TIMESTEP
400
ITEM: NUMBER OF ATOMS
7
ITEM: BOX BOUNDS ss ss ss
-2.8759 3.2768
-2.6531 3.5307
-2.1397 1.8528
ITEM: ATOMS id type xs ys zs
1 1 .554727 .992666 .424945
2 1 .991610 .562016 .521106
3 1 .711942 .008499 .610746
4 1 .098879 .101280 .517975
5 1 .007612 .709888 .425922
6 1 .456369 .505339 .986984
7 1 .491817 .436982 .013158
ITEM: TIMESTEP
1
ITEM: NUMBER OF ATOMS
7
ITEM: BOX BOUNDS ss ss ss
-2.8651 3.2747
-2.6277 3.5136
-2.1329 1.8216
ITEM: ATOMS id type xs ys zs
1 1 .554623 .998771 .428457
2 1 .987700 .564603 .520497
3 1 .711207 .000899 .612952
4 1 .098435 .097065 .523632
5 1 .008480 .712875 .435290
6 1 .452937 .502368 .992215
7 1 .497239 .432556 .010890
ITEM: TIMESTEP
50
ITEM: NUMBER OF ATOMS
7
ITEM: BOX BOUNDS ss ss ss
-2.8651 3.2747
-2.6539 3.5350
-2.1329 1.8216
ITEM: ATOMS id type xs ys zs
1 1 .554533 .995634 .428606
2 1 .987891 .564791 .520598
3 1 .711089 .004886 .613299
4 1 .098399 .100565 .523283
5 1 .008653 .711738 .435350
6 1 .453027 .502595 .992385
7 1 .496890 .433244 .010378
ITEM: TIMESTEP
100
ITEM: NUMBER OF ATOMS
7
ITEM: BOX BOUNDS ss ss ss
-2.8651 3.2747
-2.6600 3.5439
-2.1329 1.8277
ITEM: ATOMS id type xs ys zs
1 1 .554075 .994554 .428065
2 1 .988699 .564508 .520371
3 1 .710933 .005774 .612464
4 1 .097894 .101784 .521973
5 1 .008254 .710824 .433585
6 1 .454081 .502319 .991450
7 1 .495124 .433535 .010191
ITEM: TIMESTEP
150
ITEM: NUMBER OF ATOMS
7
ITEM: BOX BOUNDS ss ss ss
-2.8651 3.2747
-2.6661 3.5489
-2.1376 1.8323
ITEM: ATOMS id type xs ys zs
1 1 .553685 .993634 .428297
2 1 .989160 .564530 .520812
3 1 .710931 .006802 .612220
4 1 .096911 .103576 .521955
5 1 .007369 .710613 .432249
6 1 .454689 .502344 .990523
7 1 .493285 .434453 .011802
ITEM: TIMESTEP
200
ITEM: NUMBER OF ATOMS
7
ITEM: BOX BOUNDS ss ss ss
-2.8651 3.2747
-2.6662 3.5476
-2.1333 1.8351
ITEM: ATOMS id type xs ys zs
1 1 .553726 .992904 .426937
2 1 .990318 .564665 .520417
3 1 .711233 .008000 .610797
4 1 .096215 .104713 .521090
5 1 .006395 .710765 .429082
6 1 .455311 .502808 .990067
7 1 .492260 .435657 .011205
ITEM: TIMESTEP
250
ITEM: NUMBER OF ATOMS
7
ITEM: BOX BOUNDS ss ss ss
-2.8666 3.2747
-2.6602 3.5384
-2.1356 1.8377
ITEM: ATOMS id type xs ys zs
1 1 .553684 .993255 .425759
2 1 .991656 .565441 .520119
3 1 .711965 .008121 .609253
4 1 .096609 .104608 .521123
5 1 .005876 .711109 .427720
6 1 .456580 .504000 .989512
7 1 .491972 .436904 .012036
ITEM: TIMESTEP
300
ITEM: NUMBER OF ATOMS
7
ITEM: BOX BOUNDS ss ss ss
-2.8718 3.2747
-2.6558 3.5409
-2.1329 1.8362
ITEM: ATOMS id type xs ys zs
1 1 .553864 .992348 .424795
2 1 .992384 .564935 .519619
3 1 .712862 .008101 .608391
4 1 .097763 .103861 .521007
5 1 .006452 .710379 .427267
6 1 .457584 .503949 .989308
7 1 .492128 .436905 .011554
ITEM: TIMESTEP
350
ITEM: NUMBER OF ATOMS
7
ITEM: BOX BOUNDS ss ss ss
-2.8776 3.2747
-2.6524 3.5425
-2.1329 1.8390
ITEM: ATOMS id type xs ys zs
1 1 .554509 .991886 .423966
2 1 .992954 .563915 .519282
3 1 .713770 .008084 .607451
4 1 .098929 .102986 .520461
5 1 .007156 .709808 .427128
6 1 .458315 .503849 .987985
7 1 .492333 .436918 .011650
ITEM: TIMESTEP
400
ITEM: NUMBER OF ATOMS
7
ITEM: BOX BOUNDS ss ss ss
-2.8814 3.2773
-2.6548 3.5404
-2.1334 1.8482
ITEM: ATOMS id type xs ys zs
1 1 .554714 .991975 .423063
2 1 .993248 .563627 .518386
3 1 .714113 .008927 .605603
4 1 .099627 .103092 .519474
5 1 .007400 .709908 .425959
6 1 .458454 .504513 .985254
7 1 .492368 .437719 .012007
ITEM: TIMESTEP
1
ITEM: NUMBER OF ATOMS
7
ITEM: BOX BOUNDS ss ss ss
-2.8683 3.2664
-2.6263 3.5165
-2.1176 1.8213
ITEM: ATOMS id type xs ys zs
1 1 .555611 .998304 .426266
2 1 .989045 .564236 .518666
3 1 .712321 .000663 .611491
4 1 .099040 .096807 .521820
5 1 .009011 .712475 .433127
6 1 .453838 .502011 .992250
7 1 .498182 .432218 .007050
ITEM: TIMESTEP
50
ITEM: NUMBER OF ATOMS
7
ITEM: BOX BOUNDS ss ss ss
-2.8683 3.2664
-2.6548 3.5376
-2.1236 1.8213
ITEM: ATOMS id type xs ys zs
1 1 .555445 .995253 .427227
2 1 .989172 .564636 .519342
3 1 .712310 .004956 .612478
4 1 .099004 .100628 .522161
5 1 .009244 .711533 .434218
6 1 .453912 .502403 .992402
7 1 .497942 .432973 .007968
ITEM: TIMESTEP
100
ITEM: NUMBER OF ATOMS
7
ITEM: BOX BOUNDS ss ss ss
-2.8683 3.2664
-2.6599 3.5432
-2.1283 1.8257
ITEM: ATOMS id type xs ys zs
1 1 .555110 .994351 .427431
2 1 .990128 .564448 .520395
3 1 .712384 .005425 .612557
4 1 .098847 .101423 .521180
5 1 .008996 .711156 .433758
6 1 .454850 .502060 .991889
7 1 .496474 .433357 .009239
ITEM: TIMESTEP
150
ITEM: NUMBER OF ATOMS
7
ITEM: BOX BOUNDS ss ss ss
-2.8683 3.2664
-2.6751 3.5466
-2.1290 1.8389
ITEM: ATOMS id type xs ys zs
1 1 .555436 .993351 .425299
2 1 .991251 .564559 .519844
3 1 .713012 .007748 .610056
4 1 .098343 .104424 .518206
5 1 .008738 .712064 .431472
6 1 .455887 .502797 .988695
7 1 .495127 .435315 .010946
ITEM: TIMESTEP
200
ITEM: NUMBER OF ATOMS
7
ITEM: BOX BOUNDS ss ss ss
-2.8683 3.2664
-2.6766 3.5531
-2.1368 1.8523
ITEM: ATOMS id type xs ys zs
1 1 .556602 .992141 .424811
2 1 .992094 .563749 .519337
3 1 .713080 .009063 .608335
4 1 .098006 .104276 .517619
5 1 .009074 .711839 .430233
6 1 .456498 .503276 .985439
7 1 .493729 .435373 .013532
ITEM: TIMESTEP
250
ITEM: NUMBER OF ATOMS
7
ITEM: BOX BOUNDS ss ss ss
-2.8683 3.2664
-2.6698 3.5538
-2.1261 1.8556
ITEM: ATOMS id type xs ys zs
1 1 .557156 .991668 .423091
2 1 .992647 .562958 .517639
3 1 .712985 .008699 .607142
4 1 .097773 .103150 .516173
5 1 .009129 .711193 .427743
6 1 .456883 .503237 .984660
7 1 .492782 .435341 .010887
ITEM: TIMESTEP
300
ITEM: NUMBER OF ATOMS
7
ITEM: BOX BOUNDS ss ss ss
-2.8683 3.2664
-2.6762 3.5612
-2.1264 1.8510
ITEM: ATOMS id type xs ys zs
1 1 .557173 .989919 .423401
2 1 .992899 .562310 .519143
3 1 .712980 .010065 .608330
4 1 .097514 .104266 .516653
5 1 .008673 .710121 .427804
6 1 .457099 .503306 .986141
7 1 .492383 .436234 .011129
ITEM: TIMESTEP
350
ITEM: NUMBER OF ATOMS
7
ITEM: BOX BOUNDS ss ss ss
-2.8683 3.2681
-2.6718 3.5493
-2.1310 1.8560
ITEM: ATOMS id type xs ys zs
1 1 .556801 .991378 .423232
2 1 .993053 .562619 .520013
3 1 .712702 .009534 .608295
4 1 .097259 .104049 .516306
5 1 .008106 .710829 .427526
6 1 .457076 .504020 .985112
7 1 .492268 .437267 .012748
ITEM: TIMESTEP
400
ITEM: NUMBER OF ATOMS
7
ITEM: BOX BOUNDS ss ss ss
-2.8707 3.2749
-2.6662 3.5417
-2.1307 1.8624
ITEM: ATOMS id type xs ys zs
1 1 .555897 .992034 .422293
2 1 .992506 .562336 .520135
3 1 .711750 .008325 .607528
4 1 .097251 .103599 .515333
5 1 .007671 .711157 .425674
6 1 .456702 .504128 .983263
7 1 .492125 .437794 .013169
ITEM: TIMESTEP
1
ITEM: NUMBER OF ATOMS
7
ITEM: BOX BOUNDS ss ss ss
-2.8683 3.2664
-2.6554 3.5165
-2.1176 1.8225
ITEM: ATOMS id type xs ys zs
1 1 .555610 .998314 .426139
2 1 .989045 .566297 .518506
3 1 .712322 .005383 .611302
4 1 .099039 .101070 .521660
5 1 .009014 .713828 .432999
6 1 .453839 .504366 .991949
7 1 .498184 .434899 .007045
ITEM: TIMESTEP
50
ITEM: NUMBER OF ATOMS
7
ITEM: BOX BOUNDS ss ss ss
-2.8683 3.2664
-2.6554 3.5400
-2.1237 1.8225
ITEM: ATOMS id type xs ys zs
1 1 .555494 .994867 .427202
2 1 .989069 .564590 .519127
3 1 .712292 .005105 .612302
4 1 .098982 .100690 .522084
5 1 .009242 .711298 .434135
6 1 .453838 .502273 .992185
7 1 .498023 .432851 .007976
ITEM: TIMESTEP
100
ITEM: NUMBER OF ATOMS
7
ITEM: BOX BOUNDS ss ss ss
-2.8683 3.2664
-2.6626 3.5452
-2.1306 1.8364
ITEM: ATOMS id type xs ys zs
1 1 .555676 .993999 .427065
2 1 .989873 .564842 .518725
3 1 .712488 .006309 .611147
4 1 .098828 .101526 .520776
5 1 .009559 .710642 .431705
6 1 .454701 .502154 .988950
7 1 .496166 .433168 .008891
ITEM: TIMESTEP
150
ITEM: NUMBER OF ATOMS
7
ITEM: BOX BOUNDS ss ss ss
-2.8683 3.2664
-2.6597 3.5481
-2.1393 1.8269
ITEM: ATOMS id type xs ys zs
1 1 .557416 .992297 .428951
2 1 .991277 .562894 .521710
3 1 .713450 .006131 .612251
4 1 .098699 .100378 .524226
5 1 .010316 .709116 .429917
6 1 .456276 .502004 .991052
7 1 .495028 .432794 .010442
ITEM: TIMESTEP
200
ITEM: NUMBER OF ATOMS
7
ITEM: BOX BOUNDS ss ss ss
-2.8683 3.2664
-2.6645 3.5511
-2.1479 1.8325
ITEM: ATOMS id type xs ys zs
1 1 .557330 .991473 .429485
2 1 .992040 .562360 .522218
3 1 .713571 .006892 .612098
4 1 .098562 .101054 .524772
5 1 .010283 .708558 .429041
6 1 .457055 .502150 .989528
7 1 .494271 .433402 .012638
ITEM: TIMESTEP
250
ITEM: NUMBER OF ATOMS
7
ITEM: BOX BOUNDS ss ss ss
-2.8683 3.2664
-2.6653 3.5435
-2.1411 1.8346
ITEM: ATOMS id type xs ys zs
1 1 .556833 .992444 .428164
2 1 .992436 .562653 .521401
3 1 .713403 .007232 .611065
4 1 .098683 .101510 .523852
5 1 .009522 .709043 .426981
6 1 .457653 .503392 .989476
7 1 .493440 .434739 .011724
ITEM: TIMESTEP
300
ITEM: NUMBER OF ATOMS
7
ITEM: BOX BOUNDS ss ss ss
-2.8683 3.2670
-2.6675 3.5446
-2.1377 1.8389
ITEM: ATOMS id type xs ys zs
1 1 .556410 .992077 .426990
2 1 .992640 .562300 .520640
3 1 .713336 .008124 .609901
4 1 .098961 .102070 .523166
5 1 .009099 .708718 .425175
6 1 .457937 .504161 .988673
7 1 .493096 .435736 .011407
ITEM: TIMESTEP
350
ITEM: NUMBER OF ATOMS
7
ITEM: BOX BOUNDS ss ss ss
-2.8558 3.2774
-2.6626 3.5428
-2.1413 1.8406
ITEM: ATOMS id type xs ys zs
1 1 .554529 .992108 .427320
2 1 .991382 .561680 .520926
3 1 .711514 .007844 .610145
4 1 .097120 .101368 .523352
5 1 .006802 .708429 .424824
6 1 .456022 .504313 .988537
7 1 .490989 .435978 .012693
ITEM: TIMESTEP
400
ITEM: NUMBER OF ATOMS
7
ITEM: BOX BOUNDS ss ss ss
-2.8607 3.2776
-2.6600 3.5391
-2.1530 1.8449
ITEM: ATOMS id type xs ys zs
1 1 .555357 .992209 .428978
2 1 .992010 .561317 .521942
3 1 .711678 .008016 .610319
4 1 .097812 .100958 .524122
5 1 .007298 .708515 .425318
6 1 .456321 .504660 .987705
7 1 .491072 .436453 .015721
ITEM: TIMESTEP
1
ITEM: NUMBER OF ATOMS
7
ITEM: BOX BOUNDS ss ss ss
-2.8460 3.2597
-2.6377 3.5163
-2.1137 1.8189
ITEM: ATOMS id type xs ys zs
1 1 .554602 .998333 .425958
2 1 .990095 .565060 .518501
3 1 .712058 .002516 .611477
4 1 .095863 .098485 .521662
5 1 .005407 .713022 .432834
6 1 .452346 .502950 .992842
7 1 .496907 .433280 .006068
ITEM: TIMESTEP
50
ITEM: NUMBER OF ATOMS
7
ITEM: BOX BOUNDS ss ss ss
-2.8460 3.2597
-2.6506 3.5348
-2.1210 1.8189
ITEM: ATOMS id type xs ys zs
1 1 .554541 .995779 .427104
2 1 .990095 .564680 .519164
3 1 .711975 .004282 .612667
4 1 .095858 .100014 .522261
5 1 .005758 .711727 .434201
6 1 .452262 .502283 .992996
7 1 .496884 .432649 .007296
ITEM: TIMESTEP
100
ITEM: NUMBER OF ATOMS
7
ITEM: BOX BOUNDS ss ss ss
-2.8475 3.2597
-2.6602 3.5480
-2.1314 1.8279
ITEM: ATOMS id type xs ys zs
1 1 .554614 .993753 .427118
2 1 .990722 .564293 .520142
3 1 .712457 .005765 .613006
4 1 .095874 .101416 .521376
5 1 .006500 .710727 .434090
6 1 .453250 .501615 .991091
7 1 .495610 .432489 .009287
ITEM: TIMESTEP
150
ITEM: NUMBER OF ATOMS
7
ITEM: BOX BOUNDS ss ss ss
-2.8460 3.2597
-2.6697 3.5484
-2.1397 1.8361
ITEM: ATOMS id type xs ys zs
1 1 .554333 .993548 .426575
2 1 .991057 .564332 .520961
3 1 .712623 .007045 .612921
4 1 .095706 .103266 .520878
5 1 .006757 .710546 .434037
6 1 .454894 .502548 .989406
7 1 .493979 .433731 .012106
ITEM: TIMESTEP
200
ITEM: NUMBER OF ATOMS
7
ITEM: BOX BOUNDS ss ss ss
-2.8471 3.2597
-2.6803 3.5560
-2.1306 1.8419
ITEM: ATOMS id type xs ys zs
1 1 .554238 .992651 .424368
2 1 .991260 .563617 .519867
3 1 .711947 .008333 .611378
4 1 .095676 .105078 .519498
5 1 .006823 .710296 .432015
6 1 .456001 .503857 .988609
7 1 .492544 .435063 .010206
ITEM: TIMESTEP
250
ITEM: NUMBER OF ATOMS
7
ITEM: BOX BOUNDS ss ss ss
-2.8538 3.2597
-2.6757 3.5595
-2.1363 1.8517
ITEM: ATOMS id type xs ys zs
1 1 .554763 .992296 .423949
2 1 .991341 .562511 .519855
3 1 .711559 .007214 .610618
4 1 .096532 .104460 .519014
5 1 .007587 .710075 .431653
6 1 .456996 .503667 .986522
7 1 .492050 .435171 .011803
ITEM: TIMESTEP
300
ITEM: NUMBER OF ATOMS
7
ITEM: BOX BOUNDS ss ss ss
-2.8592 3.2597
-2.6883 3.5658
-2.1372 1.8521
ITEM: ATOMS id type xs ys zs
1 1 .555646 .989828 .423483
2 1 .992132 .562529 .520388
3 1 .712182 .010274 .610680
4 1 .097691 .105792 .517237
5 1 .007310 .708824 .431451
6 1 .457205 .504684 .986179
7 1 .492325 .436559 .011618
ITEM: TIMESTEP
350
ITEM: NUMBER OF ATOMS
7
ITEM: BOX BOUNDS ss ss ss
-2.8748 3.2650
-2.6808 3.5606
-2.1435 1.8513
ITEM: ATOMS id type xs ys zs
1 1 .556905 .987285 .422962
2 1 .993120 .562449 .522027
3 1 .713992 .011703 .611352
4 1 .100660 .103486 .514139
5 1 .007285 .707127 .430314
6 1 .456633 .505030 .984082
7 1 .493668 .436292 .011239
ITEM: TIMESTEP
400
ITEM: NUMBER OF ATOMS
7
ITEM: BOX BOUNDS ss ss ss
-2.8780 3.2684
-2.6539 3.5422
-2.1451 1.8624
ITEM: ATOMS id type xs ys zs
1 1 .556594 .989651 .421237
2 1 .993320 .561863 .520586
3 1 .713858 .008032 .609863
4 1 .100706 .099626 .512195
5 1 .007006 .707692 .428416
6 1 .456482 .504140 .980590
7 1 .493754 .435426 .011565
ITEM: TIMESTEP
1
ITEM: NUMBER OF ATOMS
7
ITEM: BOX BOUNDS ss ss ss
-2.8796 3.2597
-2.6377 3.5163
-2.1252 1.8189
ITEM: ATOMS id type xs ys zs
1 1 .557041 .998330 .427633
2 1 .990147 .565058 .519907
3 1 .713634 .002514 .612615
4 1 .100809 .098487 .523058
5 1 .010848 .713024 .434492
6 1 .455340 .502950 .992870
7 1 .499662 .433281 .008970
ITEM: TIMESTEP
50
ITEM: NUMBER OF ATOMS
7
ITEM: BOX BOUNDS ss ss ss
-2.8796 3.2597
-2.6515 3.5371
-2.1252 1.8190
ITEM: ATOMS id type xs ys zs
1 1 .556948 .995477 .427755
2 1 .990083 .564626 .519575
3 1 .713559 .004414 .613073
4 1 .100738 .100167 .522667
5 1 .011183 .711520 .434953
6 1 .455229 .502090 .993008
7 1 .499725 .432564 .008413
ITEM: TIMESTEP
100
ITEM: NUMBER OF ATOMS
7
ITEM: BOX BOUNDS ss ss ss
-2.8796 3.2597
-2.6655 3.5450
-2.1343 1.8352
ITEM: ATOMS id type xs ys zs
1 1 .556593 .993884 .426713
2 1 .990893 .565244 .518991
3 1 .713773 .007170 .612384
4 1 .100274 .102103 .520233
5 1 .011471 .710876 .433465
6 1 .455761 .502601 .989251
7 1 .498711 .433079 .009061
ITEM: TIMESTEP
150
ITEM: NUMBER OF ATOMS
7
ITEM: BOX BOUNDS ss ss ss
-2.8796 3.2597
-2.6691 3.5514
-2.1515 1.8392
ITEM: ATOMS id type xs ys zs
1 1 .556366 .992010 .428798
2 1 .991768 .565184 .520510
3 1 .713938 .008447 .614047
4 1 .099979 .102339 .520197
5 1 .011647 .709575 .434316
6 1 .456457 .502425 .989319
7 1 .497927 .432952 .011763
ITEM: TIMESTEP
200
ITEM: NUMBER OF ATOMS
7
ITEM: BOX BOUNDS ss ss ss
-2.8796 3.2597
-2.6617 3.5524
-2.1534 1.8476
ITEM: ATOMS id type xs ys zs
1 1 .556525 .991387 .428060
2 1 .992116 .564555 .519600
3 1 .714066 .007725 .613115
4 1 .099911 .101337 .518619
5 1 .011767 .708360 .432745
6 1 .457332 .501888 .987395
7 1 .497040 .432113 .011564
ITEM: TIMESTEP
250
ITEM: NUMBER OF ATOMS
7
ITEM: BOX BOUNDS ss ss ss
-2.8796 3.2597
-2.6603 3.5480
-2.1560 1.8449
ITEM: ATOMS id type xs ys zs
1 1 .556606 .991946 .427574
2 1 .992212 .564820 .520390
3 1 .714316 .008188 .614425
4 1 .099621 .101132 .518553
5 1 .011730 .708246 .432236
6 1 .457958 .502433 .987974
7 1 .496133 .432605 .011767
ITEM: TIMESTEP
300
ITEM: NUMBER OF ATOMS
7
ITEM: BOX BOUNDS ss ss ss
-2.8796 3.2602
-2.6624 3.5463
-2.1610 1.8447
ITEM: ATOMS id type xs ys zs
1 1 .555399 .992800 .425205
2 1 .991529 .564482 .521653
3 1 .714204 .009226 .615486
4 1 .099662 .102212 .518309
5 1 .010189 .707979 .430424
6 1 .457098 .504099 .988163
7 1 .495536 .434497 .013749
ITEM: TIMESTEP
350
ITEM: NUMBER OF ATOMS
7
ITEM: BOX BOUNDS ss ss ss
-2.8796 3.2666
-2.6561 3.5479
-2.1504 1.8403
ITEM: ATOMS id type xs ys zs
1 1 .554172 .992046 .423015
2 1 .990478 .563044 .521971
3 1 .713153 .008894 .615458
4 1 .100211 .101622 .517437
5 1 .008968 .707329 .428422
6 1 .456136 .503989 .989302
7 1 .494701 .434958 .011664
ITEM: TIMESTEP
400
ITEM: NUMBER OF ATOMS
7
ITEM: BOX BOUNDS ss ss ss
-2.8796 3.2633
-2.6471 3.5468
-2.1478 1.8511
ITEM: ATOMS id type xs ys zs
1 1 .554110 .991450 .421135
2 1 .991107 .562224 .521280
3 1 .713357 .008011 .614011
4 1 .100081 .100529 .514860
5 1 .008186 .706913 .426588
6 1 .456239 .503846 .986601
7 1 .494490 .434606 .011012
ITEM: TIMESTEP
1
ITEM: NUMBER OF ATOMS
7
ITEM: BOX BOUNDS ss ss ss
-2.8796 3.2597
-2.6377 3.5247
-2.1291 1.8201
ITEM: ATOMS id type xs ys zs
1 1 .557036 .996989 .428066
2 1 .990151 .564299 .520221
3 1 .713634 .002513 .612809
4 1 .100809 .098354 .523371
5 1 .010850 .712065 .434916
6 1 .455343 .502269 .992576
7 1 .499660 .432694 .009937
ITEM: TIMESTEP
50
ITEM: NUMBER OF ATOMS
7
ITEM: BOX BOUNDS ss ss ss
-2.8796 3.2597
-2.6517 3.5384
-2.1291 1.8201
ITEM: ATOMS id type xs ys zs
1 1 .556933 .995328 .428157
2 1 .989970 .564496 .519850
3 1 .713556 .004329 .613272
4 1 .100840 .100177 .523096
5 1 .011209 .711446 .435422
6 1 .455191 .502063 .992615
7 1 .499822 .432490 .009325
ITEM: TIMESTEP
100
ITEM: NUMBER OF ATOMS
7
ITEM: BOX BOUNDS ss ss ss
-2.8796 3.2597
-2.6638 3.5513
-2.1344 1.8303
ITEM: ATOMS id type xs ys zs
1 1 .556851 .993489 .427564
2 1 .990778 .564217 .520174
3 1 .713875 .005756 .612387
4 1 .100946 .102075 .521992
5 1 .011221 .710376 .434306
6 1 .456419 .501895 .990772
7 1 .498296 .432587 .010097
ITEM: TIMESTEP
150
ITEM: NUMBER OF ATOMS
7
ITEM: BOX BOUNDS ss ss ss
-2.8796 3.2597
-2.6717 3.5581
-2.1368 1.8404
ITEM: ATOMS id type xs ys zs
1 1 .556813 .992404 .426506
2 1 .991409 .564472 .520890
3 1 .713976 .006615 .612270
4 1 .100536 .103145 .519934
5 1 .011470 .710232 .433038
6 1 .457375 .502100 .988439
7 1 .497299 .433046 .011092
ITEM: TIMESTEP
200
ITEM: NUMBER OF ATOMS
7
ITEM: BOX BOUNDS ss ss ss
-2.8796 3.2597
-2.6785 3.5588
-2.1512 1.8367
ITEM: ATOMS id type xs ys zs
1 1 .556832 .992190 .428045
2 1 .991765 .564998 .523860
3 1 .714486 .008350 .615218
4 1 .100354 .103384 .521145
5 1 .011624 .710986 .435256
6 1 .457640 .502654 .989721
7 1 .496356 .434223 .015312
ITEM: TIMESTEP
250
ITEM: NUMBER OF ATOMS
7
ITEM: BOX BOUNDS ss ss ss
-2.8796 3.2597
-2.6831 3.5620
-2.1404 1.8463
ITEM: ATOMS id type xs ys zs
1 1 .556271 .990880 .423174
2 1 .991902 .563495 .518625
3 1 .715585 .011805 .610674
4 1 .100909 .102364 .518954
5 1 .010521 .709177 .432287
6 1 .457257 .502864 .988013
7 1 .494085 .434987 .013232
ITEM: TIMESTEP
300
ITEM: NUMBER OF ATOMS
7
ITEM: BOX BOUNDS ss ss ss
-2.8796 3.2597
-2.6740 3.5457
-2.1323 1.8491
ITEM: ATOMS id type xs ys zs
1 1 .556212 .992912 .421286
2 1 .992293 .564557 .516416
3 1 .716507 .011023 .609039
4 1 .100741 .100413 .516786
5 1 .009773 .709701 .430430
6 1 .457399 .503473 .986818
7 1 .492867 .436054 .012008
ITEM: TIMESTEP
350
ITEM: NUMBER OF ATOMS
7
ITEM: BOX BOUNDS ss ss ss
-2.8796 3.2597
-2.6576 3.5494
-2.1291 1.8451
ITEM: ATOMS id type xs ys zs
1 1 .556501 .992039 .421646
2 1 .993037 .563099 .516733
3 1 .717819 .008947 .608332
4 1 .100881 .097284 .515561
5 1 .008697 .708244 .429838
6 1 .457417 .502128 .986911
7 1 .492286 .435523 .012208
ITEM: TIMESTEP
400
ITEM: NUMBER OF ATOMS
7
ITEM: BOX BOUNDS ss ss ss
-2.8841 3.2673
-2.6519 3.5458
-2.1226 1.8430
ITEM: ATOMS id type xs ys zs
1 1 .556218 .992235 .420827
2 1 .992727 .562876 .516614
3 1 .717575 .008572 .606324
4 1 .101870 .096327 .513484
5 1 .008150 .707926 .428675
6 1 .457331 .502491 .987280
7 1 .491814 .436372 .011126
ITEM: TIMESTEP
1
ITEM: NUMBER OF ATOMS
7
ITEM: BOX BOUNDS ss ss ss
-2.8671 3.2597
-2.6377 3.5205
-2.1144 1.8269
ITEM: ATOMS id type xs ys zs
1 1 .556143 .997657 .425198
2 1 .990130 .564676 .517532
3 1 .713053 .002512 .610307
4 1 .098982 .098420 .520689
5 1 .008843 .712541 .432061
6 1 .454232 .502607 .990827
7 1 .498647 .432984 .006231
ITEM: TIMESTEP
50
ITEM: NUMBER OF ATOMS
7
ITEM: BOX BOUNDS ss ss ss
-2.8671 3.2597
-2.6517 3.5356
-2.1230 1.8269
ITEM: ATOMS id type xs ys zs
1 1 .556040 .995761 .426593
2 1 .989915 .564817 .518132
3 1 .712980 .004352 .611728
4 1 .098990 .100111 .521408
5 1 .009242 .711735 .433989
6 1 .454060 .502296 .990883
7 1 .498910 .432619 .007732
ITEM: TIMESTEP
100
ITEM: NUMBER OF ATOMS
7
ITEM: BOX BOUNDS ss ss ss
-2.8671 3.2597
-2.6689 3.5459
-2.1347 1.8296
ITEM: ATOMS id type xs ys zs
1 1 .555622 .994301 .428018
2 1 .990528 .565541 .520004
3 1 .713091 .006771 .612629
4 1 .099047 .102233 .521576
5 1 .009351 .711276 .435325
6 1 .454940 .502485 .990557
7 1 .497777 .433288 .009900
ITEM: TIMESTEP
150
ITEM: NUMBER OF ATOMS
7
ITEM: BOX BOUNDS ss ss ss
-2.8671 3.2597
-2.6653 3.5560
-2.1402 1.8426
ITEM: ATOMS id type xs ys zs
1 1 .555826 .993095 .426835
2 1 .990889 .564027 .519454
3 1 .713314 .006403 .610079
4 1 .099561 .101383 .518684
5 1 .009298 .709539 .434813
6 1 .456048 .501371 .987880
7 1 .496212 .433177 .011560
ITEM: TIMESTEP
200
ITEM: NUMBER OF ATOMS
7
ITEM: BOX BOUNDS ss ss ss
-2.8671 3.2597
-2.6786 3.5558
-2.1426 1.8402
ITEM: ATOMS id type xs ys zs
1 1 .555981 .993414 .427995
2 1 .991423 .564322 .519606
3 1 .713182 .008853 .609102
4 1 .099700 .103354 .519119
5 1 .009613 .709845 .434034
6 1 .456570 .502757 .989661
7 1 .495096 .436296 .012879
ITEM: TIMESTEP
250
ITEM: NUMBER OF ATOMS
7
ITEM: BOX BOUNDS ss ss ss
-2.8671 3.2597
-2.6732 3.5657
-2.1451 1.8484
ITEM: ATOMS id type xs ys zs
1 1 .555729 .991958 .428201
2 1 .991834 .562490 .518340
3 1 .712578 .008165 .607721
4 1 .099913 .102610 .518655
5 1 .009556 .708244 .431954
6 1 .456816 .501822 .987731
7 1 .494274 .436533 .013469
ITEM: TIMESTEP
300
ITEM: NUMBER OF ATOMS
7
ITEM: BOX BOUNDS ss ss ss
-2.8671 3.2597
-2.6821 3.5579
-2.1433 1.8461
ITEM: ATOMS id type xs ys zs
1 1 .555352 .993312 .429604
2 1 .992196 .562986 .518385
3 1 .711492 .009328 .607129
4 1 .099139 .104650 .518599
5 1 .009270 .709320 .430501
6 1 .457434 .503404 .987901
7 1 .493485 .438518 .013512
ITEM: TIMESTEP
350
ITEM: NUMBER OF ATOMS
7
ITEM: BOX BOUNDS ss ss ss
-2.8671 3.2597
-2.6741 3.5612
-2.1514 1.8522
ITEM: ATOMS id type xs ys zs
1 1 .555091 .992711 .431517
2 1 .992569 .561533 .519346
3 1 .710905 .007827 .606143
4 1 .098395 .103969 .518460
5 1 .008711 .708597 .430182
6 1 .457887 .502780 .985898
7 1 .493155 .438069 .015781
ITEM: TIMESTEP
400
ITEM: NUMBER OF ATOMS
7
ITEM: BOX BOUNDS ss ss ss
-2.8748 3.2667
-2.6723 3.5731
-2.1504 1.8522
ITEM: ATOMS id type xs ys zs
1 1 .555054 .990412 .432556
2 1 .991968 .559825 .519752
3 1 .710373 .007509 .606016
4 1 .099082 .103939 .518203
5 1 .009137 .707244 .429263
6 1 .458069 .502004 .985019
7 1 .493028 .437588 .015113
ITEM: TIMESTEP
1
ITEM: NUMBER OF ATOMS
7
ITEM: BOX BOUNDS ss ss ss
-2.8608 3.2540
-2.6521 3.5285
-2.1143 1.8206
ITEM: ATOMS id type xs ys zs
1 1 .556199 .996379 .425870
2 1 .991036 .564968 .518350
3 1 .713420 .004840 .611281
4 1 .098142 .100397 .521518
5 1 .007820 .712295 .432737
6 1 .454090 .503121 .992427
7 1 .498593 .433749 .006223
ITEM: TIMESTEP
50
ITEM: NUMBER OF ATOMS
7
ITEM: BOX BOUNDS ss ss ss
-2.8608 3.2540
-2.6529 3.5400
-2.1181 1.8226
ITEM: ATOMS id type xs ys zs
1 1 .556117 .995053 .426370
2 1 .990795 .564556 .517985
3 1 .713236 .004488 .611940
4 1 .098134 .100215 .521407
5 1 .008222 .711320 .433713
6 1 .453843 .502048 .991936
7 1 .498893 .432320 .006503
ITEM: TIMESTEP
100
ITEM: NUMBER OF ATOMS
7
ITEM: BOX BOUNDS ss ss ss
-2.8608 3.2540
-2.6690 3.5495
-2.1334 1.8348
ITEM: ATOMS id type xs ys zs
1 1 .555909 .993636 .427764
2 1 .991275 .565157 .519049
3 1 .713238 .006817 .612651
4 1 .098294 .101926 .520818
5 1 .008633 .711067 .434275
6 1 .454289 .502363 .989424
7 1 .497589 .432868 .009620
ITEM: TIMESTEP
150
ITEM: NUMBER OF ATOMS
7
ITEM: BOX BOUNDS ss ss ss
-2.8608 3.2540
-2.6716 3.5529
-2.1368 1.8344
ITEM: ATOMS id type xs ys zs
1 1 .555621 .993442 .429306
2 1 .991073 .565064 .519506
3 1 .713977 .007406 .614514
4 1 .098476 .101540 .520446
5 1 .009366 .711003 .434409
6 1 .455124 .501720 .990085
7 1 .495516 .432943 .009988
ITEM: TIMESTEP
200
ITEM: NUMBER OF ATOMS
7
ITEM: BOX BOUNDS ss ss ss
-2.8608 3.2540
-2.6720 3.5632
-2.1442 1.8419
ITEM: ATOMS id type xs ys zs
1 1 .555531 .992088 .429159
2 1 .991001 .564792 .519934
3 1 .714727 .008024 .614692
4 1 .097990 .101580 .519034
5 1 .009735 .709604 .433401
6 1 .455676 .500431 .988975
7 1 .494109 .432346 .011831
ITEM: TIMESTEP
250
ITEM: NUMBER OF ATOMS
7
ITEM: BOX BOUNDS ss ss ss
-2.8608 3.2540
-2.6831 3.5724
-2.1464 1.8538
ITEM: ATOMS id type xs ys zs
1 1 .555474 .990010 .427348
2 1 .991884 .565421 .519077
3 1 .715669 .010478 .613541
4 1 .097353 .103517 .517366
5 1 .009763 .708824 .431017
6 1 .456255 .500211 .986142
7 1 .494057 .433101 .012310
ITEM: TIMESTEP
300
ITEM: NUMBER OF ATOMS
7
ITEM: BOX BOUNDS ss ss ss
-2.8608 3.2661
-2.6727 3.5713
-2.1410 1.8540
ITEM: ATOMS id type xs ys zs
1 1 .554933 .989007 .424431
2 1 .992118 .564471 .519948
3 1 .715402 .008528 .614479
4 1 .097499 .103328 .518407
5 1 .008653 .708887 .428625
6 1 .456299 .500092 .984557
7 1 .494644 .432586 .011737
ITEM: TIMESTEP
350
ITEM: NUMBER OF ATOMS
7
ITEM: BOX BOUNDS ss ss ss
-2.8608 3.2765
-2.6780 3.5475
-2.1465 1.8424
ITEM: ATOMS id type xs ys zs
1 1 .553413 .992605 .425879
2 1 .990892 .566988 .521467
3 1 .714756 .009913 .616065
4 1 .097023 .104470 .520021
5 1 .007949 .711502 .430871
6 1 .456029 .502604 .987434
7 1 .492835 .435082 .014154
ITEM: TIMESTEP
400
ITEM: NUMBER OF ATOMS
7
ITEM: BOX BOUNDS ss ss ss
-2.8608 3.2776
-2.6688 3.5461
-2.1395 1.8538
ITEM: ATOMS id type xs ys zs
1 1 .552239 .992680 .424253
2 1 .990871 .566581 .517012
3 1 .715379 .009586 .612295
4 1 .096389 .102668 .516782
5 1 .007170 .710236 .429690
6 1 .456223 .501876 .984628
7 1 .491110 .435300 .012743
ITEM: TIMESTEP
1
ITEM: NUMBER OF ATOMS
7
ITEM: BOX BOUNDS ss ss ss
-2.8608 3.2675
-2.6521 3.5285
-2.1156 1.8206
ITEM: ATOMS id type xs ys zs
1 1 .554967 .996381 .426053
2 1 .988843 .564972 .518506
3 1 .711840 .004841 .611407
4 1 .097924 .100396 .521672
5 1 .007805 .712297 .432931
6 1 .453085 .503120 .992428
7 1 .497492 .433750 .006545
ITEM: TIMESTEP
50
ITEM: NUMBER OF ATOMS
7
ITEM: BOX BOUNDS ss ss ss
-2.8608 3.2675
-2.6521 3.5400
-2.1193 1.8206
ITEM: ATOMS id type xs ys zs
1 1 .554913 .995090 .426855
2 1 .988530 .564495 .518419
3 1 .711741 .004422 .612354
4 1 .097954 .100067 .521697
5 1 .008226 .711287 .434226
6 1 .452819 .501949 .992425
7 1 .497849 .432189 .006919
ITEM: TIMESTEP
100
ITEM: NUMBER OF ATOMS
7
ITEM: BOX BOUNDS ss ss ss
-2.8608 3.2675
-2.6677 3.5533
-2.1374 1.8283
ITEM: ATOMS id type xs ys zs
1 1 .554599 .993380 .429035
2 1 .989065 .564666 .520182
3 1 .711862 .006602 .614102
4 1 .097842 .101909 .522040
5 1 .008392 .710655 .435881
6 1 .453712 .501982 .990203
7 1 .496826 .432444 .010149
ITEM: TIMESTEP
150
ITEM: NUMBER OF ATOMS
7
ITEM: BOX BOUNDS ss ss ss
-2.8608 3.2675
-2.6712 3.5614
-2.1509 1.8380
ITEM: ATOMS id type xs ys zs
1 1 .553851 .992621 .430189
2 1 .989448 .564091 .520428
3 1 .711750 .006954 .615489
4 1 .097918 .102120 .522379
5 1 .008684 .709481 .436511
6 1 .454514 .501572 .988245
7 1 .495969 .432026 .012703
ITEM: TIMESTEP
200
ITEM: NUMBER OF ATOMS
7
ITEM: BOX BOUNDS ss ss ss
-2.8677 3.2675
-2.6744 3.5661
-2.1589 1.8401
ITEM: ATOMS id type xs ys zs
1 1 .553896 .991467 .431573
2 1 .989940 .563992 .521373
3 1 .711925 .007497 .617258
4 1 .098737 .102862 .522987
5 1 .009342 .708522 .437058
6 1 .455879 .501880 .988340
7 1 .496043 .431789 .014905
ITEM: TIMESTEP
250
ITEM: NUMBER OF ATOMS
7
ITEM: BOX BOUNDS ss ss ss
-2.8804 3.2675
-2.6714 3.5717
-2.1455 1.8496
ITEM: ATOMS id type xs ys zs
1 1 .554137 .989455 .428685
2 1 .990991 .564066 .519313
3 1 .712230 .007174 .615700
4 1 .099718 .103112 .519059
5 1 .010117 .707989 .433312
6 1 .457360 .501414 .986269
7 1 .496821 .430835 .012559
ITEM: TIMESTEP
300
ITEM: NUMBER OF ATOMS
7
ITEM: BOX BOUNDS ss ss ss
-2.8881 3.2679
-2.6776 3.5692
-2.1540 1.8403
ITEM: ATOMS id type xs ys zs
1 1 .554384 .989031 .429783
2 1 .991640 .565426 .522275
3 1 .712828 .007504 .619582
4 1 .099427 .104125 .520810
5 1 .010515 .708627 .435002
6 1 .457960 .502037 .988078
7 1 .496598 .431002 .017728
ITEM: TIMESTEP
350
ITEM: NUMBER OF ATOMS
7
ITEM: BOX BOUNDS ss ss ss
-2.8901 3.2675
-2.6854 3.5598
-2.1472 1.8548
ITEM: ATOMS id type xs ys zs
1 1 .554055 .990308 .425739