ITEM: TIMESTEP
1
ITEM: NUMBER OF ATOMS
7
ITEM: BOX BOUNDS ss ss ss
-2.8171 3.2031
-2.6263 3.5097
-2.0934 1.7950
ITEM: ATOMS id type xs ys zs
1 1 .557821 .999126 .425652
2 1 .999535 .564751 .518854
3 1 .717160 .001063 .613324
4 1 .092303 .096759 .522420
5 1 .000800 .713555 .432902
6 1 .453953 .502592 .999009
7 1 .499265 .432744 .001241
ITEM: TIMESTEP
50
ITEM: NUMBER OF ATOMS
7
ITEM: BOX BOUNDS ss ss ss
-2.8403 3.2298
-2.6547 3.5365
-2.1183 1.8160
ITEM: ATOMS id type xs ys zs
1 1 .556382 .997015 .428620
2 1 .996140 .562883 .521431
3 1 .716849 .006137 .614133
4 1 .097857 .100595 .521273
5 1 .004663 .711131 .430621
6 1 .452244 .502702 .992492
7 1 .496279 .432781 .006712
ITEM: TIMESTEP
100
ITEM: NUMBER OF ATOMS
7
ITEM: BOX BOUNDS ss ss ss
-2.8420 3.2472
-2.6618 3.5426
-2.1247 1.8272
ITEM: ATOMS id type xs ys zs
1 1 .554705 .994233 .425589
2 1 .991325 .565710 .518075
3 1 .715261 .005702 .612737
4 1 .094822 .101655 .521092
5 1 .005402 .711987 .428620
6 1 .453442 .503703 .990458
7 1 .493370 .434403 .010166
ITEM: TIMESTEP
150
ITEM: NUMBER OF ATOMS
7
ITEM: BOX BOUNDS ss ss ss
-2.8466 3.2554
-2.6608 3.5430
-2.1293 1.8359
ITEM: ATOMS id type xs ys zs
1 1 .555959 .993935 .424097
2 1 .992355 .561619 .523202
3 1 .711813 .005972 .607020
4 1 .093092 .101316 .516518
5 1 .005935 .713114 .432484
6 1 .450873 .500865 .989789
7 1 .494608 .434570 .009000
ITEM: TIMESTEP
200
ITEM: NUMBER OF ATOMS
7
ITEM: BOX BOUNDS ss ss ss
-2.8560 3.2628
-2.6778 3.5478
-2.1354 1.8409
ITEM: ATOMS id type xs ys zs
1 1 .556913 .994072 .423074
2 1 .994268 .562623 .521374
3 1 .714378 .014627 .611250
4 1 .096781 .103534 .523459
5 1 .006373 .705341 .425496
6 1 .454579 .504397 .992612
7 1 .491844 .436164 .008488
ITEM: TIMESTEP
250
ITEM: NUMBER OF ATOMS
7
ITEM: BOX BOUNDS ss ss ss
-2.8554 3.2651
-2.6579 3.5359
-2.1415 1.8414
ITEM: ATOMS id type xs ys zs
1 1 .556197 .991820 .433051
2 1 .990039 .564209 .519307
3 1 .713382 .007552 .615021
4 1 .096562 .103699 .516732
5 1 .003993 .712894 .426252
6 1 .456572 .505981 .992770
7 1 .488361 .434684 .015004
ITEM: TIMESTEP
300
ITEM: NUMBER OF ATOMS
7
ITEM: BOX BOUNDS ss ss ss
-2.8650 3.2751
-2.6663 3.5439
-2.1400 1.8451
ITEM: ATOMS id type xs ys zs
1 1 .554862 .990286 .429187
2 1 .990966 .560369 .518908
3 1 .712054 .012638 .612641
4 1 .097074 .101115 .520730
5 1 .008365 .708972 .428647
6 1 .454101 .505509 .992728
7 1 .489590 .434125 .015115
ITEM: TIMESTEP
350
ITEM: NUMBER OF ATOMS
7
ITEM: BOX BOUNDS ss ss ss
-2.8706 3.2707
-2.6582 3.5382
-2.1371 1.8445
ITEM: ATOMS id type xs ys zs
1 1 .556661 .990968 .424232
2 1 .990727 .561774 .528966
3 1 .711205 .011832 .607905
4 1 .097755 .103048 .517521
5 1 .009032 .707539 .423274
6 1 .454841 .506283 .990206
7 1 .489803 .438181 .007323
ITEM: TIMESTEP
400
ITEM: NUMBER OF ATOMS
7
ITEM: BOX BOUNDS ss ss ss
-2.8759 3.2768
-2.6531 3.5307
-2.1397 1.8528
ITEM: ATOMS id type xs ys zs
1 1 .558742 .990101 .420479
2 1 .990542 .561758 .513180
3 1 .714014 .010710 .605175
4 1 .096525 .101847 .520509
5 1 .006269 .711934 .429276
6 1 .455250 .506156 .984639
7 1 .487674 .436319 .010347
ITEM: TIMESTEP
1
ITEM: NUMBER OF ATOMS
7
ITEM: BOX BOUNDS ss ss ss
-2.8651 3.2747
-2.6277 3.5136
-2.1329 1.8216
ITEM: ATOMS id type xs ys zs
1 1 .555001 .998653 .428631
2 1 .987724 .564463 .520500
3 1 .711196 .001017 .612726
4 1 .098381 .096998 .523812
5 1 .008535 .712746 .435634
6 1 .452848 .502522 .991622
7 1 .497311 .432633 .010968
ITEM: TIMESTEP
50
ITEM: NUMBER OF ATOMS
7
ITEM: BOX BOUNDS ss ss ss
-2.8651 3.2747
-2.6539 3.5350
-2.1329 1.8216
ITEM: ATOMS id type xs ys zs
1 1 .553854 .996074 .430198
2 1 .988745 .564544 .520700
3 1 .708737 .003613 .612755
4 1 .097288 .099042 .520228
5 1 .008242 .711447 .435569
6 1 .453861 .501929 .992098
7 1 .495514 .432779 .012973
ITEM: TIMESTEP
100
ITEM: NUMBER OF ATOMS
7
ITEM: BOX BOUNDS ss ss ss
-2.8651 3.2747
-2.6600 3.5439
-2.1329 1.8277
ITEM: ATOMS id type xs ys zs
1 1 .554981 .993602 .429252
2 1 .986969 .566993 .519135
3 1 .710039 .005578 .610542
4 1 .097389 .101860 .524542
5 1 .007122 .708567 .434435
6 1 .455478 .502163 .992412
7 1 .492027 .433114 .011277
ITEM: TIMESTEP
150
ITEM: NUMBER OF ATOMS
7
ITEM: BOX BOUNDS ss ss ss
-2.8651 3.2747
-2.6661 3.5489
-2.1376 1.8323
ITEM: ATOMS id type xs ys zs
1 1 .551716 .994859 .428084
2 1 .989878 .564413 .522533
3 1 .707817 .006125 .613034
4 1 .094774 .104752 .519073
5 1 .007581 .709541 .431804
6 1 .453529 .502527 .990179
7 1 .492951 .435000 .008257
ITEM: TIMESTEP
200
ITEM: NUMBER OF ATOMS
7
ITEM: BOX BOUNDS ss ss ss
-2.8651 3.2747
-2.6662 3.5476
-2.1333 1.8351
ITEM: ATOMS id type xs ys zs
1 1 .551999 .993097 .428040
2 1 .989761 .566621 .519095
3 1 .706129 .007027 .614192
4 1 .095187 .105749 .516370
5 1 .009515 .710760 .432625
6 1 .455714 .503531 .989599
7 1 .493908 .433135 .008303
ITEM: TIMESTEP
250
ITEM: NUMBER OF ATOMS
7
ITEM: BOX BOUNDS ss ss ss
-2.8666 3.2747
-2.6602 3.5384
-2.1356 1.8377
ITEM: ATOMS id type xs ys zs
1 1 .552163 .993018 .426384
2 1 .989128 .562944 .522275
3 1 .713294 .004376 .606440
4 1 .094169 .104772 .522570
5 1 .004290 .709616 .425710
6 1 .456595 .505123 .995846
7 1 .490597 .436865 .010249
ITEM: TIMESTEP
300
ITEM: NUMBER OF ATOMS
7
ITEM: BOX BOUNDS ss ss ss
-2.8718 3.2747
-2.6558 3.5409
-2.1329 1.8362
ITEM: ATOMS id type xs ys zs
1 1 .554150 .991616 .418250
2 1 .994184 .568559 .521651
3 1 .708382 .007162 .606361
4 1 .099489 .103300 .525851
5 1 .007181 .708164 .427971
6 1 .458598 .502772 .989439
7 1 .494555 .439083 .010963
ITEM: TIMESTEP
350
ITEM: NUMBER OF ATOMS
7
ITEM: BOX BOUNDS ss ss ss
-2.8776 3.2747
-2.6524 3.5425
-2.1329 1.8390
ITEM: ATOMS id type xs ys zs
1 1 .553266 .993296 .423634
2 1 .994283 .566450 .514811
3 1 .715193 .006542 .610654
4 1 .101617 .101485 .522369
5 1 .004956 .711012 .419786
6 1 .461043 .505222 .983359
7 1 .494067 .437205 .016366
ITEM: TIMESTEP
400
ITEM: NUMBER OF ATOMS
7
ITEM: BOX BOUNDS ss ss ss
-2.8814 3.2773
-2.6548 3.5404
-2.1334 1.8482
ITEM: ATOMS id type xs ys zs
1 1 .556216 .993942 .418956
2 1 .991303 .565457 .520250
3 1 .713338 .007143 .614803
4 1 .099941 .105584 .523867
5 1 .009472 .709031 .430038
6 1 .463953 .507143 .987720
7 1 .492494 .438372 .018253
ITEM: TIMESTEP
1
ITEM: NUMBER OF ATOMS
7
ITEM: BOX BOUNDS ss ss ss
-2.8683 3.2664
-2.6263 3.5165
-2.1176 1.8213
ITEM: ATOMS id type xs ys zs
1 1 .555606 .998203 .426511
2 1 .989172 .564117 .518801
3 1 .712221 .000477 .611340
4 1 .099092 .096868 .521697
5 1 .009107 .712441 .432921
6 1 .453670 .501783 .991955
7 1 .498033 .431921 .006816
ITEM: TIMESTEP
50
ITEM: NUMBER OF ATOMS
7
ITEM: BOX BOUNDS ss ss ss
-2.8683 3.2664
-2.6548 3.5376
-2.1236 1.8213
ITEM: ATOMS id type xs ys zs
1 1 .555755 .995401 .431059
2 1 .990262 .561703 .517501
3 1 .711970 .004054 .612122
4 1 .099096 .102245 .521796
5 1 .010018 .708395 .432104
6 1 .454871 .502834 .991839
7 1 .496440 .432937 .010656
ITEM: TIMESTEP
100
ITEM: NUMBER OF ATOMS
7
ITEM: BOX BOUNDS ss ss ss
-2.8683 3.2664
-2.6599 3.5432
-2.1283 1.8257
ITEM: ATOMS id type xs ys zs
1 1 .553898 .996217 .429792
2 1 .991345 .564713 .518143
3 1 .710615 .003291 .612091
4 1 .097065 .101957 .521182
5 1 .009559 .708652 .433209
6 1 .454443 .501946 .992128
7 1 .498302 .431997 .012493
ITEM: TIMESTEP
150
ITEM: NUMBER OF ATOMS
7
ITEM: BOX BOUNDS ss ss ss
-2.8683 3.2664
-2.6751 3.5466
-2.1290 1.8389
ITEM: ATOMS id type xs ys zs
1 1 .559166 .994865 .429587
2 1 .991434 .566736 .520229
3 1 .708660 .008219 .610285
4 1 .098820 .106732 .517748
5 1 .008256 .711076 .437368
6 1 .457335 .502624 .988849
7 1 .494427 .434331 .011696
ITEM: TIMESTEP
200
ITEM: NUMBER OF ATOMS
7
ITEM: BOX BOUNDS ss ss ss
-2.8683 3.2664
-2.6766 3.5531
-2.1368 1.8523
ITEM: ATOMS id type xs ys zs
1 1 .557969 .990732 .426948
2 1 .991456 .564094 .513794
3 1 .711942 .014180 .609687
4 1 .095168 .101547 .513645
5 1 .007380 .709070 .426069
6 1 .455572 .507406 .988801
7 1 .494022 .434417 .015114
ITEM: TIMESTEP
250
ITEM: NUMBER OF ATOMS
7
ITEM: BOX BOUNDS ss ss ss
-2.8683 3.2664
-2.6698 3.5538
-2.1261 1.8556
ITEM: ATOMS id type xs ys zs
1 1 .558249 .989715 .424513
2 1 .991495 .564180 .521347
3 1 .708203 .008962 .600266
4 1 .097281 .103271 .516268
5 1 .011433 .705491 .436261
6 1 .457717 .499504 .986639
7 1 .494074 .437982 .009536
ITEM: TIMESTEP
300
ITEM: NUMBER OF ATOMS
7
ITEM: BOX BOUNDS ss ss ss
-2.8683 3.2664
-2.6762 3.5612
-2.1264 1.8510
ITEM: ATOMS id type xs ys zs
1 1 .553293 .990685 .419923
2 1 .991120 .560383 .520288
3 1 .716818 .005833 .603711
4 1 .098647 .103883 .514710
5 1 .002834 .710897 .425377
6 1 .454918 .497925 .985304
7 1 .490387 .434734 .011376
ITEM: TIMESTEP
350
ITEM: NUMBER OF ATOMS
7
ITEM: BOX BOUNDS ss ss ss
-2.8683 3.2681
-2.6718 3.5493
-2.1310 1.8560
ITEM: ATOMS id type xs ys zs
1 1 .552685 .992496 .418796
2 1 .995108 .564484 .528940
3 1 .714882 .009056 .610514
4 1 .095952 .103833 .515239
5 1 .006165 .710425 .426409
6 1 .459799 .501690 .983467
7 1 .494102 .441423 .015171
ITEM: TIMESTEP
400
ITEM: NUMBER OF ATOMS
7
ITEM: BOX BOUNDS ss ss ss
-2.8707 3.2749
-2.6662 3.5417
-2.1307 1.8624
ITEM: ATOMS id type xs ys zs
1 1 .553259 .993371 .418121
2 1 .992622 .559932 .517688
3 1 .709659 .004002 .612437
4 1 .095272 .103264 .521495
5 1 .004755 .711897 .417905
6 1 .455023 .505717 .978728
7 1 .491366 .439066 .015003
ITEM: TIMESTEP
1
ITEM: NUMBER OF ATOMS
7
ITEM: BOX BOUNDS ss ss ss
-2.8683 3.2664
-2.6554 3.5165
-2.1176 1.8225
ITEM: ATOMS id type xs ys zs
1 1 .555601 .998411 .425983
2 1 .988988 .566398 .518432
3 1 .712286 .005481 .610776
4 1 .099162 .101143 .521831
5 1 .008660 .713867 .433453
6 1 .453929 .504235 .992012
7 1 .498256 .434908 .007322
ITEM: TIMESTEP
50
ITEM: NUMBER OF ATOMS
7
ITEM: BOX BOUNDS ss ss ss
-2.8683 3.2664
-2.6554 3.5400
-2.1237 1.8225
ITEM: ATOMS id type xs ys zs
1 1 .553997 .994618 .427218
2 1 .987026 .567536 .518123
3 1 .711167 .005353 .611882
4 1 .099248 .102093 .522409
5 1 .008961 .711294 .433526
6 1 .453688 .501488 .989965
7 1 .499789 .431288 .008878
ITEM: TIMESTEP
100
ITEM: NUMBER OF ATOMS
7
ITEM: BOX BOUNDS ss ss ss
-2.8683 3.2664
-2.6626 3.5452
-2.1306 1.8364
ITEM: ATOMS id type xs ys zs
1 1 .557271 .992686 .424894
2 1 .989028 .566881 .523217
3 1 .712554 .008608 .610222
4 1 .099102 .101185 .516701
5 1 .008158 .709873 .433340
6 1 .453595 .499893 .993120
7 1 .497157 .430885 .006172
ITEM: TIMESTEP
150
ITEM: NUMBER OF ATOMS
7
ITEM: BOX BOUNDS ss ss ss
-2.8683 3.2664
-2.6597 3.5481
-2.1393 1.8269
ITEM: ATOMS id type xs ys zs
1 1 .558636 .990192 .430588
2 1 .994310 .563343 .521481
3 1 .712394 .005144 .610454
4 1 .099309 .100546 .524422
5 1 .008495 .711105 .430257
6 1 .454674 .501736 .995161
7 1 .497189 .434627 .011423
ITEM: TIMESTEP
200
ITEM: NUMBER OF ATOMS
7
ITEM: BOX BOUNDS ss ss ss
-2.8683 3.2664
-2.6645 3.5511
-2.1479 1.8325
ITEM: ATOMS id type xs ys zs
1 1 .557614 .990206 .427154
2 1 .989168 .563130 .518817
3 1 .713378 .005843 .619988
4 1 .096135 .099565 .515208
5 1 .008525 .711446 .437838
6 1 .454730 .501869 .989367
7 1 .490517 .433723 .018149
ITEM: TIMESTEP
250
ITEM: NUMBER OF ATOMS
7
ITEM: BOX BOUNDS ss ss ss
-2.8683 3.2664
-2.6653 3.5435
-2.1411 1.8346
ITEM: ATOMS id type xs ys zs
1 1 .559144 .991415 .428021
2 1 .992304 .561989 .524790
3 1 .717456 .004735 .614461
4 1 .096833 .104202 .523673
5 1 .011970 .709893 .429967
6 1 .457958 .500861 .990522
7 1 .494962 .431438 .005955
ITEM: TIMESTEP
300
ITEM: NUMBER OF ATOMS
7
ITEM: BOX BOUNDS ss ss ss
-2.8683 3.2670
-2.6675 3.5446
-2.1377 1.8389
ITEM: ATOMS id type xs ys zs
1 1 .554467 .990158 .417642
2 1 .992935 .564065 .525217
3 1 .711371 .005502 .606357
4 1 .096585 .100371 .518516
5 1 .008682 .709235 .426778
6 1 .456604 .502319 .986951
7 1 .492450 .433446 .011928
ITEM: TIMESTEP
350
ITEM: NUMBER OF ATOMS
7
ITEM: BOX BOUNDS ss ss ss
-2.8558 3.2774
-2.6626 3.5428
-2.1413 1.8406
ITEM: ATOMS id type xs ys zs
1 1 .552802 .990325 .420026
2 1 .988901 .565925 .527144
3 1 .709568 .005014 .607036
4 1 .094397 .099344 .518638
5 1 .004349 .710150 .432556
6 1 .456022 .501647 .985263
7 1 .489222 .432026 .008402
ITEM: TIMESTEP
400
ITEM: NUMBER OF ATOMS
7
ITEM: BOX BOUNDS ss ss ss
-2.8607 3.2776
-2.6600 3.5391
-2.1530 1.8449
ITEM: ATOMS id type xs ys zs
1 1 .556462 .993583 .432754
2 1 .990215 .561308 .521152
3 1 .712143 .009504 .608320
4 1 .098124 .103408 .527532
5 1 .007156 .705314 .428514
6 1 .453352 .504331 .990708
7 1 .490776 .441272 .016847
ITEM: TIMESTEP
1
ITEM: NUMBER OF ATOMS
7
ITEM: BOX BOUNDS ss ss ss
-2.8460 3.2597
-2.6377 3.5163
-2.1137 1.8189
ITEM: ATOMS id type xs ys zs
1 1 .554829 .998423 .425668
2 1 .990498 .565112 .518302
3 1 .712019 .002626 .611338
4 1 .095940 .098422 .521883
5 1 .005637 .713078 .432737
6 1 .452479 .503020 .992453
7 1 .497026 .433403 .006171
ITEM: TIMESTEP
50
ITEM: NUMBER OF ATOMS
7
ITEM: BOX BOUNDS ss ss ss
-2.8460 3.2597
-2.6506 3.5348
-2.1210 1.8189
ITEM: ATOMS id type xs ys zs
1 1 .554987 .995546 .427349
2 1 .990416 .565096 .518621
3 1 .711453 .003345 .614929
4 1 .097959 .099327 .523072
5 1 .006048 .711025 .435655
6 1 .451901 .503536 .990727
7 1 .496571 .434782 .003428
ITEM: TIMESTEP
100
ITEM: NUMBER OF ATOMS
7
ITEM: BOX BOUNDS ss ss ss
-2.8475 3.2597
-2.6602 3.5480
-2.1314 1.8279
ITEM: ATOMS id type xs ys zs
1 1 .557313 .991635 .430580
2 1 .990751 .563423 .518462
3 1 .711227 .001983 .612137
4 1 .095712 .104262 .519150
5 1 .005234 .711940 .433071
6 1 .453999 .500973 .994424
7 1 .497625 .432592 .005934
ITEM: TIMESTEP
150
ITEM: NUMBER OF ATOMS
7
ITEM: BOX BOUNDS ss ss ss
-2.8460 3.2597
-2.6697 3.5484
-2.1397 1.8361
ITEM: ATOMS id type xs ys zs
1 1 .555561 .994476 .429582
2 1 .989494 .561185 .519103
3 1 .709777 .007399 .609475
4 1 .094039 .105011 .523636
5 1 .005948 .708462 .431631
6 1 .455400 .502600 .989275
7 1 .492535 .433495 .013126
ITEM: TIMESTEP
200
ITEM: NUMBER OF ATOMS
7
ITEM: BOX BOUNDS ss ss ss
-2.8471 3.2597
-2.6803 3.5560
-2.1306 1.8419
ITEM: ATOMS id type xs ys zs
1 1 .555564 .987714 .422314
2 1 .991187 .563402 .518983
3 1 .714993 .007415 .613277
4 1 .096526 .103845 .522866
5 1 .006764 .711981 .428616
6 1 .455490 .499891 .987437
7 1 .493572 .432716 .007428
ITEM: TIMESTEP
250
ITEM: NUMBER OF ATOMS
7
ITEM: BOX BOUNDS ss ss ss
-2.8538 3.2597
-2.6757 3.5595
-2.1363 1.8517
ITEM: ATOMS id type xs ys zs
1 1 .552357 .993832 .421701
2 1 .990111 .560164 .522762
3 1 .709556 .008869 .607569
4 1 .096878 .104746 .517286
5 1 .008884 .708091 .434183
6 1 .457219 .505437 .988428
7 1 .491392 .437477 .010885
ITEM: TIMESTEP
300
ITEM: NUMBER OF ATOMS
7
ITEM: BOX BOUNDS ss ss ss
-2.8592 3.2597
-2.6883 3.5658
-2.1372 1.8521
ITEM: ATOMS id type xs ys zs
1 1 .552358 .993174 .420897
2 1 .989329 .561162 .520075
3 1 .708619 .008973 .607946
4 1 .098538 .104813 .515603
5 1 .008952 .708745 .436834
6 1 .457097 .507535 .987388
7 1 .492629 .437267 .010428
ITEM: TIMESTEP
350
ITEM: NUMBER OF ATOMS
7
ITEM: BOX BOUNDS ss ss ss
-2.8748 3.2650
-2.6808 3.5606
-2.1435 1.8513
ITEM: ATOMS id type xs ys zs
1 1 .556091 .988687 .423272
2 1 .992284 .561396 .521101
3 1 .712768 .010441 .612798
4 1 .098774 .103600 .517426
5 1 .005838 .708470 .429075
6 1 .455031 .505612 .984829
7 1 .492249 .434430 .011267
ITEM: TIMESTEP
400
ITEM: NUMBER OF ATOMS
7
ITEM: BOX BOUNDS ss ss ss
-2.8780 3.2684
-2.6539 3.5422
-2.1451 1.8624
ITEM: ATOMS id type xs ys zs
1 1 .555970 .992493 .424303
2 1 .992679 .563661 .517653
3 1 .713644 .007086 .611674
4 1 .097145 .100222 .514735
5 1 .005999 .708186 .426217
6 1 .452966 .503604 .980990
7 1 .494041 .432658 .012379
ITEM: TIMESTEP
1
ITEM: NUMBER OF ATOMS
7
ITEM: BOX BOUNDS ss ss ss
-2.8796 3.2597
-2.6377 3.5163
-2.1252 1.8189
ITEM: ATOMS id type xs ys zs
1 1 .557131 .998342 .428080
2 1 .990271 .565189 .519771
3 1 .713796 .002216 .613057
4 1 .100835 .098480 .522867
5 1 .010634 .712857 .434130
6 1 .455332 .502894 .992804
7 1 .499717 .433330 .009061
ITEM: TIMESTEP
50
ITEM: NUMBER OF ATOMS
7
ITEM: BOX BOUNDS ss ss ss
-2.8796 3.2597
-2.6515 3.5371
-2.1252 1.8190
ITEM: ATOMS id type xs ys zs
1 1 .558476 .997186 .429408
2 1 .990879 .565172 .521610
3 1 .713781 .003896 .613746
4 1 .100302 .100140 .524916
5 1 .010094 .711149 .434806
6 1 .454525 .501777 .991068
7 1 .497839 .431089 .006777
ITEM: TIMESTEP
100
ITEM: NUMBER OF ATOMS
7
ITEM: BOX BOUNDS ss ss ss
-2.8796 3.2597
-2.6655 3.5450
-2.1343 1.8352
ITEM: ATOMS id type xs ys zs
1 1 .558218 .998096 .426799
2 1 .990357 .565597 .521046
3 1 .711894 .005461 .610934
4 1 .101488 .101854 .522690
5 1 .010294 .710053 .436107
6 1 .454589 .501755 .988219
7 1 .496333 .428897 .005345
ITEM: TIMESTEP
150
ITEM: NUMBER OF ATOMS
7
ITEM: BOX BOUNDS ss ss ss
-2.8796 3.2597
-2.6691 3.5514
-2.1515 1.8392
ITEM: ATOMS id type xs ys zs
1 1 .558272 .991985 .425048
2 1 .991267 .567692 .523534
3 1 .714489 .011527 .615096
4 1 .098561 .103437 .519214
5 1 .012330 .706976 .433277
6 1 .454317 .504134 .985854
7 1 .499866 .434526 .003049
ITEM: TIMESTEP
200
ITEM: NUMBER OF ATOMS
7
ITEM: BOX BOUNDS ss ss ss
-2.8796 3.2597
-2.6617 3.5524
-2.1534 1.8476
ITEM: ATOMS id type xs ys zs
1 1 .555052 .992399 .424263
2 1 .991509 .565334 .519623
3 1 .714696 .009344 .606422
4 1 .098150 .102095 .519177
5 1 .014057 .706000 .432488
6 1 .457732 .501328 .988246
7 1 .498019 .431601 .009621
ITEM: TIMESTEP
250
ITEM: NUMBER OF ATOMS
7
ITEM: BOX BOUNDS ss ss ss
-2.8796 3.2597
-2.6603 3.5480
-2.1560 1.8449
ITEM: ATOMS id type xs ys zs
1 1 .555871 .991182 .422982
2 1 .992172 .566826 .518147
3 1 .715515 .007585 .606167
4 1 .096075 .101702 .520317
5 1 .014836 .708026 .434618
6 1 .457473 .501603 .989373
7 1 .498601 .433551 .011126
ITEM: TIMESTEP
300
ITEM: NUMBER OF ATOMS
7
ITEM: BOX BOUNDS ss ss ss
-2.8796 3.2602
-2.6624 3.5463
-2.1610 1.8447
ITEM: ATOMS id type xs ys zs
1 1 .561677 .990261 .430811
2 1 .992328 .560099 .528637
3 1 .715036 .007047 .621459
4 1 .103779 .098617 .517805
5 1 .011828 .710629 .435849
6 1 .456678 .502188 .984759
7 1 .497527 .433016 .015570
ITEM: TIMESTEP
350
ITEM: NUMBER OF ATOMS
7
ITEM: BOX BOUNDS ss ss ss
-2.8796 3.2666
-2.6561 3.5479
-2.1504 1.8403
ITEM: ATOMS id type xs ys zs
1 1 .554842 .989989 .426763
2 1 .989465 .562906 .522380
3 1 .713541 .010998 .615774
4 1 .101045 .104045 .517647
5 1 .005775 .705197 .425488
6 1 .457954 .504292 .990102
7 1 .494296 .435160 .010494
ITEM: TIMESTEP
400
ITEM: NUMBER OF ATOMS
7
ITEM: BOX BOUNDS ss ss ss
-2.8796 3.2633
-2.6471 3.5468
-2.1478 1.8511
ITEM: ATOMS id type xs ys zs
1 1 .554401 .989510 .418204
2 1 .990051 .560523 .514425
3 1 .711460 .004496 .612939
4 1 .099753 .101963 .518231
5 1 .004982 .705427 .428354
6 1 .456418 .504041 .985081
7 1 .491802 .437145 .009860
ITEM: TIMESTEP
1
ITEM: NUMBER OF ATOMS
7
ITEM: BOX BOUNDS ss ss ss
-2.8796 3.2597
-2.6377 3.5247
-2.1291 1.8201
ITEM: ATOMS id type xs ys zs
1 1 .556793 .996998 .428210
2 1 .990121 .564302 .520554
3 1 .713880 .002440 .612992
4 1 .100892 .098287 .523723
5 1 .010658 .712073 .434846
6 1 .455238 .502314 .992664
7 1 .499493 .432644 .009891
ITEM: TIMESTEP
50
ITEM: NUMBER OF ATOMS
7
ITEM: BOX BOUNDS ss ss ss
-2.8796 3.2597
-2.6517 3.5384
-2.1291 1.8201
ITEM: ATOMS id type xs ys zs
1 1 .555958 .993852 .426651
2 1 .990074 .564419 .517382
3 1 .715772 .006308 .611907
4 1 .100717 .099406 .523590
5 1 .010534 .712343 .436122
6 1 .456168 .502605 .992517
7 1 .500688 .431397 .008452
ITEM: TIMESTEP
100
ITEM: NUMBER OF ATOMS
7
ITEM: BOX BOUNDS ss ss ss
-2.8796 3.2597
-2.6638 3.5513
-2.1344 1.8303
ITEM: ATOMS id type xs ys zs
1 1 .558125 .993531 .429449
2 1 .991574 .565928 .522570
3 1 .712256 .006580 .613849
4 1 .100582 .104126 .520910
5 1 .009554 .712406 .438398
6 1 .456846 .500919 .989365
7 1 .499834 .432671 .009023
ITEM: TIMESTEP
150
ITEM: NUMBER OF ATOMS
7
ITEM: BOX BOUNDS ss ss ss
-2.8796 3.2597
-2.6717 3.5581
-2.1368 1.8404
ITEM: ATOMS id type xs ys zs
1 1 .556584 .991445 .425548
2 1 .989990 .564348 .515488
3 1 .710979 .005160 .612307
4 1 .104012 .104685 .519826
5 1 .009358 .710264 .433450
6 1 .455335 .500460 .993382
7 1 .495712 .436727 .010740
ITEM: TIMESTEP
200
ITEM: NUMBER OF ATOMS
7
ITEM: BOX BOUNDS ss ss ss
-2.8796 3.2597
-2.6785 3.5588
-2.1512 1.8367
ITEM: ATOMS id type xs ys zs
1 1 .557444 .991905 .430072
2 1 .988925 .567779 .527701
3 1 .716537 .009724 .621894
4 1 .101048 .103852 .519133
5 1 .014723 .714641 .432705
6 1 .454066 .499043 .989088
7 1 .494270 .431504 .013320
ITEM: TIMESTEP
250
ITEM: NUMBER OF ATOMS
7
ITEM: BOX BOUNDS ss ss ss
-2.8796 3.2597
-2.6831 3.5620
-2.1404 1.8463
ITEM: ATOMS id type xs ys zs
1 1 .554262 .991441 .422009
2 1 .993719 .561538 .518174
3 1 .715811 .011554 .606894
4 1 .101669 .099831 .517677
5 1 .009201 .708905 .429143
6 1 .453417 .501829 .986974
7 1 .497194 .431571 .015323
ITEM: TIMESTEP
300
ITEM: NUMBER OF ATOMS
7
ITEM: BOX BOUNDS ss ss ss
-2.8796 3.2597
-2.6740 3.5457
-2.1323 1.8491
ITEM: ATOMS id type xs ys zs
1 1 .552336 .992199 .422805
2 1 .993272 .564922 .517408
3 1 .715798 .011018 .607823
4 1 .102029 .101642 .511372
5 1 .008435 .710845 .425738
6 1 .456218 .504490 .984950
7 1 .495015 .435564 .009835
ITEM: TIMESTEP
350
ITEM: NUMBER OF ATOMS
7
ITEM: BOX BOUNDS ss ss ss
-2.8796 3.2597
-2.6576 3.5494
-2.1291 1.8451
ITEM: ATOMS id type xs ys zs
1 1 .555778 .991237 .421730
2 1 .994786 .562540 .515818
3 1 .717478 .011902 .607279
4 1 .101103 .098404 .511058
5 1 .006330 .710355 .427404
6 1 .457397 .501552 .983769
7 1 .492957 .437740 .009910
ITEM: TIMESTEP
400
ITEM: NUMBER OF ATOMS
7
ITEM: BOX BOUNDS ss ss ss
-2.8841 3.2673
-2.6519 3.5458
-2.1226 1.8430
ITEM: ATOMS id type xs ys zs
1 1 .554921 .993704 .424922
2 1 .993531 .562579 .516211
3 1 .715421 .011434 .608320
4 1 .101417 .096598 .510545
5 1 .008508 .711271 .427974
6 1 .456567 .499716 .982477
7 1 .493609 .438790 .006551
ITEM: TIMESTEP
1
ITEM: NUMBER OF ATOMS
7
ITEM: BOX BOUNDS ss ss ss
-2.8671 3.2597
-2.6377 3.5205
-2.1144 1.8269
ITEM: ATOMS id type xs ys zs
1 1 .556245 .997510 .424984
2 1 .990366 .564549 .517745
3 1 .713055 .002224 .610550
4 1 .098829 .098335 .520189
5 1 .008983 .712655 .431836
6 1 .454097 .502277 .990283
7 1 .498547 .432803 .005997
ITEM: TIMESTEP
50
ITEM: NUMBER OF ATOMS
7
ITEM: BOX BOUNDS ss ss ss
-2.8671 3.2597
-2.6517 3.5356
-2.1230 1.8269
ITEM: ATOMS id type xs ys zs
1 1 .554817 .995804 .424961
2 1 .990791 .566155 .516534
3 1 .713333 .004532 .609916
4 1 .102244 .098707 .522158
5 1 .008478 .712311 .436633
6 1 .457122 .501877 .989608
7 1 .498944 .433766 .006300
ITEM: TIMESTEP
100
ITEM: NUMBER OF ATOMS
7
ITEM: BOX BOUNDS ss ss ss
-2.8671 3.2597
-2.6689 3.5459
-2.1347 1.8296
ITEM: ATOMS id type xs ys zs
1 1 .556006 .994077 .424003
2 1 .988575 .561876 .520168
3 1 .714407 .007511 .608129
4 1 .099004 .101299 .519191
5 1 .007808 .711597 .436846
6 1 .455867 .504309 .994797
7 1 .496788 .433367 .013560
ITEM: TIMESTEP
150
ITEM: NUMBER OF ATOMS
7
ITEM: BOX BOUNDS ss ss ss
-2.8671 3.2597
-2.6653 3.5560
-2.1402 1.8426
ITEM: ATOMS id type xs ys zs
1 1 .555149 .993548 .425215
2 1 .990663 .559413 .517627
3 1 .713456 .006477 .614273
4 1 .097961 .098594 .519827
5 1 .009888 .707701 .436620
6 1 .456524 .503924 .985296
7 1 .495853 .436818 .007075
ITEM: TIMESTEP
200
ITEM: NUMBER OF ATOMS
7
ITEM: BOX BOUNDS ss ss ss
-2.8671 3.2597
-2.6786 3.5558
-2.1426 1.8402
ITEM: ATOMS id type xs ys zs
1 1 .555172 .995363 .428399
2 1 .993066 .561339 .521342
3 1 .711552 .009854 .609928
4 1 .100896 .103047 .517365
5 1 .010036 .709539 .434003
6 1 .455967 .502244 .986442
7 1 .495791 .440930 .011658
ITEM: TIMESTEP
250
ITEM: NUMBER OF ATOMS
7
ITEM: BOX BOUNDS ss ss ss
-2.8671 3.2597
-2.6732 3.5657
-2.1451 1.8484
ITEM: ATOMS id type xs ys zs
1 1 .555266 .994741 .427154
2 1 .993487 .558037 .520728
3 1 .710194 .007808 .606639
4 1 .103598 .100901 .520293
5 1 .011442 .709365 .434725
6 1 .455940 .502276 .983799
7 1 .496431 .441733 .010970
ITEM: TIMESTEP
300
ITEM: NUMBER OF ATOMS
7
ITEM: BOX BOUNDS ss ss ss
-2.8671 3.2597
-2.6821 3.5579
-2.1433 1.8461
ITEM: ATOMS id type xs ys zs
1 1 .554767 .989576 .432614
2 1 .992669 .563449 .516511
3 1 .709286 .007952 .602124
4 1 .100512 .103511 .519362
5 1 .008831 .709949 .426625
6 1 .456200 .504079 .988237
7 1 .493954 .436265 .016129
ITEM: TIMESTEP
350
ITEM: NUMBER OF ATOMS
7
ITEM: BOX BOUNDS ss ss ss
-2.8671 3.2597
-2.6741 3.5612
-2.1514 1.8522
ITEM: ATOMS id type xs ys zs
1 1 .558101 .993144 .426350
2 1 .994193 .562649 .515997
3 1 .714952 .008731 .604802
4 1 .104363 .100214 .515573
5 1 .007246 .709939 .432312
6 1 .458558 .504594 .987888
7 1 .492100 .442587 .013361
ITEM: TIMESTEP
400
ITEM: NUMBER OF ATOMS
7
ITEM: BOX BOUNDS ss ss ss
-2.8748 3.2667
-2.6723 3.5731
-2.1504 1.8522
ITEM: ATOMS id type xs ys zs
1 1 .553324 .994885 .436520
2 1 .988859 .559928 .517319
3 1 .711308 .007841 .608058
4 1 .098554 .100441 .521923
5 1 .008354 .705424 .424756
6 1 .458215 .503410 .982430
7 1 .489976 .434679 .015138
ITEM: TIMESTEP
1
ITEM: NUMBER OF ATOMS
7
ITEM: BOX BOUNDS ss ss ss
-2.8608 3.2540
-2.6521 3.5285
-2.1143 1.8206
ITEM: ATOMS id type xs ys zs
1 1 .555988 .996229 .425745
2 1 .990878 .564941 .518114
3 1 .713301 .004667 .611457
4 1 .098256 .100215 .521501
5 1 .008252 .712316 .433099
6 1 .454201 .503150 .992053
7 1 .498442 .433903 .005850
ITEM: TIMESTEP
50
ITEM: NUMBER OF ATOMS
7
ITEM: BOX BOUNDS ss ss ss
-2.8608 3.2540
-2.6529 3.5400
-2.1181 1.8226
ITEM: ATOMS id type xs ys zs
1 1 .556771 .995206 .426009
2 1 .991518 .563706 .519382
3 1 .712468 .005496 .613418
4 1 .097334 .100131 .521355
5 1 .009986 .712278 .432716
6 1 .453741 .503203 .994015
7 1 .499260 .433885 .007581
ITEM: TIMESTEP
100
ITEM: NUMBER OF ATOMS
7
ITEM: BOX BOUNDS ss ss ss
-2.8608 3.2540
-2.6690 3.5495
-2.1334 1.8348
ITEM: ATOMS id type xs ys zs
1 1 .555258 .993109 .425436
2 1 .992715 .566975 .518714
3 1 .713566 .006420 .609508
4 1 .099917 .099128 .521454
5 1 .007692 .712876 .429661
6 1 .454032 .501789 .987184
7 1 .497351 .433769 .010222
ITEM: TIMESTEP
150
ITEM: NUMBER OF ATOMS
7
ITEM: BOX BOUNDS ss ss ss
-2.8608 3.2540
-2.6716 3.5529
-2.1368 1.8344
ITEM: ATOMS id type xs ys zs
1 1 .553846 .997364 .433063
2 1 .987651 .563541 .519170
3 1 .713346 .005729 .615792
4 1 .101127 .100998 .525184
5 1 .010440 .708671 .436815
6 1 .457083 .499463 .992714
7 1 .495338 .433563 .011137
ITEM: TIMESTEP
200
ITEM: NUMBER OF ATOMS
7
ITEM: BOX BOUNDS ss ss ss
-2.8608 3.2540
-2.6720 3.5632
-2.1442 1.8419
ITEM: ATOMS id type xs ys zs
1 1 .555981 .994564 .426684
2 1 .991546 .563643 .521187
3 1 .716893 .006925 .615626
4 1 .102252 .101161 .517409
5 1 .011450 .711525 .435053
6 1 .456594 .501120 .992132
7 1 .493956 .431161 .013170
ITEM: TIMESTEP
250
ITEM: NUMBER OF ATOMS
7
ITEM: BOX BOUNDS ss ss ss
-2.8608 3.2540
-2.6831 3.5724
-2.1464 1.8538
ITEM: ATOMS id type xs ys zs
1 1 .555222 .992708 .427771
2 1 .989773 .564410 .525603
3 1 .721691 .007111 .611412
4 1 .099590 .103406 .514654
5 1 .011535 .713167 .430739
6 1 .458229 .502565 .985171
7 1 .494792 .430692 .009142
ITEM: TIMESTEP
300
ITEM: NUMBER OF ATOMS
7
ITEM: BOX BOUNDS ss ss ss
-2.8608 3.2661
-2.6727 3.5713
-2.1410 1.8540
ITEM: ATOMS id type xs ys zs
1 1 .558925 .988396 .423536
2 1 .991517 .564248 .528005
3 1 .715511 .008096 .615890
4 1 .098332 .106380 .520036
5 1 .011786 .710698 .423603
6 1 .457076 .498311 .979730
7 1 .494399 .430896 .013048
ITEM: TIMESTEP
350
ITEM: NUMBER OF ATOMS
7
ITEM: BOX BOUNDS ss ss ss
-2.8608 3.2765
-2.6780 3.5475
-2.1465 1.8424
ITEM: ATOMS id type xs ys zs
1 1 .556773 .994573 .424081
2 1 .988945 .566032 .530347
3 1 .713353 .008813 .614173
4 1 .091661 .106514 .526430
5 1 .010366 .714148 .424841
6 1 .456752 .505556 .985290
7 1 .498725 .432906 .017027
ITEM: TIMESTEP
400
ITEM: NUMBER OF ATOMS
7
ITEM: BOX BOUNDS ss ss ss
-2.8608 3.2776
-2.6688 3.5461
-2.1395 1.8538
ITEM: ATOMS id type xs ys zs
1 1 .550623 .992311 .421917
2 1 .987859 .566712 .513105
3 1 .716055 .013508 .619849
4 1 .095911 .102360 .512178
5 1 .003052 .707920 .432849
6 1 .453774 .501697 .987665
7 1 .485143 .434478 .011326
ITEM: TIMESTEP
1
ITEM: NUMBER OF ATOMS
7
ITEM: BOX BOUNDS ss ss ss
-2.8608 3.2675
-2.6521 3.5285
-2.1156 1.8206
ITEM: ATOMS id type xs ys zs
1 1 .554973 .996162 .426431
2 1 .988919 .565134 .518524
3 1 .711864 .004990 .611526
4 1 .097873 .100416 .521698
5 1 .007915 .712461 .432569
6 1 .453032 .503064 .992427
7 1 .497576 .433528 .006996
ITEM: TIMESTEP
50
ITEM: NUMBER OF ATOMS
7
ITEM: BOX BOUNDS ss ss ss
-2.8608 3.2675
-2.6521 3.5400
-2.1193 1.8206
ITEM: ATOMS id type xs ys zs
1 1 .555941 .996976 .430889
2 1 .987420 .564132 .515311
3 1 .711099 .005599 .612688
4 1 .098276 .099954 .519673
5 1 .007121 .713388 .435023
6 1 .453235 .503357 .993551
7 1 .495638 .430382 .007802
ITEM: TIMESTEP
100
ITEM: NUMBER OF ATOMS
7
ITEM: BOX BOUNDS ss ss ss
-2.8608 3.2675
-2.6677 3.5533
-2.1374 1.8283
ITEM: ATOMS id type xs ys zs
1 1 .553737 .994278 .431691
2 1 .989416 .566028 .518126
3 1 .712469 .005954 .612118
4 1 .096223 .101637 .520870
5 1 .012148 .709675 .437160
6 1 .455215 .501293 .992812
7 1 .496094 .433576 .008536
ITEM: TIMESTEP
150
ITEM: NUMBER OF ATOMS
7
ITEM: BOX BOUNDS ss ss ss
-2.8608 3.2675
-2.6712 3.5614
-2.1509 1.8380
ITEM: ATOMS id type xs ys zs
1 1 .552676 .991514 .434977
2 1 .990317 .564860 .528341
3 1 .712798 .005712 .614858
4 1 .097580 .101201 .521154
5 1 .009569 .713809 .438785
6 1 .455038 .500643 .984579
7 1 .499831 .431695 .011395
ITEM: TIMESTEP
200
ITEM: NUMBER OF ATOMS
7
ITEM: BOX BOUNDS ss ss ss
-2.8677 3.2675
-2.6744 3.5661
-2.1589 1.8401
ITEM: ATOMS id type xs ys zs
1 1 .552362 .990680 .433888
2 1 .989153 .562677 .522082
3 1 .712842 .009824 .614989
4 1 .099956 .106485 .524524
5 1 .008068 .706606 .443624
6 1 .456828 .505804 .988618
7 1 .496608 .430383 .011266
ITEM: TIMESTEP
250
ITEM: NUMBER OF ATOMS
7
ITEM: BOX BOUNDS ss ss ss
-2.8804 3.2675
-2.6714 3.5717
-2.1455 1.8496
ITEM: ATOMS id type xs ys zs
1 1 .554215 .993562 .428965
2 1 .989489 .560183 .520218
3 1 .709490 .004558 .615009
4 1 .098896 .103340 .523678
5 1 .013836 .706241 .432346
6 1 .457340 .503905 .988942
7 1 .498347 .430183 .016022
ITEM: TIMESTEP
300
ITEM: NUMBER OF ATOMS
7
ITEM: BOX BOUNDS ss ss ss
-2.8881 3.2679
-2.6776 3.5692
-2.1540 1.8403
ITEM: ATOMS id type xs ys zs
1 1 .553529 .988831 .431952
2 1 .989202 .563627 .522730
3 1 .715090 .011777 .616228
4 1 .102621 .108265 .519792
5 1 .011031 .711449 .436923
6 1 .458358 .500794 .991316
7 1 .492812 .435479 .013657
ITEM: TIMESTEP
350
ITEM: NUMBER OF ATOMS
7
ITEM: BOX BOUNDS ss ss ss
-2.8901 3.2675
-2.6854 3.5598
-2.1472 1.8548
ITEM: ATOMS id type xs ys zs
1 1 .552835 .989756 .433107