ITEM: TIMESTEP
1
ITEM: NUMBER OF ATOMS
7
ITEM: BOX BOUNDS ss ss ss
-2.8171 3.2031
-2.6263 3.5097
-2.0934 1.7950
ITEM: ATOMS id type xs ys zs
1 1 .557645 .999328 .425522
2 1 .999495 .564769 .519358
3 1 .717412 .000727 .613181
4 1 .092441 .096945 .522355
5 1 .000627 .713224 .432361
6 1 .454039 .502617 .998933
7 1 .498946 .432801 .000908
ITEM: TIMESTEP
50
ITEM: NUMBER OF ATOMS
7
ITEM: BOX BOUNDS ss ss ss
-2.8403 3.2298
-2.6547 3.5365
-2.1183 1.8160
ITEM: ATOMS id type xs ys zs
1 1 .555826 .994125 .427092
2 1 .997836 .561543 .522966
3 1 .715803 .004327 .612740
4 1 .096004 .101985 .520555
5 1 .004172 .709750 .430069
6 1 .454522 .500864 .995897
7 1 .497326 .435068 .006932
ITEM: TIMESTEP
100
ITEM: NUMBER OF ATOMS
7
ITEM: BOX BOUNDS ss ss ss
-2.8420 3.2472
-2.6618 3.5426
-2.1247 1.8272
ITEM: ATOMS id type xs ys zs
1 1 .555102 .992736 .422667
2 1 .997048 .562752 .524556
3 1 .713693 .008147 .615397
4 1 .094912 .101874 .520137
5 1 .004864 .711984 .429818
6 1 .453784 .503165 .993521
7 1 .494474 .436872 .011345
ITEM: TIMESTEP
150
ITEM: NUMBER OF ATOMS
7
ITEM: BOX BOUNDS ss ss ss
-2.8466 3.2554
-2.6608 3.5430
-2.1293 1.8359
ITEM: ATOMS id type xs ys zs
1 1 .554750 .992463 .426601
2 1 .993516 .562612 .522624
3 1 .712718 .008482 .612732
4 1 .095835 .100463 .521159
5 1 .003899 .709417 .428167
6 1 .454580 .504119 .991465
7 1 .490494 .435234 .010387
ITEM: TIMESTEP
200
ITEM: NUMBER OF ATOMS
7
ITEM: BOX BOUNDS ss ss ss
-2.8560 3.2628
-2.6778 3.5478
-2.1354 1.8409
ITEM: ATOMS id type xs ys zs
1 1 .554213 .991839 .422426
2 1 .993848 .563249 .524494
3 1 .712021 .011218 .610537
4 1 .096829 .104272 .520616
5 1 .005953 .710325 .427562
6 1 .454831 .504630 .989910
7 1 .493072 .439362 .014384
ITEM: TIMESTEP
250
ITEM: NUMBER OF ATOMS
7
ITEM: BOX BOUNDS ss ss ss
-2.8554 3.2651
-2.6579 3.5359
-2.1415 1.8414
ITEM: ATOMS id type xs ys zs
1 1 .556715 .993981 .426136
2 1 .995449 .561436 .530823
3 1 .711681 .008821 .617223
4 1 .097225 .102556 .518134
5 1 .004930 .711434 .420051
6 1 .454375 .506355 .987426
7 1 .493622 .435855 .015804
ITEM: TIMESTEP
300
ITEM: NUMBER OF ATOMS
7
ITEM: BOX BOUNDS ss ss ss
-2.8650 3.2751
-2.6663 3.5439
-2.1400 1.8451
ITEM: ATOMS id type xs ys zs
1 1 .556628 .990989 .427105
2 1 .991350 .559632 .525075
3 1 .711304 .009153 .605378
4 1 .095208 .104925 .525024
5 1 .007303 .711192 .424989
6 1 .455360 .505854 .989740
7 1 .488602 .437679 .010209
ITEM: TIMESTEP
350
ITEM: NUMBER OF ATOMS
7
ITEM: BOX BOUNDS ss ss ss
-2.8706 3.2707
-2.6582 3.5382
-2.1371 1.8445
ITEM: ATOMS id type xs ys zs
1 1 .555357 .991134 .427365
2 1 .992686 .560250 .524659
3 1 .711556 .009397 .606428
4 1 .098318 .104442 .524838
5 1 .007065 .710052 .425312
6 1 .456574 .505633 .989399
7 1 .491341 .437515 .012958
ITEM: TIMESTEP
400
ITEM: NUMBER OF ATOMS
7
ITEM: BOX BOUNDS ss ss ss
-2.8759 3.2768
-2.6531 3.5307
-2.1397 1.8528
ITEM: ATOMS id type xs ys zs
1 1 .554351 .991055 .426638
2 1 .992263 .559692 .523637
3 1 .712537 .008730 .606205
4 1 .098979 .101661 .519731
5 1 .004915 .708182 .423736
6 1 .454205 .506020 .986089
7 1 .490203 .437797 .014287
ITEM: TIMESTEP
1
ITEM: NUMBER OF ATOMS
7
ITEM: BOX BOUNDS ss ss ss
-2.8651 3.2747
-2.6277 3.5136
-2.1329 1.8216
ITEM: ATOMS id type xs ys zs
1 1 .554603 .998699 .428426
2 1 .987836 .564539 .520696
3 1 .711246 .000934 .612937
4 1 .098437 .097086 .523618
5 1 .008434 .712823 .435109
6 1 .453024 .502401 .992322
7 1 .497044 .432662 .010922
ITEM: TIMESTEP
50
ITEM: NUMBER OF ATOMS
7
ITEM: BOX BOUNDS ss ss ss
-2.8651 3.2747
-2.6539 3.5350
-2.1329 1.8216
ITEM: ATOMS id type xs ys zs
1 1 .554160 .993746 .429394
2 1 .988090 .564699 .520006
3 1 .712240 .008054 .611188
4 1 .098335 .101348 .524822
5 1 .006718 .711475 .432811
6 1 .451972 .503499 .993035
7 1 .494063 .435728 .009194
ITEM: TIMESTEP
100
ITEM: NUMBER OF ATOMS
7
ITEM: BOX BOUNDS ss ss ss
-2.8651 3.2747
-2.6600 3.5439
-2.1329 1.8277
ITEM: ATOMS id type xs ys zs
1 1 .553538 .992323 .425957
2 1 .990955 .563643 .524302
3 1 .708557 .006865 .611006
4 1 .098355 .101840 .519556
5 1 .005979 .708580 .429011
6 1 .454293 .504230 .991174
7 1 .495809 .435444 .013941
ITEM: TIMESTEP
150
ITEM: NUMBER OF ATOMS
7
ITEM: BOX BOUNDS ss ss ss
-2.8651 3.2747
-2.6661 3.5489
-2.1376 1.8323
ITEM: ATOMS id type xs ys zs
1 1 .554112 .990821 .426939
2 1 .991802 .564475 .521273
3 1 .711729 .008435 .607950
4 1 .096577 .105300 .522016
5 1 .004508 .710458 .427707
6 1 .456294 .503565 .992105
7 1 .491961 .436072 .011478
ITEM: TIMESTEP
200
ITEM: NUMBER OF ATOMS
7
ITEM: BOX BOUNDS ss ss ss
-2.8651 3.2747
-2.6662 3.5476
-2.1333 1.8351
ITEM: ATOMS id type xs ys zs
1 1 .552639 .989851 .425151
2 1 .993491 .565728 .520624
3 1 .713803 .010327 .603649
4 1 .097038 .105645 .520268
5 1 .004284 .709651 .425748
6 1 .456583 .505473 .991846
7 1 .491578 .438693 .009942
ITEM: TIMESTEP
250
ITEM: NUMBER OF ATOMS
7
ITEM: BOX BOUNDS ss ss ss
-2.8666 3.2747
-2.6602 3.5384
-2.1356 1.8377
ITEM: ATOMS id type xs ys zs
1 1 .553421 .991476 .423621
2 1 .993209 .564416 .520148
3 1 .714098 .009762 .605147
4 1 .097310 .103800 .521604
5 1 .004513 .709907 .426605
6 1 .457325 .505085 .988529
7 1 .492208 .438186 .011965
ITEM: TIMESTEP
300
ITEM: NUMBER OF ATOMS
7
ITEM: BOX BOUNDS ss ss ss
-2.8718 3.2747
-2.6558 3.5409
-2.1329 1.8362
ITEM: ATOMS id type xs ys zs
1 1 .554914 .991358 .423176
2 1 .993780 .563084 .523454
3 1 .713914 .009955 .606411
4 1 .098627 .103196 .521657
5 1 .004816 .709477 .427245
6 1 .456961 .504959 .989165
7 1 .491889 .438329 .012233
ITEM: TIMESTEP
350
ITEM: NUMBER OF ATOMS
7
ITEM: BOX BOUNDS ss ss ss
-2.8776 3.2747
-2.6524 3.5425
-2.1329 1.8390
ITEM: ATOMS id type xs ys zs
1 1 .555168 .990951 .423823
2 1 .994729 .561832 .520383
3 1 .713706 .009255 .603800
4 1 .099798 .102124 .523414
5 1 .005736 .708842 .427325
6 1 .458308 .505805 .987042
7 1 .491767 .437625 .011893
ITEM: TIMESTEP
400
ITEM: NUMBER OF ATOMS
7
ITEM: BOX BOUNDS ss ss ss
-2.8814 3.2773
-2.6548 3.5404
-2.1334 1.8482
ITEM: ATOMS id type xs ys zs
1 1 .557106 .991157 .423037
2 1 .994936 .561680 .518485
3 1 .715122 .007760 .596867
4 1 .101802 .101963 .522308
5 1 .005429 .708059 .424686
6 1 .459350 .505112 .985608
7 1 .491299 .440116 .012072
ITEM: TIMESTEP
1
ITEM: NUMBER OF ATOMS
7
ITEM: BOX BOUNDS ss ss ss
-2.8683 3.2664
-2.6263 3.5165
-2.1176 1.8213
ITEM: ATOMS id type xs ys zs
1 1 .555599 .998233 .426236
2 1 .989197 .564175 .518830
3 1 .712365 .000704 .611456
4 1 .099028 .096835 .521832
5 1 .008931 .712424 .432976
6 1 .453911 .502017 .992309
7 1 .497980 .432331 .007066
ITEM: TIMESTEP
50
ITEM: NUMBER OF ATOMS
7
ITEM: BOX BOUNDS ss ss ss
-2.8683 3.2664
-2.6548 3.5376
-2.1236 1.8213
ITEM: ATOMS id type xs ys zs
1 1 .555568 .995042 .427500
2 1 .991210 .563687 .521831
3 1 .712292 .005595 .611274
4 1 .097567 .101668 .523313
5 1 .007483 .711086 .432844
6 1 .454169 .502822 .993025
7 1 .495819 .433527 .008846
ITEM: TIMESTEP
100
ITEM: NUMBER OF ATOMS
7
ITEM: BOX BOUNDS ss ss ss
-2.8683 3.2664
-2.6599 3.5432
-2.1283 1.8257
ITEM: ATOMS id type xs ys zs
1 1 .558139 .993944 .425613
2 1 .992334 .562845 .521225
3 1 .712948 .007093 .609463
4 1 .098964 .101472 .521323
5 1 .008362 .712155 .432330
6 1 .456311 .503663 .991992
7 1 .494435 .434679 .011232
ITEM: TIMESTEP
150
ITEM: NUMBER OF ATOMS
7
ITEM: BOX BOUNDS ss ss ss
-2.8683 3.2664
-2.6751 3.5466
-2.1290 1.8389
ITEM: ATOMS id type xs ys zs
1 1 .558533 .993274 .424280
2 1 .993874 .562002 .518657
3 1 .712659 .008987 .606608
4 1 .099296 .104733 .521568
5 1 .008995 .712654 .429703
6 1 .456658 .505302 .990738
7 1 .493664 .437053 .013633
ITEM: TIMESTEP
200
ITEM: NUMBER OF ATOMS
7
ITEM: BOX BOUNDS ss ss ss
-2.8683 3.2664
-2.6766 3.5531
-2.1368 1.8523
ITEM: ATOMS id type xs ys zs
1 1 .557318 .990757 .425798
2 1 .991974 .560737 .517576
3 1 .711100 .010724 .605920
4 1 .098400 .104094 .521471
5 1 .006746 .709752 .430081
6 1 .457808 .505096 .986429
7 1 .491231 .435313 .012361
ITEM: TIMESTEP
250
ITEM: NUMBER OF ATOMS
7
ITEM: BOX BOUNDS ss ss ss
-2.8683 3.2664
-2.6698 3.5538
-2.1261 1.8556
ITEM: ATOMS id type xs ys zs
1 1 .556711 .990452 .421038
2 1 .993673 .561551 .519472
3 1 .713955 .009012 .606839
4 1 .098516 .103924 .517559
5 1 .007104 .711230 .422239
6 1 .455811 .505418 .982738
7 1 .492842 .436995 .010469
ITEM: TIMESTEP
300
ITEM: NUMBER OF ATOMS
7
ITEM: BOX BOUNDS ss ss ss
-2.8683 3.2664
-2.6762 3.5612
-2.1264 1.8510
ITEM: ATOMS id type xs ys zs
1 1 .555316 .987609 .421926
2 1 .993024 .559779 .524258
3 1 .712521 .008005 .608317
4 1 .098168 .106955 .519885
5 1 .004998 .709889 .423586
6 1 .457323 .504048 .985034
7 1 .492497 .437963 .008442
ITEM: TIMESTEP
350
ITEM: NUMBER OF ATOMS
7
ITEM: BOX BOUNDS ss ss ss
-2.8683 3.2681
-2.6718 3.5493
-2.1310 1.8560
ITEM: ATOMS id type xs ys zs
1 1 .557947 .988968 .421059
2 1 .993536 .560864 .528319
3 1 .712399 .008750 .606587
4 1 .098016 .106644 .519767
5 1 .007755 .710134 .423271
6 1 .455634 .504793 .986072
7 1 .493226 .437548 .012865
ITEM: TIMESTEP
400
ITEM: NUMBER OF ATOMS
7
ITEM: BOX BOUNDS ss ss ss
-2.8707 3.2749
-2.6662 3.5417
-2.1307 1.8624
ITEM: ATOMS id type xs ys zs
1 1 .556689 .990569 .421279
2 1 .994156 .560783 .526616
3 1 .712511 .008690 .603740
4 1 .098642 .105486 .516789
5 1 .008789 .710322 .420489
6 1 .456765 .505301 .985739
7 1 .494013 .436898 .013094
ITEM: TIMESTEP
1
ITEM: NUMBER OF ATOMS
7
ITEM: BOX BOUNDS ss ss ss
-2.8683 3.2664
-2.6554 3.5165
-2.1176 1.8225
ITEM: ATOMS id type xs ys zs
1 1 .555613 .998242 .426129
2 1 .989186 .566231 .518651
3 1 .712359 .005439 .611230
4 1 .099010 .101077 .521657
5 1 .008943 .713764 .432801
6 1 .453938 .504406 .991990
7 1 .497993 .435009 .007047
ITEM: TIMESTEP
50
ITEM: NUMBER OF ATOMS
7
ITEM: BOX BOUNDS ss ss ss
-2.8683 3.2664
-2.6554 3.5400
-2.1237 1.8225
ITEM: ATOMS id type xs ys zs
1 1 .555570 .995126 .425973
2 1 .989851 .564384 .518476
3 1 .713741 .006506 .609883
4 1 .099136 .099709 .524078
5 1 .008663 .711002 .431183
6 1 .455232 .503200 .992564
7 1 .495125 .433837 .007459
ITEM: TIMESTEP
100
ITEM: NUMBER OF ATOMS
7
ITEM: BOX BOUNDS ss ss ss
-2.8683 3.2664
-2.6626 3.5452
-2.1306 1.8364
ITEM: ATOMS id type xs ys zs
1 1 .558794 .992219 .426211
2 1 .992203 .562270 .520958
3 1 .714817 .008192 .608167
4 1 .099172 .100451 .522620
5 1 .010080 .708732 .424854
6 1 .456074 .502885 .987240
7 1 .496103 .435081 .008506
ITEM: TIMESTEP
150
ITEM: NUMBER OF ATOMS
7
ITEM: BOX BOUNDS ss ss ss
-2.8683 3.2664
-2.6597 3.5481
-2.1393 1.8269
ITEM: ATOMS id type xs ys zs
1 1 .558731 .989785 .427697
2 1 .993115 .560859 .522937
3 1 .712740 .004945 .609046
4 1 .099323 .101155 .524574
5 1 .009206 .707657 .426809
6 1 .456811 .502568 .990062
7 1 .493640 .434174 .011126
ITEM: TIMESTEP
200
ITEM: NUMBER OF ATOMS
7
ITEM: BOX BOUNDS ss ss ss
-2.8683 3.2664
-2.6645 3.5511
-2.1479 1.8325
ITEM: ATOMS id type xs ys zs
1 1 .557991 .991128 .426206
2 1 .991605 .560579 .526314
3 1 .713720 .009327 .608270
4 1 .100901 .102625 .526884
5 1 .009541 .708045 .427944
6 1 .457319 .503810 .990850
7 1 .492343 .437934 .013579
ITEM: TIMESTEP
250
ITEM: NUMBER OF ATOMS
7
ITEM: BOX BOUNDS ss ss ss
-2.8683 3.2664
-2.6653 3.5435
-2.1411 1.8346
ITEM: ATOMS id type xs ys zs
1 1 .558513 .991030 .426424
2 1 .993033 .559461 .526751
3 1 .714262 .008946 .607713
4 1 .100189 .103613 .525059
5 1 .008758 .708737 .427337
6 1 .456990 .503738 .991055
7 1 .492313 .438369 .010343
ITEM: TIMESTEP
300
ITEM: NUMBER OF ATOMS
7
ITEM: BOX BOUNDS ss ss ss
-2.8683 3.2670
-2.6675 3.5446
-2.1377 1.8389
ITEM: ATOMS id type xs ys zs
1 1 .557987 .991042 .426328
2 1 .993620 .560392 .525336
3 1 .713425 .010212 .603939
4 1 .100009 .102193 .524876
5 1 .008558 .708802 .424651
6 1 .456513 .505569 .988663
7 1 .492599 .438429 .009725
ITEM: TIMESTEP
350
ITEM: NUMBER OF ATOMS
7
ITEM: BOX BOUNDS ss ss ss
-2.8558 3.2774
-2.6626 3.5428
-2.1413 1.8406
ITEM: ATOMS id type xs ys zs
1 1 .555972 .989984 .429033
2 1 .993256 .558849 .525507
3 1 .711830 .009586 .605203
4 1 .096385 .101259 .525361
5 1 .006656 .707477 .422527
6 1 .454951 .504380 .990207
7 1 .490322 .436964 .013669
ITEM: TIMESTEP
400
ITEM: NUMBER OF ATOMS
7
ITEM: BOX BOUNDS ss ss ss
-2.8607 3.2776
-2.6600 3.5391
-2.1530 1.8449
ITEM: ATOMS id type xs ys zs
1 1 .556639 .990017 .430258
2 1 .994652 .559617 .527272
3 1 .712309 .009449 .604591
4 1 .096837 .100116 .526065
5 1 .006032 .707151 .420306
6 1 .454936 .505704 .986761
7 1 .490415 .438207 .017161
ITEM: TIMESTEP
1
ITEM: NUMBER OF ATOMS
7
ITEM: BOX BOUNDS ss ss ss
-2.8460 3.2597
-2.6377 3.5163
-2.1137 1.8189
ITEM: ATOMS id type xs ys zs
1 1 .554585 .998239 .425935
2 1 .990264 .564970 .518672
3 1 .712112 .002580 .611442
4 1 .095864 .098480 .521691
5 1 .005338 .712967 .432639
6 1 .452425 .502965 .992921
7 1 .496701 .433365 .006078
ITEM: TIMESTEP
50
ITEM: NUMBER OF ATOMS
7
ITEM: BOX BOUNDS ss ss ss
-2.8460 3.2597
-2.6506 3.5348
-2.1210 1.8189
ITEM: ATOMS id type xs ys zs
1 1 .553082 .996529 .427190
2 1 .990506 .564253 .520486
3 1 .713363 .007994 .611206
4 1 .096391 .101004 .523762
5 1 .003979 .710942 .433169
6 1 .452520 .503421 .994769
7 1 .495229 .434935 .008828
ITEM: TIMESTEP
100
ITEM: NUMBER OF ATOMS
7
ITEM: BOX BOUNDS ss ss ss
-2.8475 3.2597
-2.6602 3.5480
-2.1314 1.8279
ITEM: ATOMS id type xs ys zs
1 1 .554170 .991784 .425454
2 1 .993810 .561813 .524067
3 1 .712583 .005692 .613024
4 1 .096900 .100143 .520866
5 1 .007598 .707285 .432615
6 1 .454919 .502093 .990483
7 1 .495465 .433483 .011955
ITEM: TIMESTEP
150
ITEM: NUMBER OF ATOMS
7
ITEM: BOX BOUNDS ss ss ss
-2.8460 3.2597
-2.6697 3.5484
-2.1397 1.8361
ITEM: ATOMS id type xs ys zs
1 1 .554990 .991313 .426303
2 1 .993560 .563043 .527105
3 1 .712466 .009554 .613182
4 1 .097882 .101626 .518845
5 1 .005503 .708555 .433958
6 1 .453978 .504276 .987304
7 1 .492502 .434549 .012535
ITEM: TIMESTEP
200
ITEM: NUMBER OF ATOMS
7
ITEM: BOX BOUNDS ss ss ss
-2.8471 3.2597
-2.6803 3.5560
-2.1306 1.8419
ITEM: ATOMS id type xs ys zs
1 1 .555313 .988597 .422388
2 1 .992079 .564134 .523265
3 1 .711806 .011721 .611878
4 1 .097533 .103118 .515767
5 1 .003306 .707546 .428406
6 1 .452797 .506377 .984289
7 1 .491583 .436409 .006515
ITEM: TIMESTEP
250
ITEM: NUMBER OF ATOMS
7
ITEM: BOX BOUNDS ss ss ss
-2.8538 3.2597
-2.6757 3.5595
-2.1363 1.8517
ITEM: ATOMS id type xs ys zs
1 1 .556012 .985708 .422703
2 1 .994519 .562196 .522779
3 1 .714248 .011588 .610511
4 1 .098062 .103083 .512489
5 1 .003758 .707735 .427981
6 1 .454672 .505480 .983963
7 1 .491655 .436158 .009598
ITEM: TIMESTEP
300
ITEM: NUMBER OF ATOMS
7
ITEM: BOX BOUNDS ss ss ss
-2.8592 3.2597
-2.6883 3.5658
-2.1372 1.8521
ITEM: ATOMS id type xs ys zs
1 1 .555563 .985839 .420910
2 1 .994508 .562143 .522484
3 1 .713203 .014228 .608567
4 1 .098687 .103349 .514381
5 1 .002516 .704815 .427577
6 1 .454389 .505919 .980798
7 1 .492683 .437934 .009307
ITEM: TIMESTEP
350
ITEM: NUMBER OF ATOMS
7
ITEM: BOX BOUNDS ss ss ss
-2.8748 3.2650
-2.6808 3.5606
-2.1435 1.8513
ITEM: ATOMS id type xs ys zs
1 1 .556217 .986621 .420973
2 1 .994471 .561835 .525971
3 1 .712962 .012782 .610021
4 1 .100154 .102446 .518092
5 1 .005678 .706715 .426896
6 1 .456116 .504721 .984377
7 1 .493888 .436905 .013608
ITEM: TIMESTEP
400
ITEM: NUMBER OF ATOMS
7
ITEM: BOX BOUNDS ss ss ss
-2.8780 3.2684
-2.6539 3.5422
-2.1451 1.8624
ITEM: ATOMS id type xs ys zs
1 1 .554769 .989465 .421045
2 1 .993559 .563081 .526377
3 1 .713661 .008387 .609801
4 1 .101258 .099867 .519001
5 1 .004328 .706646 .424994
6 1 .455142 .504779 .982082
7 1 .494057 .434859 .016995
ITEM: TIMESTEP
1
ITEM: NUMBER OF ATOMS
7
ITEM: BOX BOUNDS ss ss ss
-2.8796 3.2597
-2.6377 3.5163
-2.1252 1.8189
ITEM: ATOMS id type xs ys zs
1 1 .557037 .998253 .427589
2 1 .990295 .564984 .520127
3 1 .713676 .002567 .612600
4 1 .100804 .098525 .523041
5 1 .010777 .712974 .434307
6 1 .455456 .502981 .992948
7 1 .499478 .433386 .008998
ITEM: TIMESTEP
50
ITEM: NUMBER OF ATOMS
7
ITEM: BOX BOUNDS ss ss ss
-2.8796 3.2597
-2.6515 3.5371
-2.1252 1.8190
ITEM: ATOMS id type xs ys zs
1 1 .556776 .993302 .426689
2 1 .990755 .563725 .521173
3 1 .713354 .004640 .610980
4 1 .099872 .100566 .522573
5 1 .009823 .711761 .434715
6 1 .457606 .504300 .995363
7 1 .497947 .433786 .009590
ITEM: TIMESTEP
100
ITEM: NUMBER OF ATOMS
7
ITEM: BOX BOUNDS ss ss ss
-2.8796 3.2597
-2.6655 3.5450
-2.1343 1.8352
ITEM: ATOMS id type xs ys zs
1 1 .556959 .991303 .425613
2 1 .991511 .563856 .519504
3 1 .713998 .008472 .610768
4 1 .099236 .101616 .520810
5 1 .009214 .708677 .432809
6 1 .456497 .503746 .992110
7 1 .497580 .434442 .009670
ITEM: TIMESTEP
150
ITEM: NUMBER OF ATOMS
7
ITEM: BOX BOUNDS ss ss ss
-2.8796 3.2597
-2.6691 3.5514
-2.1515 1.8392
ITEM: ATOMS id type xs ys zs
1 1 .556602 .991764 .429013
2 1 .992170 .563927 .520043
3 1 .714845 .010287 .612214
4 1 .099991 .103378 .523328
5 1 .009867 .708018 .429866
6 1 .457510 .505055 .989570
7 1 .496058 .434039 .010489
ITEM: TIMESTEP
200
ITEM: NUMBER OF ATOMS
7
ITEM: BOX BOUNDS ss ss ss
-2.8796 3.2597
-2.6617 3.5524
-2.1534 1.8476
ITEM: ATOMS id type xs ys zs
1 1 .554072 .991748 .424097
2 1 .991072 .562783 .520857
3 1 .714608 .008727 .612747
4 1 .099945 .103030 .518934
5 1 .007931 .707042 .426596
6 1 .455982 .505400 .987729
7 1 .495240 .435619 .010693
ITEM: TIMESTEP
250
ITEM: NUMBER OF ATOMS
7
ITEM: BOX BOUNDS ss ss ss
-2.8796 3.2597
-2.6603 3.5480
-2.1560 1.8449
ITEM: ATOMS id type xs ys zs
1 1 .554175 .991979 .421157
2 1 .991080 .562994 .520271
3 1 .713729 .010796 .613970
4 1 .099964 .102968 .518721
5 1 .007626 .706538 .426175
6 1 .455111 .505053 .987426
7 1 .495266 .436041 .012749
ITEM: TIMESTEP
300
ITEM: NUMBER OF ATOMS
7
ITEM: BOX BOUNDS ss ss ss
-2.8796 3.2602
-2.6624 3.5463
-2.1610 1.8447
ITEM: ATOMS id type xs ys zs
1 1 .554547 .992095 .423153
2 1 .991802 .563719 .525420
3 1 .714761 .010747 .614200
4 1 .099153 .102765 .519960
5 1 .006709 .707388 .425799
6 1 .455367 .505985 .986788
7 1 .494580 .435924 .015034
ITEM: TIMESTEP
350
ITEM: NUMBER OF ATOMS
7
ITEM: BOX BOUNDS ss ss ss
-2.8796 3.2666
-2.6561 3.5479
-2.1504 1.8403
ITEM: ATOMS id type xs ys zs
1 1 .552569 .990613 .421035
2 1 .990407 .562535 .525962
3 1 .712632 .010437 .612314
4 1 .099203 .101495 .517653
5 1 .005540 .706918 .424307
6 1 .454094 .505699 .989741
7 1 .494536 .435509 .012998
ITEM: TIMESTEP
400
ITEM: NUMBER OF ATOMS
7
ITEM: BOX BOUNDS ss ss ss
-2.8796 3.2633
-2.6471 3.5468
-2.1478 1.8511
ITEM: ATOMS id type xs ys zs
1 1 .553120 .990769 .417384
2 1 .992586 .562303 .523853
3 1 .713020 .010577 .612807
4 1 .100157 .102196 .517945
5 1 .005081 .707174 .422992
6 1 .455179 .506464 .987093
7 1 .493013 .435744 .011716
ITEM: TIMESTEP
1
ITEM: NUMBER OF ATOMS
7
ITEM: BOX BOUNDS ss ss ss
-2.8796 3.2597
-2.6377 3.5247
-2.1291 1.8201
ITEM: ATOMS id type xs ys zs
1 1 .557015 .996912 .428036
2 1 .990305 .564222 .520388
3 1 .713654 .002554 .612775
4 1 .100799 .098376 .523350
5 1 .010763 .712020 .434743
6 1 .455440 .502313 .992614
7 1 .499497 .432790 .009913
ITEM: TIMESTEP
50
ITEM: NUMBER OF ATOMS
7
ITEM: BOX BOUNDS ss ss ss
-2.8796 3.2597
-2.6517 3.5384
-2.1291 1.8201
ITEM: ATOMS id type xs ys zs
1 1 .557738 .994600 .426400
2 1 .990506 .562250 .521577
3 1 .713648 .004610 .610285
4 1 .101868 .102859 .525726
5 1 .009662 .709938 .433904
6 1 .457331 .500786 .993895
7 1 .496670 .433891 .009881
ITEM: TIMESTEP
100
ITEM: NUMBER OF ATOMS
7
ITEM: BOX BOUNDS ss ss ss
-2.8796 3.2597
-2.6638 3.5513
-2.1344 1.8303
ITEM: ATOMS id type xs ys zs
1 1 .557781 .992968 .428037
2 1 .989853 .562254 .522758
3 1 .713792 .006989 .606901
4 1 .101892 .102165 .524514
5 1 .008339 .708697 .432833
6 1 .454926 .502916 .991414
7 1 .495916 .435198 .011298
ITEM: TIMESTEP
150
ITEM: NUMBER OF ATOMS
7
ITEM: BOX BOUNDS ss ss ss
-2.8796 3.2597
-2.6717 3.5581
-2.1368 1.8404
ITEM: ATOMS id type xs ys zs
1 1 .558010 .992308 .426725
2 1 .994100 .564008 .524388
3 1 .718288 .011391 .612140
4 1 .100712 .100249 .519653
5 1 .009710 .712149 .433576
6 1 .458940 .503538 .990923
7 1 .494309 .436576 .011433
ITEM: TIMESTEP
200
ITEM: NUMBER OF ATOMS
7
ITEM: BOX BOUNDS ss ss ss
-2.8796 3.2597
-2.6785 3.5588
-2.1512 1.8367
ITEM: ATOMS id type xs ys zs
1 1 .556366 .990390 .424304
2 1 .992425 .562599 .520731
3 1 .715842 .011229 .609494
4 1 .101035 .101138 .524078
5 1 .008225 .707967 .433875
6 1 .456490 .504192 .989313
7 1 .493681 .434772 .016185
ITEM: TIMESTEP
250
ITEM: NUMBER OF ATOMS
7
ITEM: BOX BOUNDS ss ss ss
-2.8796 3.2597
-2.6831 3.5620
-2.1404 1.8463
ITEM: ATOMS id type xs ys zs
1 1 .556603 .990188 .423315
2 1 .993379 .561199 .518379
3 1 .716097 .012286 .605333
4 1 .101209 .103257 .523079
5 1 .007843 .707030 .430670
6 1 .456882 .505585 .986741
7 1 .492496 .435151 .014021
ITEM: TIMESTEP
300
ITEM: NUMBER OF ATOMS
7
ITEM: BOX BOUNDS ss ss ss
-2.8796 3.2597
-2.6740 3.5457
-2.1323 1.8491
ITEM: ATOMS id type xs ys zs
1 1 .556047 .991760 .421736
2 1 .994396 .564277 .518124
3 1 .718715 .012524 .601991
4 1 .101970 .099493 .512764
5 1 .005516 .707801 .428787
6 1 .456909 .506524 .986293
7 1 .491932 .438817 .013361
ITEM: TIMESTEP
350
ITEM: NUMBER OF ATOMS
7
ITEM: BOX BOUNDS ss ss ss
-2.8796 3.2597
-2.6576 3.5494
-2.1291 1.8451
ITEM: ATOMS id type xs ys zs
1 1 .556242 .992465 .422019
2 1 .995031 .562484 .519709
3 1 .717994 .009895 .602309
4 1 .100985 .097320 .514757
5 1 .004839 .705166 .427494
6 1 .456710 .502842 .987540
7 1 .491815 .438481 .012512
ITEM: TIMESTEP
400
ITEM: NUMBER OF ATOMS
7
ITEM: BOX BOUNDS ss ss ss
-2.8841 3.2673
-2.6519 3.5458
-2.1226 1.8430
ITEM: ATOMS id type xs ys zs
1 1 .554950 .990406 .420035
2 1 .994556 .562173 .518679
3 1 .717599 .009049 .603277
4 1 .101920 .098188 .514933
5 1 .006220 .705715 .427815
6 1 .458756 .503439 .988452
7 1 .493314 .438355 .009313
ITEM: TIMESTEP
1
ITEM: NUMBER OF ATOMS
7
ITEM: BOX BOUNDS ss ss ss
-2.8671 3.2597
-2.6377 3.5205
-2.1144 1.8269
ITEM: ATOMS id type xs ys zs
1 1 .556097 .997550 .425189
2 1 .990294 .564605 .517726
3 1 .713094 .002548 .610271
4 1 .099006 .098450 .520706
5 1 .008752 .712462 .431840
6 1 .454332 .502659 .990854
7 1 .498442 .433098 .006218
ITEM: TIMESTEP
50
ITEM: NUMBER OF ATOMS
7
ITEM: BOX BOUNDS ss ss ss
-2.8671 3.2597
-2.6517 3.5356
-2.1230 1.8269
ITEM: ATOMS id type xs ys zs
1 1 .556198 .994379 .427867
2 1 .991709 .562428 .518751
3 1 .713658 .005765 .609136
4 1 .100535 .099689 .522748
5 1 .010197 .711128 .432965
6 1 .454602 .503742 .990467
7 1 .496161 .436856 .007371
ITEM: TIMESTEP
100
ITEM: NUMBER OF ATOMS
7
ITEM: BOX BOUNDS ss ss ss
-2.8671 3.2597
-2.6689 3.5459
-2.1347 1.8296
ITEM: ATOMS id type xs ys zs
1 1 .555266 .993363 .427888
2 1 .991093 .562810 .520030
3 1 .712161 .008365 .609730
4 1 .100586 .102028 .524384
5 1 .009174 .711279 .432206
6 1 .455280 .504137 .990373
7 1 .495638 .438544 .011165
ITEM: TIMESTEP
150
ITEM: NUMBER OF ATOMS
7
ITEM: BOX BOUNDS ss ss ss
-2.8671 3.2597
-2.6653 3.5560
-2.1402 1.8426
ITEM: ATOMS id type xs ys zs
1 1 .554528 .992613 .428303
2 1 .992588 .561094 .518330
3 1 .709869 .008374 .606240
4 1 .099478 .104013 .520194
5 1 .008387 .709654 .429388
6 1 .455429 .502460 .989853
7 1 .494728 .438679 .012970
ITEM: TIMESTEP
200
ITEM: NUMBER OF ATOMS
7
ITEM: BOX BOUNDS ss ss ss
-2.8671 3.2597
-2.6786 3.5558
-2.1426 1.8402
ITEM: ATOMS id type xs ys zs
1 1 .555041 .992996 .429848
2 1 .993456 .561814 .518409
3 1 .710618 .008738 .604874
4 1 .098859 .105570 .520994
5 1 .007899 .709561 .430774
6 1 .457288 .503857 .989871
7 1 .492967 .439399 .014537
ITEM: TIMESTEP
250
ITEM: NUMBER OF ATOMS
7
ITEM: BOX BOUNDS ss ss ss
-2.8671 3.2597
-2.6732 3.5657
-2.1451 1.8484
ITEM: ATOMS id type xs ys zs
1 1 .555383 .990570 .432339
2 1 .993084 .559242 .521293
3 1 .710600 .008944 .604111
4 1 .099828 .105234 .519253
5 1 .007522 .708245 .429284
6 1 .458648 .502044 .986817
7 1 .494107 .439166 .013925
ITEM: TIMESTEP
300
ITEM: NUMBER OF ATOMS
7
ITEM: BOX BOUNDS ss ss ss
-2.8671 3.2597
-2.6821 3.5579
-2.1433 1.8461
ITEM: ATOMS id type xs ys zs
1 1 .555654 .992313 .431318
2 1 .992307 .560173 .520893
3 1 .709593 .009310 .599951
4 1 .096640 .108697 .519145
5 1 .005419 .709003 .426630
6 1 .455534 .504858 .987096
7 1 .492164 .440033 .014616
ITEM: TIMESTEP
350
ITEM: NUMBER OF ATOMS
7
ITEM: BOX BOUNDS ss ss ss
-2.8671 3.2597
-2.6741 3.5612
-2.1514 1.8522
ITEM: ATOMS id type xs ys zs
1 1 .555053 .990201 .431412
2 1 .993608 .558705 .521417
3 1 .708725 .008499 .602410
4 1 .096883 .107559 .519788
5 1 .003969 .708038 .427862
6 1 .455683 .502766 .986580
7 1 .492475 .439671 .014970
ITEM: TIMESTEP
400
ITEM: NUMBER OF ATOMS
7
ITEM: BOX BOUNDS ss ss ss
-2.8748 3.2667
-2.6723 3.5731
-2.1504 1.8522
ITEM: ATOMS id type xs ys zs
1 1 .554994 .988029 .431030
2 1 .993056 .555979 .524297
3 1 .707755 .009076 .599809
4 1 .098491 .109553 .518781
5 1 .004218 .705697 .427785
6 1 .456802 .503642 .989162
7 1 .491073 .439440 .014661
ITEM: TIMESTEP
1
ITEM: NUMBER OF ATOMS
7
ITEM: BOX BOUNDS ss ss ss
-2.8608 3.2540
-2.6521 3.5285
-2.1143 1.8206
ITEM: ATOMS id type xs ys zs
1 1 .556162 .996291 .425809
2 1 .991221 .564903 .518621
3 1 .713476 .004851 .611223
4 1 .098165 .100421 .521524
5 1 .007749 .712242 .432533
6 1 .454191 .503176 .992454
7 1 .498374 .433862 .006272
ITEM: TIMESTEP
50
ITEM: NUMBER OF ATOMS
7
ITEM: BOX BOUNDS ss ss ss
-2.8608 3.2540
-2.6529 3.5400
-2.1181 1.8226
ITEM: ATOMS id type xs ys zs
1 1 .556683 .993464 .424362
2 1 .992860 .563771 .520762
3 1 .714592 .004795 .608567
4 1 .099336 .098635 .523666
5 1 .007494 .709726 .433042
6 1 .453352 .502270 .993110
7 1 .497694 .434174 .009546
ITEM: TIMESTEP
100
ITEM: NUMBER OF ATOMS
7
ITEM: BOX BOUNDS ss ss ss
-2.8608 3.2540
-2.6690 3.5495
-2.1334 1.8348
ITEM: ATOMS id type xs ys zs
1 1 .558923 .991509 .428050
2 1 .992100 .565538 .526156
3 1 .713550 .009237 .611817
4 1 .100274 .105103 .525583
5 1 .006067 .710984 .431526
6 1 .454569 .504484 .988500
7 1 .497226 .435984 .010563
ITEM: TIMESTEP
150
ITEM: NUMBER OF ATOMS
7
ITEM: BOX BOUNDS ss ss ss
-2.8608 3.2540
-2.6716 3.5529
-2.1368 1.8344
ITEM: ATOMS id type xs ys zs
1 1 .557249 .991140 .426514
2 1 .994299 .566124 .526106
3 1 .715256 .007585 .613910
4 1 .097868 .103977 .522606
5 1 .008251 .712027 .430433
6 1 .455408 .501477 .987529
7 1 .497237 .434834 .012949
ITEM: TIMESTEP
200
ITEM: NUMBER OF ATOMS
7
ITEM: BOX BOUNDS ss ss ss
-2.8608 3.2540
-2.6720 3.5632
-2.1442 1.8419
ITEM: ATOMS id type xs ys zs
1 1 .557562 .989888 .424390
2 1 .995325 .562907 .528918
3 1 .715731 .008192 .616725
4 1 .098395 .104161 .527173
5 1 .009159 .710842 .424436
6 1 .457377 .502031 .984811
7 1 .499480 .433849 .014787
ITEM: TIMESTEP
250
ITEM: NUMBER OF ATOMS
7
ITEM: BOX BOUNDS ss ss ss
-2.8608 3.2540
-2.6831 3.5724
-2.1464 1.8538
ITEM: ATOMS id type xs ys zs
1 1 .557907 .986956 .419286
2 1 .998842 .565910 .526822
3 1 .716425 .009490 .614111
4 1 .098139 .105366 .521887
5 1 .008485 .708251 .423379
6 1 .457736 .502552 .982568
7 1 .499194 .435049 .015548
ITEM: TIMESTEP
300
ITEM: NUMBER OF ATOMS
7
ITEM: BOX BOUNDS ss ss ss
-2.8608 3.2661
-2.6727 3.5713
-2.1410 1.8540
ITEM: ATOMS id type xs ys zs
1 1 .556157 .988199 .421698
2 1 .995521 .563925 .521889
3 1 .715476 .008832 .610795
4 1 .098124 .104720 .519568
5 1 .007181 .707464 .424972
6 1 .456576 .500833 .983507
7 1 .495618 .434110 .014915
ITEM: TIMESTEP
350
ITEM: NUMBER OF ATOMS
7
ITEM: BOX BOUNDS ss ss ss
-2.8608 3.2765
-2.6780 3.5475
-2.1465 1.8424
ITEM: ATOMS id type xs ys zs
1 1 .551270 .992558 .425868
2 1 .992230 .565434 .517143
3 1 .717300 .012763 .611934
4 1 .096685 .104893 .521174
5 1 .004724 .708387 .430628
6 1 .455672 .503354 .985468
7 1 .490171 .439217 .015890
ITEM: TIMESTEP
400
ITEM: NUMBER OF ATOMS
7
ITEM: BOX BOUNDS ss ss ss
-2.8608 3.2776
-2.6688 3.5461
-2.1395 1.8538
ITEM: ATOMS id type xs ys zs
1 1 .557647 .990565 .418040
2 1 .993764 .564481 .527093
3 1 .714961 .009420 .610624
4 1 .100701 .106025 .522086
5 1 .009531 .709541 .422729
6 1 .455757 .506386 .983660
7 1 .494167 .435249 .009944
ITEM: TIMESTEP
1
ITEM: NUMBER OF ATOMS
7
ITEM: BOX BOUNDS ss ss ss
-2.8608 3.2675
-2.6521 3.5285
-2.1156 1.8206
ITEM: ATOMS id type xs ys zs
1 1 .554956 .996312 .426002
2 1 .988996 .564912 .518699
3 1 .711865 .004895 .611377
4 1 .097891 .100408 .521657
5 1 .007710 .712239 .432743
6 1 .453213 .503165 .992490
7 1 .497296 .433887 .006561
ITEM: TIMESTEP
50
ITEM: NUMBER OF ATOMS
7
ITEM: BOX BOUNDS ss ss ss
-2.8608 3.2675
-2.6521 3.5400
-2.1193 1.8206
ITEM: ATOMS id type xs ys zs
1 1 .554352 .994698 .428732
2 1 .990062 .563435 .520563
3 1 .712222 .004928 .611517
4 1 .098370 .099519 .522447
5 1 .007193 .710363 .434336
6 1 .453867 .502802 .991976
7 1 .495603 .433707 .007351
ITEM: TIMESTEP
100
ITEM: NUMBER OF ATOMS
7
ITEM: BOX BOUNDS ss ss ss
-2.8608 3.2675
-2.6677 3.5533
-2.1374 1.8283
ITEM: ATOMS id type xs ys zs
1 1 .553527 .991405 .430012
2 1 .989548 .564760 .522067
3 1 .711549 .008718 .614029
4 1 .097596 .102161 .522950
5 1 .006655 .709936 .435630
6 1 .453977 .502934 .992912
7 1 .494823 .434570 .009928
ITEM: TIMESTEP
150
ITEM: NUMBER OF ATOMS
7
ITEM: BOX BOUNDS ss ss ss
-2.8608 3.2675
-2.6712 3.5614
-2.1509 1.8380
ITEM: ATOMS id type xs ys zs
1 1 .557156 .989430 .425287
2 1 .993479 .563904 .523655
3 1 .714263 .008464 .616006
4 1 .098368 .101934 .526082
5 1 .006190 .708898 .435409
6 1 .454337 .501561 .988031
7 1 .497610 .434941 .014028
ITEM: TIMESTEP
200
ITEM: NUMBER OF ATOMS
7
ITEM: BOX BOUNDS ss ss ss
-2.8677 3.2675
-2.6744 3.5661
-2.1589 1.8401
ITEM: ATOMS id type xs ys zs
1 1 .550345 .986532 .429599
2 1 .992815 .563323 .526609
3 1 .709602 .008487 .615084
4 1 .096294 .104246 .524749
5 1 .001800 .710645 .439276
6 1 .454001 .501776 .988804
7 1 .493787 .432043 .018163
ITEM: TIMESTEP
250
ITEM: NUMBER OF ATOMS
7
ITEM: BOX BOUNDS ss ss ss
-2.8804 3.2675
-2.6714 3.5717
-2.1455 1.8496
ITEM: ATOMS id type xs ys zs
1 1 .552666 .986453 .426224
2 1 .994866 .562110 .525924
3 1 .711138 .006751 .613238
4 1 .098026 .105375 .523637
5 1 .005243 .710605 .434381
6 1 .455239 .504161 .985738
7 1 .493758 .431951 .014378
ITEM: TIMESTEP
300
ITEM: NUMBER OF ATOMS
7
ITEM: BOX BOUNDS ss ss ss
-2.8881 3.2679
-2.6776 3.5692
-2.1540 1.8403
ITEM: ATOMS id type xs ys zs
1 1 .552873 .987105 .429478
2 1 .992052 .561650 .526653
3 1 .713597 .006647 .616457
4 1 .098043 .104718 .522661
5 1 .007159 .708926 .434387
6 1 .455628 .503784 .987406
7 1 .494013 .432705 .018477
ITEM: TIMESTEP
350
ITEM: NUMBER OF ATOMS
7
ITEM: BOX BOUNDS ss ss ss
-2.8901 3.2675
-2.6854 3.5598
-2.1472 1.8548
ITEM: ATOMS id type xs ys zs
1 1 .553898 .989203 .422715